                              Psi4 1.0.54 Driver

  ==> Input File <==

--------------------------------------------------------------------------
set {
	reference rhf
	basis cc-pvtz
}

set_num_threads( 4 )
memory 2 gb

molecule MOL {
0 1

O	 -0.257369	 -0.459271	 1.868653
C	 -0.255557	 0.282767	 0.928390
C	 -1.270484	 1.404438	 0.847083
N	 0.622280	 0.144970	 -0.099307
H	 -1.885607	 1.316412	 -0.039608
H	 -1.895173	 1.337775	 1.722189
H	 -0.786961	 2.373334	 0.826593
C	 1.664396	 -0.854993	 0.000772
C	 0.810602	 1.130782	 -1.136835
H	 2.462727	 -0.615153	 -0.690869
H	 1.261798	 -1.821849	 -0.240651
H	 2.081615	 -0.891605	 1.003877
H	 1.074890	 0.630223	 -2.059455
H	 -0.088236	 1.694639	 -1.318639
H	 1.610482	 1.827020	 -0.894990

	symmetry c1
}
set optking {
	frozen_dihedral = ("
		2 4 8 10
	")
}

ee,wfn = optimize('scf', return_wfn=True)
oeprop( wfn, 'DIPOLE', 'QUADRUPOLE', 'MULLIKEN_CHARGES')
f=open( 'psi4out.xyz', 'w' )
f.write( "15  " )
f.write( str(ee) + "\n" )
f.write( MOL.save_string_xyz() )
f.close()
--------------------------------------------------------------------------

    Molecular point group: c1
  Charge       = 0
  Multiplicity = 1
  Basis Set: CC-PVTZ
  Basis Set:
  @DF-RHF Final Energy:  -286.13369986707562
    Total Energy =                       -286.1336998670755634
    Molecular point group: c1
  Basis Set: CC-PVTZ
  Basis Set:
  Basis Set: CC-PVTZ
  Basis Set:
  @DF-RHF Final Energy:  -286.13434222705382
    Total Energy =                       -286.1343422270540486
  Basis Set: CC-PVTZ
  Basis Set:
  Basis Set: CC-PVTZ
  Basis Set:
  @DF-RHF Final Energy:  -286.13445791557945
    Total Energy =                       -286.1344579155794463
  Basis Set: CC-PVTZ
  Basis Set:
  Basis Set: CC-PVTZ
  Basis Set:
  @DF-RHF Final Energy:  -286.13448958837643
    Total Energy =                       -286.1344895883766526
  Basis Set: CC-PVTZ
  Basis Set:
  @DF-RHF Final Energy:  -286.13475159984228
    Total Energy =                       -286.1347515998422750
  @DF-RHF Final Energy:  -286.13489534937628
    Total Energy =                       -286.1348953493763929
  @DF-RHF Final Energy:  -286.13503111632173
    Total Energy =                       -286.1350311163218976
  @DF-RHF Final Energy:  -286.13514490191324
    Total Energy =                       -286.1351449019130087
  @DF-RHF Final Energy:  -286.13521485113552
    Total Energy =                       -286.1352148511356859
  @DF-RHF Final Energy:  -286.13536870779421
    Total Energy =                       -286.1353687077943277
  @DF-RHF Final Energy:  -286.13543923614327
    Total Energy =                       -286.1354392361432701
  Basis Set: CC-PVTZ
  Basis Set:
  @DF-RHF Final Energy:  -286.13548314148886
    Total Energy =                       -286.1354831414889190
  Basis Set: CC-PVTZ
  Basis Set:
  Basis Set: CC-PVTZ
  Basis Set:
  @DF-RHF Final Energy:  -286.13547429083644
    Total Energy =                       -286.1354742908363278
  Basis Set: CC-PVTZ
  Basis Set:
  Basis Set: CC-PVTZ
  Basis Set:
  @DF-RHF Final Energy:  -286.13549102520932
    Total Energy =                       -286.1354910252092054
  Basis Set: CC-PVTZ
  Basis Set:
  Charge       = 0
  Multiplicity = 1
  Basis Set: CC-PVTZ
  Basis Set:

    Orbital Energies (a.u.)
    -----------------------

    Doubly Occupied:

       1A    -20.504953     2A    -15.577802     3A    -11.334245
       4A    -11.263991     5A    -11.246698     6A    -11.226619
       7A     -1.388391     8A     -1.245377     9A     -1.014903
      10A     -0.973235    11A     -0.919768    12A     -0.738608
      13A     -0.682722    14A     -0.661078    15A     -0.653823
      16A     -0.589726    17A     -0.578253    18A     -0.569164
      19A     -0.562900    20A     -0.547491    21A     -0.530680
      22A     -0.504891    23A     -0.414844    24A     -0.371300

  @DF-RHF Final Energy:  -286.13549124810652

   => Energetics <=

    Nuclear Repulsion Energy =            253.0587827276526411
    One-Electron Energy =                -890.1856233940495713
    Two-Electron Energy =                 350.9913494182904969
    DFT Exchange-Correlation Energy =       0.0000000000000000
    Empirical Dispersion Energy =           0.0000000000000000
    PCM Polarization Energy =               0.0000000000000000
    EFP Energy =                            0.0000000000000000
    Total Energy =                       -286.1354912481064048
    Molecular point group: c1
  Basis Set: CC-PVTZ
  Basis Set:

  -Total Gradient:
     Atom            X                  Y                   Z
    ------   -----------------  -----------------  -----------------
       1        0.000006576325     0.000012138781    -0.000017130912
       2       -0.000255324751    -0.000239269710    -0.000287669252
       3        0.000017327384     0.000010792133     0.000016816345
       4        0.000305621134     0.000283053022     0.000303357668
       5        0.000005126501    -0.000006017556    -0.000005864985
       6       -0.000005288135    -0.000001458139     0.000002047814
       7       -0.000009570612     0.000002854649     0.000001716254
       8        0.000101375885     0.000116892570     0.000440857942
       9       -0.000010360583    -0.000006710757     0.000008816439
      10       -0.000157383791    -0.000177306404    -0.000456740204
      11       -0.000000811540     0.000007284254     0.000002483908
      12       -0.000002061596     0.000000006525    -0.000002660409
      13        0.000004698094     0.000002257509     0.000000137446
      14        0.000004226354    -0.000003011884    -0.000006011232
      15       -0.000004150667    -0.000001504992    -0.000000156823

  **** Optimization is complete! (in 15 steps) ****
    Final optimized geometry and variables:
    Molecular point group: c1

    Geometry (in Angstrom), charge = 0, multiplicity = 1:

    O           -0.590795714181    -0.843593527653     1.358183011157
    C           -0.507041756957    -0.009057874749     0.503432209434
    C           -1.587360219003     1.041912006742     0.356972293968
    N            0.557303265989     0.042794588133    -0.340292210909
    H           -2.098267264684     0.947297317020    -0.593549309219
    H           -2.295420498538     0.890512776786     1.154758976153
    H           -1.179713737807     2.042619545527     0.422206727216
    C            1.527338536336    -1.030963892269    -0.260796714268
    C            0.574258867456     0.816919323125    -1.559410874918
    H            2.456553031608    -0.697863010057    -0.702876936489
    H            1.192169539006    -1.916903723880    -0.793211606958
    H            1.696107596890    -1.299125178245     0.767697289314
    H            0.233239648460     0.237542255121    -2.414661733359
    H           -0.042661436405     1.695324360956    -1.477686277946
    H            1.585308325571     1.145008934860    -1.761677040424

  Mulliken Charges: (a.u.)
   Center  Symbol    Alpha    Beta     Spin     Total
       1     O     4.21906  4.21906  0.00000 -0.43812
       2     C     2.84489  2.84489  0.00000  0.31021
       3     C     3.16064  3.16064  0.00000 -0.32128
       4     N     3.56440  3.56440  0.00000 -0.12880
       5     H     0.44895  0.44895  0.00000  0.10209
       6     H     0.42873  0.42873  0.00000  0.14254
       7     H     0.44878  0.44878  0.00000  0.10244
       8     C     3.09398  3.09398  0.00000 -0.18796
       9     C     3.09604  3.09604  0.00000 -0.19208
      10     H     0.45766  0.45766  0.00000  0.08469
      11     H     0.45580  0.45580  0.00000  0.08840
      12     H     0.43129  0.43129  0.00000  0.13741
      13     H     0.45572  0.45572  0.00000  0.08855
      14     H     0.44545  0.44545  0.00000  0.10910
      15     H     0.44860  0.44860  0.00000  0.10280

   Total alpha = 24.00000, Total beta = 24.00000, Total charge = -0.00000

*** Psi4 exiting successfully. Buy a developer a beer!
