  ==> Input File <==

--------------------------------------------------------------------------
set {
	reference rhf
	basis 6-31G*
}

set_num_threads( 4 )
memory 2 gb

molecule MOL {
0 1

H	 -1.116781	 -0.133951	 -0.874220
C	 -0.790252	 0.431209	 0.000000
N	 0.538815	 0.649616	 0.000000
O	 -1.558490	 0.796449	 0.840011
C	 1.521968	 -0.411503	 0.000000
H	 0.852804	 1.592852	 0.000000
H	 2.150599	 -0.357004	 -0.881901
H	 0.999455	 -1.354525	 0.000000
H	 2.150599	 -0.357004	 0.881901

	symmetry c1
}
set optking {
	frozen_dihedral = ("
		1 2 3 6
	")
}

ee = optimize('scf')
oeprop('DIPOLE', 'QUADRUPOLE', 'MULLIKEN_CHARGES')
f=open( 'psi4out.xyz', 'w' )
f.write( "9  " )
f.write( str(ee) + "\n" )
f.write( MOL.save_string_xyz() )
f.close()
--------------------------------------------------------------------------

    Molecular point group: c1
  Charge       = 0
  Multiplicity = 1
  Basis Set: 6-31G*
  Basis Set:
  @DF-RHF Final Energy:  -207.92875430128555
    Total Energy =                       -207.9287543012856077
    Molecular point group: c1
  Basis Set: 6-31G*
  Basis Set:
  Basis Set: 6-31G*
  Basis Set:
  @DF-RHF Final Energy:  -207.93383634344656
    Total Energy =                       -207.9338363434465862
  Basis Set: 6-31G*
  Basis Set:
  Basis Set: 6-31G*
  Basis Set:
  @DF-RHF Final Energy:  -207.93892432331671
    Total Energy =                       -207.9389243233168258
  Basis Set: 6-31G*
  Basis Set:
  Basis Set: 6-31G*
  Basis Set:
  @DF-RHF Final Energy:  -207.94352894864454
    Total Energy =                       -207.9435289486444844
  Basis Set: 6-31G*
  Basis Set:
  @DF-RHF Final Energy:  -207.94408623010190
    Total Energy =                       -207.9440862301018456
  @DF-RHF Final Energy:  -207.94440112886397
    Total Energy =                       -207.9444011288639729
  @DF-RHF Final Energy:  -207.94467712391477
    Total Energy =                       -207.9446771239148291
  @DF-RHF Final Energy:  -207.94488274956421
    Total Energy =                       -207.9448827495642718
  @DF-RHF Final Energy:  -207.94502257157757
    Total Energy =                       -207.9450225715775105
  Basis Set: 6-31G*
  Basis Set:
  @DF-RHF Final Energy:  -207.94519988526639
    Total Energy =                       -207.9451998852664758
  Basis Set: 6-31G*
  Basis Set:
  Basis Set: 6-31G*
  Basis Set:
  @DF-RHF Final Energy:  -207.94524185185742
    Total Energy =                       -207.9452418518574177
  Basis Set: 6-31G*
  Basis Set:
  Basis Set: 6-31G*
  Basis Set:
  @DF-RHF Final Energy:  -207.94524500112618
    Total Energy =                       -207.9452450011261817
  Basis Set: 6-31G*
  Basis Set:
  Charge       = 0
  Multiplicity = 1
  Basis Set: 6-31G*
  Basis Set:

    Orbital Energies (a.u.)
    -----------------------

    Doubly Occupied:

       1A    -20.548591     2A    -15.582116     3A    -11.351314
       4A    -11.268724     5A     -1.406381     6A     -1.236161
       7A     -0.952708     8A     -0.836397     9A     -0.699755
      10A     -0.675954    11A     -0.641337    12A     -0.583519
      13A     -0.565501    14A     -0.536456    15A     -0.437788
      16A     -0.401334

  @DF-RHF Final Energy:  -207.94524522339782

   => Energetics <=

    Nuclear Repulsion Energy =            120.2145629117914609
    One-Electron Energy =                -520.8715482398798713
    Two-Electron Energy =                 192.7117401046906480
    DFT Exchange-Correlation Energy =       0.0000000000000000
    Empirical Dispersion Energy =           0.0000000000000000
    PCM Polarization Energy =               0.0000000000000000
    EFP Energy =                            0.0000000000000000
    Total Energy =                       -207.9452452233977624
    Molecular point group: c1
  Basis Set: 6-31G*
  Basis Set:

  -Total Gradient:
     Atom            X                  Y                   Z
    ------   -----------------  -----------------  -----------------
       1        0.002393071384     0.009051413630    -0.007866494990
       2       -0.001989187031    -0.012718635415     0.007406739462
       3       -0.005357533537     0.006422990387     0.012207489604
       4        0.000008622661    -0.000021808109    -0.000018197423
       5        0.000032541221     0.000015585966     0.000045201227
       6        0.004905047211    -0.002737278457    -0.011759206075
       7        0.000014392442    -0.000016933963    -0.000004997748
       8        0.000005130846    -0.000003341831    -0.000007382940
       9       -0.000012085196     0.000008007791    -0.000003151117

  **** Optimization is complete! (in 13 steps) ****
    Final optimized geometry and variables:
    Molecular point group: c1

    Geometry (in Angstrom), charge = 0, multiplicity = 1:

    H           -0.780831785789    -0.677299996000    -1.041054840423
    C           -0.672988707623     0.020037987043    -0.205518732137
    N            0.611428162796     0.117452806756     0.299896724385
    O           -1.577716135045     0.706434943186     0.139453278781
    C            1.582869294585    -0.850246094706    -0.187547818038
    H            0.960685885101     1.051603853539     0.227375264242
    H            1.775128016505    -0.777308450380    -1.256959752191
    H            1.239434544653    -1.853074484060     0.031595804375
    H            2.515893993688    -0.702340845979     0.339124732278

  Mulliken Charges: (a.u.)
   Center  Symbol    Alpha    Beta     Spin     Total
       1     H     0.42946  0.42946  0.00000  0.14107
       2     C     2.75460  2.75460  0.00000  0.49080
       3     N     3.85695  3.85695  0.00000 -0.71389
       4     O     4.25671  4.25671  0.00000 -0.51341
       5     C     3.16121  3.16121  0.00000 -0.32243
       6     H     0.30952  0.30952  0.00000  0.38096
       7     H     0.42069  0.42069  0.00000  0.15862
       8     H     0.40681  0.40681  0.00000  0.18638
       9     H     0.40405  0.40405  0.00000  0.19191

   Total alpha = 16.00000, Total beta = 16.00000, Total charge =  0.00000
