  ==> Input File <==

--------------------------------------------------------------------------
set {
	reference rhf
	basis 6-31G*
}

set_num_threads( 4 )
memory 2 gb

molecule MOL {
0 1

O	 -0.092672	 0.829136	 -1.440687
C	 -0.343585	 -0.117372	 -0.767976
C	 -1.689662	 -0.782119	 -0.674406
O	 0.550821	 -0.724572	 0.000672
H	 -1.606847	 -1.820323	 -0.974337
H	 -2.392680	 -0.267228	 -1.312014
H	 -2.036196	 -0.763507	 0.352311
C	 1.863949	 -0.193559	 -0.000319
H	 2.028859	 0.409284	 -0.881648
H	 2.526261	 -1.045082	 -0.000003
H	 2.029520	 0.410555	 0.880008

	symmetry c1
}
set optking {
	frozen_dihedral = ("
		2 4 8 9
	")
}

ee = optimize('scf')
oeprop('DIPOLE', 'QUADRUPOLE', 'MULLIKEN_CHARGES')
f=open( 'psi4out.xyz', 'w' )
f.write( "11  " )
f.write( str(ee) + "\n" )
f.write( MOL.save_string_xyz() )
f.close()
--------------------------------------------------------------------------

    Molecular point group: c1
  Charge       = 0
  Multiplicity = 1
  Basis Set: 6-31G*
  Basis Set:
  @DF-RHF Final Energy:  -266.83424257714591
    Total Energy =                       -266.8342425771463127
    Molecular point group: c1
  Basis Set: 6-31G*
  Basis Set:
  Basis Set: 6-31G*
  Basis Set:
  @DF-RHF Final Energy:  -266.83439445762338
    Total Energy =                       -266.8343944576230342
  Basis Set: 6-31G*
  Basis Set:
  Basis Set: 6-31G*
  Basis Set:
  @DF-RHF Final Energy:  -266.83453673676422
    Total Energy =                       -266.8345367367642211
  Basis Set: 6-31G*
  Basis Set:
  Basis Set: 6-31G*
  Basis Set:
  @DF-RHF Final Energy:  -266.83468511792341
    Total Energy =                       -266.8346851179231862
  Basis Set: 6-31G*
  Basis Set:
  Basis Set: 6-31G*
  Basis Set:
  @DF-RHF Final Energy:  -266.83475716021428
    Total Energy =                       -266.8347571602143375
  Basis Set: 6-31G*
  Basis Set:
  Charge       = 0
  Multiplicity = 1
  Basis Set: 6-31G*
  Basis Set:

    Orbital Energies (a.u.)
    -----------------------

    Doubly Occupied:

       1A    -20.605031     2A    -20.545858     3A    -11.377545
       4A    -11.281006     5A    -11.234152     6A     -1.468985
       7A     -1.364892     8A     -1.035964     9A     -0.953388
      10A     -0.777462    11A     -0.696750    12A     -0.679067
      13A     -0.677008    14A     -0.597026    15A     -0.591238
      16A     -0.560692    17A     -0.527986    18A     -0.519818
      19A     -0.454963    20A     -0.442302

  @DF-RHF Final Energy:  -266.83477150865821

   => Energetics <=

    Nuclear Repulsion Energy =            182.9382334262671179
    One-Electron Energy =                -726.7637439619132920
    Two-Electron Energy =                 276.9907390269879670
    DFT Exchange-Correlation Energy =       0.0000000000000000
    Empirical Dispersion Energy =           0.0000000000000000
    PCM Polarization Energy =               0.0000000000000000
    EFP Energy =                            0.0000000000000000
    Total Energy =                       -266.8347715086581502
    Molecular point group: c1
  Basis Set: 6-31G*
  Basis Set:

  -Total Gradient:
     Atom            X                  Y                   Z
    ------   -----------------  -----------------  -----------------
       1        0.000056145335    -0.000056237813     0.000071305299
       2        0.000237644990    -0.000702314501    -0.000920191255
       3       -0.000024381370     0.000006562560     0.000038443361
       4       -0.000493153029     0.001488363393     0.001416810352
       5       -0.000005617241    -0.000037418649    -0.000000386446
       6        0.000006826134     0.000004863464     0.000014429712
       7       -0.000004256694    -0.000006198726    -0.000026753506
       8        0.000697720919    -0.001819688584    -0.001326418347
       9       -0.000442152074     0.001112973930     0.000668968919
      10        0.000026527700     0.000007994824     0.000031151465
      11       -0.000055304672     0.000001100101     0.000032640449

  **** Optimization is complete! (in 6 steps) ****
    Final optimized geometry and variables:
    Molecular point group: c1

    Geometry (in Angstrom), charge = 0, multiplicity = 1:

    O           -0.202577097590     1.039704185254    -0.872621798784
    C           -0.426210899903     0.086699979914    -0.199887287833
    C           -1.760962940282    -0.599644182906    -0.094951300661
    O            0.477756831982    -0.513455507914     0.564669740854
    H           -1.664701379093    -1.635739975371    -0.398172585391
    H           -2.478297457955    -0.094044678858    -0.723835305149
    H           -2.097192096363    -0.588986395175     0.935323811170
    C            1.806082982610    -0.018015897686     0.572824864299
    H            1.999929329057     0.576535573457    -0.304278099936
    H            2.460683511268    -0.875709393472     0.610885229421
    H            1.949859569327     0.588047427422     1.457564622125

  Mulliken Charges: (a.u.)
   Center  Symbol    Alpha    Beta     Spin     Total
       1     O     4.28182  4.28182  0.00000 -0.56363
       2     C     2.62214  2.62214  0.00000  0.75571
       3     C     3.28202  3.28202  0.00000 -0.56403
       4     O     4.30111  4.30111  0.00000 -0.60222
       5     H     0.40017  0.40017  0.00000  0.19965
       6     H     0.39678  0.39678  0.00000  0.20645
       7     H     0.39993  0.39993  0.00000  0.20014
       8     C     3.09709  3.09709  0.00000 -0.19417
       9     H     0.39587  0.39587  0.00000  0.20826
      10     H     0.41014  0.41014  0.00000  0.17971
      11     H     0.41293  0.41293  0.00000  0.17413

   Total alpha = 20.00000, Total beta = 20.00000, Total charge =  0.00000
