                              Psi4 1.0.54 Driver

  ==> Input File <==

--------------------------------------------------------------------------
set {
	reference rhf
	basis cc-pvtz
}

set_num_threads( 4 )
memory 2 gb

molecule MOL {
0 1

O	 2.868453	 1.353349	 -0.000734
C	 2.841259	 0.166180	 -0.000295
C	 1.542794	 -0.614730	 -0.000853
C	 4.113372	 -0.651103	 0.000743
C	 0.288398	 0.247429	 0.000314
H	 1.557171	 -1.273139	 -0.866508
H	 1.557484	 -1.274998	 0.863344
C	 -0.969185	 -0.547051	 0.341487
H	 0.176963	 0.714197	 -0.971707
H	 0.415193	 1.058520	 0.708260
C	 -2.234378	 0.305943	 0.345781
H	 -1.088602	 -1.360190	 -0.371128
H	 -0.849458	 -1.013944	 1.316647
C	 -3.496545	 -0.481514	 0.685752
H	 -2.355049	 0.772878	 -0.628654
H	 -2.116290	 1.118580	 1.058384
C	 -4.756606	 0.377574	 0.687985
H	 -3.616034	 -1.293304	 -0.026750
H	 -3.377330	 -0.947555	 1.660182
H	 -4.922964	 0.830552	 -0.283703
H	 -5.633350	 -0.211092	 0.932551
H	 -4.682610	 1.178680	 1.415858
H	 4.145311	 -1.294584	 -0.871587
H	 4.970080	 0.004978	 -0.000091
H	 4.145223	 -1.291980	 0.874988

	symmetry c1
}
set optking {
	frozen_dihedral = ("
		9 5 3 6
	")
}

ee,wfn = optimize('scf', return_wfn=True)
oeprop( wfn, 'DIPOLE', 'QUADRUPOLE', 'MULLIKEN_CHARGES')
f=open( 'psi4out.xyz', 'w' )
f.write( "25  " )
f.write( str(ee) + "\n" )
f.write( MOL.save_string_xyz() )
f.close()
--------------------------------------------------------------------------

    Molecular point group: c1
  Charge       = 0
  Multiplicity = 1
  Basis Set: CC-PVTZ
  Basis Set:
  @DF-RHF Final Energy:  -387.27402701348740
    Total Energy =                       -387.2740270134872844
    Molecular point group: c1
  Basis Set: CC-PVTZ
  Basis Set:
  Basis Set: CC-PVTZ
  Basis Set:
  @DF-RHF Final Energy:  -387.27410256958223
    Total Energy =                       -387.2741025695828512
  Basis Set: CC-PVTZ
  Basis Set:
  Basis Set: CC-PVTZ
  Basis Set:
  @DF-RHF Final Energy:  -387.27405914302176
    Total Energy =                       -387.2740591430216455
  Basis Set: CC-PVTZ
  Basis Set:
  Basis Set: CC-PVTZ
  Basis Set:
  @DF-RHF Final Energy:  -387.27412109507742
    Total Energy =                       -387.2741210950773620
  Basis Set: CC-PVTZ
  Basis Set:
  Charge       = 0
  Multiplicity = 1
  Basis Set: CC-PVTZ
  Basis Set:

    Orbital Energies (a.u.)
    -----------------------

    Doubly Occupied:

       1A    -20.538860     2A    -11.320453     3A    -11.230259
       4A    -11.226540     5A    -11.215091     6A    -11.214476
       7A    -11.213468     8A    -11.211401     9A    -11.206404
      10A     -1.398970    11A     -1.095034    12A     -1.057589
      13A     -1.015544    14A     -0.970033    15A     -0.891561
      16A     -0.814645    17A     -0.791280    18A     -0.730572
      19A     -0.663993    20A     -0.653054    21A     -0.633642
      22A     -0.626744    23A     -0.596945    24A     -0.585163
      25A     -0.568087    26A     -0.560013    27A     -0.540873
      28A     -0.527102    29A     -0.513730    30A     -0.493243
      31A     -0.488682    32A     -0.474009    33A     -0.463903
      34A     -0.462852    35A     -0.452292    36A     -0.401158

  @DF-RHF Final Energy:  -387.27412205531448

   => Energetics <=

    Nuclear Repulsion Energy =            439.1692530374360786
    One-Electron Energy =               -1395.1914164877784970
    Two-Electron Energy =                 568.7480413950281672
    DFT Exchange-Correlation Energy =       0.0000000000000000
    Empirical Dispersion Energy =           0.0000000000000000
    PCM Polarization Energy =               0.0000000000000000
    EFP Energy =                            0.0000000000000000
    Total Energy =                       -387.2741220553142512
    Molecular point group: c1
  Basis Set: CC-PVTZ
  Basis Set:

  -Total Gradient:
     Atom            X                  Y                   Z
    ------   -----------------  -----------------  -----------------
       1       -0.000001680287    -0.000097924334    -0.000020708824
       2       -0.000039544453     0.000113959454     0.000163694226
       3       -0.001578107437    -0.002280430491     0.001126504791
       4       -0.000005123278    -0.000021511765    -0.000065648886
       5        0.001774840264     0.002414106179     0.000404811396
       6        0.001004561246     0.001524566556    -0.001131236450
       7       -0.000013842091     0.000043143996    -0.000017959137
       8        0.000025887426     0.000004629653     0.000191985762
       9       -0.001123295697    -0.001676348035    -0.000682666794
      10       -0.000002336423    -0.000045057902    -0.000010243993
      11        0.000006580687     0.000009147511     0.000000409993
      12        0.000034981347     0.000051540906     0.000025473479
      13       -0.000053817431    -0.000037079474     0.000021311217
      14       -0.000011212282    -0.000008783898    -0.000032146373
      15        0.000002534874     0.000006824676     0.000012961297
      16       -0.000003504764    -0.000025893359    -0.000011519525
      17        0.000003226995     0.000006869157    -0.000000372114
      18       -0.000004156259     0.000002783647     0.000009720130
      19        0.000000539937     0.000015245679    -0.000022656692
      20        0.000004924898    -0.000010188715     0.000017132287
      21        0.000000585681     0.000001165172     0.000003186032
      22        0.000001428369    -0.000010125767    -0.000014143201
      23        0.000014670366     0.000026399973     0.000046104782
      24       -0.000035235171    -0.000014225075     0.000006925514
      25       -0.000002906518     0.000007186258    -0.000020918916

  **** Optimization is complete! (in 5 steps) ****
    Final optimized geometry and variables:
    Molecular point group: c1

    Geometry (in Angstrom), charge = 0, multiplicity = 1:

    O            2.862937547181     1.326354637867    -0.270032442292
    C            2.827458806974     0.139673513175    -0.254509869381
    C            1.524574571874    -0.635087646854    -0.212318213887
    C            4.093940679483    -0.686253273641    -0.280571642902
    C            0.275032958585     0.235624948923    -0.183001817470
    H            1.519537437343    -1.285066111125    -1.084129172491
    H            1.562409775770    -1.294031009849     0.651457038159
    C           -0.984927561945    -0.563309632200     0.143489250872
    H            0.152164621332     0.711410553557    -1.149905236987
    H            0.406720911862     1.031154049216     0.539352004786
    C           -2.252502187986     0.285901640159     0.133687019432
    H           -1.094385213036    -1.377204560515    -0.570009056579
    H           -0.874139559157    -1.029373290477     1.120028145713
    C           -3.515694598419    -0.504371851837     0.463107752679
    H           -2.365457989567     0.750538194630    -0.842831789868
    H           -2.143375263141     1.100386138172     0.845584092315
    C           -4.778222628874     0.350939178585     0.450736013414
    H           -3.625760840445    -1.318397483237    -0.248373141660
    H           -3.404763422781    -0.967471459561     1.439871698829
    H           -4.936867397328     0.800216527592    -0.523954361341
    H           -5.655481919655    -0.239525530298     0.689101002215
    H           -4.713337100824     1.154651497842     1.176564531553
    H            4.098093028220    -1.337305396142    -1.147742322411
    H            4.954583445749    -0.036060383926    -0.310557460202
    H            4.145399479653    -1.319820879424     0.598015099812

  Mulliken Charges: (a.u.)
   Center  Symbol    Alpha    Beta     Spin     Total
       1     O     4.17051  4.17051  0.00000 -0.34103
       2     C     2.86220  2.86220  0.00000  0.27559
       3     C     3.11402  3.11402  0.00000 -0.22804
       4     C     3.15144  3.15144  0.00000 -0.30289
       5     C     3.08398  3.08398  0.00000 -0.16795
       6     H     0.44457  0.44457  0.00000  0.11085
       7     H     0.44586  0.44586  0.00000  0.10829
       8     C     3.09055  3.09055  0.00000 -0.18110
       9     H     0.44936  0.44936  0.00000  0.10129
      10     H     0.44225  0.44225  0.00000  0.11549
      11     C     3.08637  3.08637  0.00000 -0.17274
      12     H     0.45627  0.45627  0.00000  0.08746
      13     H     0.45573  0.45573  0.00000  0.08853
      14     C     3.08414  3.08414  0.00000 -0.16827
      15     H     0.45418  0.45418  0.00000  0.09165
      16     H     0.45340  0.45340  0.00000  0.09319
      17     C     3.15040  3.15040  0.00000 -0.30080
      18     H     0.45528  0.45528  0.00000  0.08943
      19     H     0.45510  0.45510  0.00000  0.08980
      20     H     0.45492  0.45492  0.00000  0.09016
      21     H     0.44868  0.44868  0.00000  0.10263
      22     H     0.45467  0.45467  0.00000  0.09065
      23     H     0.45028  0.45028  0.00000  0.09944
      24     H     0.43534  0.43534  0.00000  0.12933
      25     H     0.45048  0.45048  0.00000  0.09904

   Total alpha = 36.00000, Total beta = 36.00000, Total charge =  0.00000

*** Psi4 exiting successfully. Buy a developer a beer!
