  ==> Input File <==

--------------------------------------------------------------------------
set {
	reference rhf
	basis 6-31G*
}

set_num_threads( 4 )
memory 2 gb

molecule MOL {
0 1

H	 2.866480	 -0.465706	 0.876907
C	 2.405773	 -0.024801	 0.000000
N	 0.988830	 -0.304158	 0.000000
H	 2.866480	 -0.465706	 -0.876907
H	 2.629928	 1.045948	 0.000000
C	 0.400889	 -0.182629	 -1.321183
C	 0.264583	 0.508736	 0.959499
H	 0.500947	 0.834143	 -1.714455
H	 0.917111	 -0.851998	 -2.002142
C	 -1.071999	 -0.553159	 -1.263761
H	 0.680996	 0.345615	 1.948558
H	 0.354708	 1.575887	 0.732419
C	 -1.204690	 0.119871	 0.956440
H	 -1.547402	 -0.383072	 -2.220881
H	 -1.173587	 -1.606313	 -1.007795
O	 -1.750608	 0.236023	 -0.327474
H	 -1.775802	 0.775411	 1.600735
H	 -1.312521	 -0.901617	 1.316864

	symmetry c1
}
set optking {
	frozen_dihedral = ("
		6 3 2 5
	")
}

ee = optimize('scf')
oeprop('DIPOLE', 'QUADRUPOLE', 'MULLIKEN_CHARGES')
f=open( 'psi4out.xyz', 'w' )
f.write( "18  " )
f.write( str(ee) + "\n" )
f.write( MOL.save_string_xyz() )
f.close()
--------------------------------------------------------------------------

    Molecular point group: c1
  Charge       = 0
  Multiplicity = 1
  Basis Set: 6-31G*
  Basis Set:
  @DF-RHF Final Energy:  -325.02738614698103
    Total Energy =                       -325.0273861469813141
    Molecular point group: c1
  Basis Set: 6-31G*
  Basis Set:
  Basis Set: 6-31G*
  Basis Set:
  @DF-RHF Final Energy:  -325.02756262883548
    Total Energy =                       -325.0275626288354829
  Basis Set: 6-31G*
  Basis Set:
  Basis Set: 6-31G*
  Basis Set:
  @DF-RHF Final Energy:  -325.02758535841332
    Total Energy =                       -325.0275853584132051
  Basis Set: 6-31G*
  Basis Set:
  Charge       = 0
  Multiplicity = 1
  Basis Set: 6-31G*
  Basis Set:

    Orbital Energies (a.u.)
    -----------------------

    Doubly Occupied:

       1A    -20.553940     2A    -15.547913     3A    -11.266160
       4A    -11.266043     5A    -11.244185     6A    -11.244095
       7A    -11.241082     8A     -1.383226     9A     -1.231097
      10A     -1.038697    11A     -0.981149    12A     -0.883199
      13A     -0.869038    14A     -0.773798    15A     -0.683389
      16A     -0.645600    17A     -0.643439    18A     -0.634277
      19A     -0.627686    20A     -0.571210    21A     -0.557880
      22A     -0.540799    23A     -0.527861    24A     -0.501575
      25A     -0.485487    26A     -0.452385    27A     -0.407876
      28A     -0.349631

  @DF-RHF Final Energy:  -325.02758637323876

   => Energetics <=

    Nuclear Repulsion Energy =            341.3311155697634263
    One-Electron Energy =               -1118.4119684070578842
    Two-Electron Energy =                 452.0532664640558096
    DFT Exchange-Correlation Energy =       0.0000000000000000
    Empirical Dispersion Energy =           0.0000000000000000
    PCM Polarization Energy =               0.0000000000000000
    EFP Energy =                            0.0000000000000000
    Total Energy =                       -325.0275863732387052
    Molecular point group: c1
  Basis Set: 6-31G*
  Basis Set:

  -Total Gradient:
     Atom            X                  Y                   Z
    ------   -----------------  -----------------  -----------------
       1        0.000001935372    -0.000005363155     0.000019734596
       2        0.000331794025    -0.001049110901    -0.004802234629
       3       -0.000653470100     0.003629996726     0.001638339190
       4       -0.000043494300    -0.000014341776     0.000009813191
       5       -0.000061387355     0.000031872577     0.003573868482
       6        0.000455041213    -0.002628019428    -0.000459468467
       7       -0.000010133739     0.000060937935     0.000022518818
       8       -0.000012826476    -0.000036337063     0.000026772835
       9        0.000008309516    -0.000001293537     0.000013340838
      10       -0.000016680911     0.000041608781    -0.000042524530
      11       -0.000003222756    -0.000008203239    -0.000012753540
      12        0.000002326840    -0.000010986491     0.000003361952
      13        0.000009289700    -0.000006482418     0.000004544639
      14       -0.000034243125    -0.000009757908    -0.000020728407
      15        0.000022770945     0.000024025335     0.000002769373
      16        0.000021289295    -0.000022753802     0.000016066956
      17       -0.000012618943     0.000001894047     0.000006187774
      18       -0.000004679197     0.000002314315     0.000000390928

  **** Optimization is complete! (in 4 steps) ****
    Final optimized geometry and variables:
    Molecular point group: c1

    Geometry (in Angstrom), charge = 0, multiplicity = 1:

    H            2.839730299334    -0.427662221214     1.052495727397
    C            2.406326032428    -0.008984065920     0.149347698703
    N            0.983938368392    -0.262831727256     0.131131258051
    H            2.881469206260    -0.484697284466    -0.699582408377
    H            2.649706927432     1.056931738033     0.139502166769
    C            0.390814380604    -0.154447487542    -1.187922609882
    C            0.261788918646     0.529759244254     1.105330385774
    H            0.480104584954     0.858242271241    -1.594421175634
    H            0.905888157227    -0.828811108547    -1.864076692238
    C           -1.079462190560    -0.533824695605    -1.117234761576
    H            0.686580678282     0.355011247773     2.089150799311
    H            0.345620158860     1.600589390701     0.893440216149
    C           -1.205315099112     0.132931708243     1.106184001558
    H           -1.564836149083    -0.369533203447    -2.070448762472
    H           -1.171168161474    -1.586877205770    -0.857352282029
    O           -1.755255350899     0.251993235241    -0.175843985288
    H           -1.778272054960     0.781929121462     1.755538168197
    H           -1.306527542849    -0.890999111238     1.461275772442

  Mulliken Charges: (a.u.)
   Center  Symbol    Alpha    Beta     Spin     Total
       1     H     0.41561  0.41561  0.00000  0.16879
       2     C     3.13895  3.13895  0.00000 -0.27790
       3     N     3.79063  3.79063  0.00000 -0.58127
       4     H     0.41694  0.41694  0.00000  0.16613
       5     H     0.43162  0.43162  0.00000  0.13676
       6     C     3.06605  3.06605  0.00000 -0.13209
       7     C     3.06646  3.06646  0.00000 -0.13292
       8     H     0.42878  0.42878  0.00000  0.14244
       9     H     0.41707  0.41707  0.00000  0.16585
      10     C     2.99797  2.99797  0.00000  0.00405
      11     H     0.41697  0.41697  0.00000  0.16605
      12     H     0.42830  0.42830  0.00000  0.14341
      13     C     2.99762  2.99762  0.00000  0.00477
      14     H     0.41332  0.41332  0.00000  0.17336
      15     H     0.42418  0.42418  0.00000  0.15164
      16     O     4.31213  4.31213  0.00000 -0.62426
      17     H     0.41330  0.41330  0.00000  0.17340
      18     H     0.42411  0.42411  0.00000  0.15179

   Total alpha = 28.00000, Total beta = 28.00000, Total charge = -0.00000
