  ==> Input File <==

--------------------------------------------------------------------------
set {
	reference rhf
	basis 6-31G*
}

set_num_threads( 4 )
memory 2 gb

molecule MOL {
0 1

O	 -0.682937	 1.318834	 -0.186099
C	 -0.860635	 0.152188	 -0.042321
C	 -2.173363	 -0.477127	 0.338347
O	 0.083258	 -0.765189	 -0.202595
H	 -2.477673	 -1.180929	 -0.427595
H	 -2.923125	 0.290956	 0.455536
H	 -2.058825	 -1.029004	 1.264191
C	 1.135813	 -0.830065	 0.756944
C	 0.732284	 -1.645701	 1.971255
H	 1.424222	 0.172085	 1.035615
H	 1.954317	 -1.298994	 0.230014
H	 1.576739	 -1.740560	 2.646996
H	 -0.078597	 -1.166845	 2.505612
H	 0.419259	 -2.641110	 1.675296

	symmetry c1
}
set optking {
	frozen_dihedral = ("
		8 4 2 1
	")
}

ee = optimize('scf')
oeprop('DIPOLE', 'QUADRUPOLE', 'MULLIKEN_CHARGES')
f=open( 'psi4out.xyz', 'w' )
f.write( "14  " )
f.write( str(ee) + "\n" )
f.write( MOL.save_string_xyz() )
f.close()
--------------------------------------------------------------------------

    Molecular point group: c1
  Charge       = 0
  Multiplicity = 1
  Basis Set: 6-31G*
  Basis Set:
  @DF-RHF Final Energy:  -305.85657331923107
    Total Energy =                       -305.8565733192310745
    Molecular point group: c1
  Basis Set: 6-31G*
  Basis Set:
  Basis Set: 6-31G*
  Basis Set:
  @DF-RHF Final Energy:  -305.85738328010211
    Total Energy =                       -305.8573832801020558
  Basis Set: 6-31G*
  Basis Set:
  Basis Set: 6-31G*
  Basis Set:
  @DF-RHF Final Energy:  -305.85837526121838
    Total Energy =                       -305.8583752612183275
  Basis Set: 6-31G*
  Basis Set:
  Basis Set: 6-31G*
  Basis Set:
  @DF-RHF Final Energy:  -305.85850092921612
    Total Energy =                       -305.8585009292162908
  Basis Set: 6-31G*
  Basis Set:
  Basis Set: 6-31G*
  Basis Set:
  @DF-RHF Final Energy:  -305.85850492697887
    Total Energy =                       -305.8585049269785259
  Basis Set: 6-31G*
  Basis Set:
  Charge       = 0
  Multiplicity = 1
  Basis Set: 6-31G*
  Basis Set:

    Orbital Energies (a.u.)
    -----------------------

    Doubly Occupied:

       1A    -20.585620     2A    -20.554255     3A    -11.376943
       4A    -11.293635     5A    -11.235323     6A    -11.230393
       7A     -1.458504     8A     -1.364955     9A     -1.050210
      10A     -1.009269    11A     -0.885796    12A     -0.764028
      13A     -0.695837    14A     -0.681033    15A     -0.665624
      16A     -0.615741    17A     -0.592602    18A     -0.573050
      19A     -0.558841    20A     -0.551131    21A     -0.510976
      22A     -0.492344    23A     -0.450022    24A     -0.438403

  @DF-RHF Final Energy:  -305.85850559441923

   => Energetics <=

    Nuclear Repulsion Energy =            248.2551712150497565
    One-Electron Energy =                -908.9582821847031937
    Two-Electron Energy =                 354.8446053752341527
    DFT Exchange-Correlation Energy =       0.0000000000000000
    Empirical Dispersion Energy =           0.0000000000000000
    PCM Polarization Energy =               0.0000000000000000
    EFP Energy =                            0.0000000000000000
    Total Energy =                       -305.8585055944192277
    Molecular point group: c1
  Basis Set: 6-31G*
  Basis Set:

  -Total Gradient:
     Atom            X                  Y                   Z
    ------   -----------------  -----------------  -----------------
       1       -0.002399812603    -0.000236445808    -0.008940968159
       2        0.001740914943    -0.002337014733     0.015062758945
       3       -0.000017928405    -0.000005337008    -0.000096250726
       4        0.004444104661     0.007717948612    -0.009965750617
       5       -0.000000762190    -0.000002700348     0.000036665142
       6       -0.000001234069     0.000001172390     0.000012084666
       7        0.000010690638    -0.000010361305     0.000022948942
       8       -0.003877668435    -0.005093749428     0.003841192955
       9        0.000075787006    -0.000025200574     0.000004322889
      10        0.000035105925     0.000010216615    -0.000002813317
      11       -0.000015092871    -0.000006137073     0.000014069154
      12        0.000003871432    -0.000012149303     0.000026131775
      13        0.000006334660     0.000001036190    -0.000024674479
      14       -0.000004310692    -0.000001278228     0.000010282832

  **** Optimization is complete! (in 6 steps) ****
    Final optimized geometry and variables:
    Molecular point group: c1

    Geometry (in Angstrom), charge = 0, multiplicity = 1:

    O           -0.408401170753     1.691789656605    -0.506471868124
    C           -0.588735013530     0.525144150800    -0.426446219065
    C           -1.931648277323    -0.113647000515    -0.196126557643
    O            0.384564437693    -0.373832430040    -0.675626325222
    H           -2.176371640067    -0.738092636346    -1.048246309293
    H           -2.687256561472     0.647081448053    -0.066310061631
    H           -1.896724528067    -0.757202668218     0.675596455747
    C            1.462046154986    -0.477746169536     0.246529424632
    C            1.069556070303    -1.221966016378     1.511128683548
    H            1.833447444054     0.514364636713     0.471227276016
    H            2.233350533023    -1.014435283402    -0.285796568776
    H            1.943534495234    -1.361530853953     2.139534397166
    H            0.333734485311    -0.671454159478     2.088894198748
    H            0.661010093196    -2.197112349948     1.270590184739

  Mulliken Charges: (a.u.)
   Center  Symbol    Alpha    Beta     Spin     Total
       1     O     4.25807  4.25807  0.00000 -0.51613
       2     C     2.62429  2.62429  0.00000  0.75142
       3     C     3.28472  3.28472  0.00000 -0.56943
       4     O     4.31703  4.31703  0.00000 -0.63406
       5     H     0.39761  0.39761  0.00000  0.20478
       6     H     0.39783  0.39783  0.00000  0.20433
       7     H     0.40551  0.40551  0.00000  0.18898
       8     C     3.00548  3.00548  0.00000 -0.01097
       9     C     3.25666  3.25666  0.00000 -0.51331
      10     H     0.40649  0.40649  0.00000  0.18701
      11     H     0.40638  0.40638  0.00000  0.18723
      12     H     0.41327  0.41327  0.00000  0.17345
      13     H     0.41643  0.41643  0.00000  0.16715
      14     H     0.41023  0.41023  0.00000  0.17954

   Total alpha = 24.00000, Total beta = 24.00000, Total charge =  0.00000
