  ==> Input File <==

--------------------------------------------------------------------------
set {
	reference rhf
	basis cc-pvtz
}

set_num_threads( 4 )
memory 2 gb

molecule MOL {
0 1

H	 -0.000105	 1.988529	 0.748933
O	 -0.000098	 1.879786	 -0.188206
C	 -0.000014	 0.545691	 -0.532416
C	 -1.286000	 -0.125171	 -0.046657
C	 1.286016	 -0.125031	 -0.046584
H	 0.000021	 0.481103	 -1.610604
F	 -1.334216	 -0.073016	 1.261706
F	 -2.359789	 0.461345	 -0.512155
F	 -1.326653	 -1.392752	 -0.397315
F	 2.317750	 0.468717	 -0.594166
F	 1.336617	 -1.393765	 -0.365123
F	 1.414467	 -0.024806	 1.259108

	symmetry c1
}
set optking {
	frozen_dihedral = ("
		7 4 3 6
	")
}

ee = optimize('scf')
oeprop('DIPOLE', 'QUADRUPOLE', 'MULLIKEN_CHARGES')
f=open( 'psi4out.xyz', 'w' )
f.write( "12  " )
f.write( str(ee) + "\n" )
f.write( MOL.save_string_xyz() )
f.close()
--------------------------------------------------------------------------

    Molecular point group: c1
  Charge       = 0
  Multiplicity = 1
  Basis Set: CC-PVTZ
  Basis Set:
  @DF-RHF Final Energy:  -786.58868750186980
    Total Energy =                       -786.5886875018697992
    Molecular point group: c1
  Basis Set: CC-PVTZ
  Basis Set:
  Basis Set: CC-PVTZ
  Basis Set:
  @DF-RHF Final Energy:  -786.58924986235729
    Total Energy =                       -786.5892498623570646
  Basis Set: CC-PVTZ
  Basis Set:
  Basis Set: CC-PVTZ
  Basis Set:
  @DF-RHF Final Energy:  -786.58944944141456
    Total Energy =                       -786.5894494414148994
  Basis Set: CC-PVTZ
  Basis Set:
  Basis Set: CC-PVTZ
  Basis Set:
  @DF-RHF Final Energy:  -786.58947391851791
    Total Energy =                       -786.5894739185179105
  Basis Set: CC-PVTZ
  Basis Set:
  Basis Set: CC-PVTZ
  Basis Set:
  @DF-RHF Final Energy:  -786.58948045482623
    Total Energy =                       -786.5894804548261163
  Basis Set: CC-PVTZ
  Basis Set:
  Charge       = 0
  Multiplicity = 1
  Basis Set: CC-PVTZ
  Basis Set:

    Orbital Energies (a.u.)
    -----------------------

    Doubly Occupied:

       1A    -26.358505     2A    -26.358146     3A    -26.357571
       4A    -26.356779     5A    -26.353969     6A    -26.353636
       7A    -20.610136     8A    -11.519965     9A    -11.519423
      10A    -11.351646    11A     -1.771960    12A     -1.766413
      13A     -1.667614    14A     -1.663434    15A     -1.662863
      16A     -1.660989    17A     -1.440063    18A     -1.103235
      19A     -1.001803    20A     -0.945345    21A     -0.870798
      22A     -0.869045    23A     -0.859359    24A     -0.852166
      25A     -0.839824    26A     -0.822075    27A     -0.749598
      28A     -0.734036    29A     -0.731534    30A     -0.725450
      31A     -0.696254    32A     -0.691800    33A     -0.690303
      34A     -0.681474    35A     -0.677559    36A     -0.669233
      37A     -0.663430    38A     -0.658168    39A     -0.625434
      40A     -0.553954    41A     -0.510348

  @DF-RHF Final Energy:  -786.58948141412930

   => Energetics <=

    Nuclear Repulsion Energy =            670.9084341027169103
    One-Electron Energy =               -2429.0051605032622319
    Two-Electron Energy =                 971.5072449864162536
    DFT Exchange-Correlation Energy =       0.0000000000000000
    Empirical Dispersion Energy =           0.0000000000000000
    PCM Polarization Energy =               0.0000000000000000
    EFP Energy =                            0.0000000000000000
    Total Energy =                       -786.5894814141290681
    Molecular point group: c1
  Basis Set: CC-PVTZ
  Basis Set:

  -Total Gradient:
     Atom            X                  Y                   Z
    ------   -----------------  -----------------  -----------------
       1       -0.000000501832    -0.000008015201    -0.000007000459
       2        0.000005032314    -0.000029409078    -0.000019248352
       3       -0.000194296999     0.000497881073     0.000015205266
       4       -0.000167709972     0.000116524452    -0.000091423853
       5       -0.000013437494     0.000105061420    -0.000073236360
       6        0.000267582327    -0.000456458524     0.000004761019
       7        0.000252553369    -0.000420360251     0.000069626520
       8       -0.000136455930     0.000098358082    -0.000067981115
       9        0.000005905897     0.000201824402     0.000101546318
      10       -0.000046958678    -0.000047140695     0.000028600626
      11        0.000040892294    -0.000034395352     0.000010847820
      12       -0.000012605305    -0.000023870330     0.000028302575

  **** Optimization is complete! (in 6 steps) ****
    Final optimized geometry and variables:
    Molecular point group: c1

    Geometry (in Angstrom), charge = 0, multiplicity = 1:

    H            0.004148881416     1.990157438190     0.752860820664
    O           -0.013768521217     1.882840662268    -0.184277309419
    C           -0.007607605612     0.549601744095    -0.530825321886
    C           -1.285077830300    -0.135862978459    -0.043149127403
    C            1.285008567899    -0.112832734514    -0.050318482342
    H           -0.009619850633     0.484239227187    -1.609045378477
    F           -1.375877416331    -0.108475692885     1.269293905008
    F           -2.327740287594     0.491610081848    -0.528117196652
    F           -1.351886851342    -1.384851444949    -0.430008537952
    F            2.308522674152     0.460938846818    -0.633487839526
    F            1.325415848454    -1.390633876017    -0.332072917682
    F            1.438297044917     0.024909392287     1.249279383670

  Mulliken Charges: (a.u.)
   Center  Symbol    Alpha    Beta     Spin     Total
       1     H     0.38137  0.38137  0.00000  0.23727
       2     O     4.18969  4.18969  0.00000 -0.37939
       3     C     3.00474  3.00474  0.00000 -0.00949
       4     C     2.68577  2.68577  0.00000  0.62847
       5     C     2.68524  2.68524  0.00000  0.62953
       6     H     0.42434  0.42434  0.00000  0.15132
       7     F     4.60985  4.60985  0.00000 -0.21970
       8     F     4.60165  4.60165  0.00000 -0.20329
       9     F     4.60283  4.60283  0.00000 -0.20565
      10     F     4.60211  4.60211  0.00000 -0.20421
      11     F     4.60220  4.60220  0.00000 -0.20439
      12     F     4.61023  4.61023  0.00000 -0.22047

   Total alpha = 41.00000, Total beta = 41.00000, Total charge = -0.00000
