  ==> Input File <==

--------------------------------------------------------------------------
set {
	reference rhf
	basis cc-pvtz
}

set_num_threads( 4 )
memory 2 gb

molecule MOL {
0 1

H	 1.546547	 -1.881617	 2.202577
O	 1.231043	 -1.739955	 1.322733
C	 0.241643	 -0.852455	 1.368030
C	 -0.318151	 -0.570512	 0.000144
O	 -0.122906	 -0.367585	 2.382906
C	 -1.454884	 0.441630	 -0.000560
H	 0.506994	 -0.236716	 -0.620828
H	 -0.636167	 -1.520425	 -0.417506
C	 -2.822577	 -0.232186	 0.000063
H	 -1.359760	 1.084704	 -0.867077
H	 -1.359641	 1.085996	 0.864983
H	 -2.954352	 -0.858985	 -0.875745
H	 -3.615886	 0.505352	 0.000019
H	 -2.953878	 -0.858359	 0.876394

	symmetry c1
}
set optking {
	frozen_dihedral = ("
		7 4 6 10
	")
}

ee = optimize('scf')
oeprop('DIPOLE', 'QUADRUPOLE', 'MULLIKEN_CHARGES')
f=open( 'psi4out.xyz', 'w' )
f.write( "14  " )
f.write( str(ee) + "\n" )
f.write( MOL.save_string_xyz() )
f.close()
--------------------------------------------------------------------------

    Molecular point group: c1
  Charge       = 0
  Multiplicity = 1
  Basis Set: CC-PVTZ
  Basis Set:
  @DF-RHF Final Energy:  -305.99784532909348
    Total Energy =                       -305.9978453290936500
    Molecular point group: c1
  Basis Set: CC-PVTZ
  Basis Set:
  Basis Set: CC-PVTZ
  Basis Set:
  @DF-RHF Final Energy:  -305.99814246546543
    Total Energy =                       -305.9981424654654916
  Basis Set: CC-PVTZ
  Basis Set:
  Basis Set: CC-PVTZ
  Basis Set:
  @DF-RHF Final Energy:  -305.99816009424262
    Total Energy =                       -305.9981600942422801
  Basis Set: CC-PVTZ
  Basis Set:
  Basis Set: CC-PVTZ
  Basis Set:
  @DF-RHF Final Energy:  -305.99819295057853
    Total Energy =                       -305.9981929505783569
  Basis Set: CC-PVTZ
  Basis Set:
  Basis Set: CC-PVTZ
  Basis Set:
  @DF-RHF Final Energy:  -305.99819781878841
    Total Energy =                       -305.9981978187884692
  Basis Set: CC-PVTZ
  Basis Set:
  Basis Set: CC-PVTZ
  Basis Set:
  @DF-RHF Final Energy:  -305.99819945088984
    Total Energy =                       -305.9981994508897287
  Basis Set: CC-PVTZ
  Basis Set:
  Charge       = 0
  Multiplicity = 1
  Basis Set: CC-PVTZ
  Basis Set:

    Orbital Energies (a.u.)
    -----------------------

    Doubly Occupied:

       1A    -20.605050     2A    -20.541880     3A    -11.375033
       4A    -11.239611     5A    -11.222889     6A    -11.211665
       7A     -1.478911     8A     -1.370338     9A     -1.081771
      10A     -0.979023    11A     -0.861566    12A     -0.791048
      13A     -0.706197    14A     -0.697043    15A     -0.660385
      16A     -0.612915    17A     -0.599657    18A     -0.567092
      19A     -0.559748    20A     -0.493968    21A     -0.492049
      22A     -0.487062    23A     -0.479572    24A     -0.449257

  @DF-RHF Final Energy:  -305.99820029603336

   => Energetics <=

    Nuclear Repulsion Energy =            243.1133391784270259
    One-Electron Energy =                -899.0956248236773263
    Two-Electron Energy =                 349.9840853492167412
    DFT Exchange-Correlation Energy =       0.0000000000000000
    Empirical Dispersion Energy =           0.0000000000000000
    PCM Polarization Energy =               0.0000000000000000
    EFP Energy =                            0.0000000000000000
    Total Energy =                       -305.9982002960335308
    Molecular point group: c1
  Basis Set: CC-PVTZ
  Basis Set:

  -Total Gradient:
     Atom            X                  Y                   Z
    ------   -----------------  -----------------  -----------------
       1       -0.000013026688     0.000008189712    -0.000005782878
       2        0.000001535720    -0.000016626790    -0.000003242928
       3        0.000021704531    -0.000003472538     0.000012119463
       4        0.002262604389     0.002706309718     0.004144776670
       5        0.000002305415    -0.000000148326     0.000006745292
       6       -0.002820389062    -0.003390467509    -0.003142968068
       7       -0.001413406525    -0.001759377527    -0.002936275692
       8        0.000037252923     0.000055919625     0.000014378542
       9       -0.000012360423     0.000043739282     0.000005120590
      10        0.001972357166     0.002366539540     0.001920812837
      11       -0.000005773338    -0.000002913776    -0.000026290132
      12        0.000005862067     0.000008391840    -0.000003085213
      13       -0.000036942223    -0.000011176256     0.000007478811
      14       -0.000001723955    -0.000004906995     0.000006212712

  **** Optimization is complete! (in 7 steps) ****
    Final optimized geometry and variables:
    Molecular point group: c1

    Geometry (in Angstrom), charge = 0, multiplicity = 1:

    H            2.069176151605    -1.300461470119     1.329813040262
    O            1.773079197282    -1.134222446611     0.447542194716
    C            0.755947378764    -0.279464543986     0.499426028673
    C            0.221219874556     0.028302081882    -0.873494507741
    O            0.351247494078     0.154188305243     1.522375715678
    C           -0.940196242617     1.024365139196    -0.897300547227
    H            1.050438935222     0.358353490917    -1.488040186053
    H           -0.073220398578    -0.923724347304    -1.305029885648
    C           -2.311758103477     0.360723777359    -0.863582344143
    H           -0.843355141084     1.654332649151    -1.774001019301
    H           -0.844675612928     1.686276252778    -0.046511495752
    H           -2.461930294709    -0.277561175131    -1.728202166099
    H           -3.101104273372     1.102872963140    -0.858160896271
    H           -2.424435338389    -0.247703379706     0.026606052536

  Mulliken Charges: (a.u.)
   Center  Symbol    Alpha    Beta     Spin     Total
       1     H     0.38238  0.38238  0.00000  0.23523
       2     O     4.15964  4.15964  0.00000 -0.31927
       3     C     2.80217  2.80217  0.00000  0.39567
       4     C     3.11385  3.11385  0.00000 -0.22771
       5     O     4.19216  4.19216  0.00000 -0.38431
       6     C     3.08723  3.08723  0.00000 -0.17447
       7     H     0.42999  0.42999  0.00000  0.14001
       8     H     0.43968  0.43968  0.00000  0.12064
       9     C     3.14817  3.14817  0.00000 -0.29635
      10     H     0.44771  0.44771  0.00000  0.10458
      11     H     0.44255  0.44255  0.00000  0.11489
      12     H     0.45738  0.45738  0.00000  0.08525
      13     H     0.44795  0.44795  0.00000  0.10409
      14     H     0.44913  0.44913  0.00000  0.10174

   Total alpha = 24.00000, Total beta = 24.00000, Total charge =  0.00000
