  ==> Input File <==

--------------------------------------------------------------------------
set {
	reference rhf
	basis 6-31G*
}

set_num_threads( 1 )
memory 2 gb

molecule MOL {
0 1

H	 2.176868	 -0.646004	 -0.217325
O	 1.337496	 -0.537251	 0.205931
C	 0.702312	 0.627605	 -0.264544
C	 -0.714990	 0.596302	 0.266387
H	 0.682322	 0.642550	 -1.350929
H	 1.215941	 1.520383	 0.085680
O	 -1.405996	 -0.526611	 -0.195820
H	 -1.257453	 1.468809	 -0.075599
H	 -0.688972	 0.618407	 1.353696
H	 -0.874803	 -0.936738	 -0.866374

	symmetry c1
}
set optking {
	frozen_dihedral = ("
		5 3 4 7
	")
}

ee = energy('scf')
oeprop('DIPOLE', 'QUADRUPOLE', 'MULLIKEN_CHARGES')
f=open( 'psi4out.xyz', 'w' )
f.write( "10  " )
f.write( str(ee) + "\n" )
f.write( MOL.save_string_xyz() )
f.close()
--------------------------------------------------------------------------

    Molecular point group: c1

    Geometry (in Angstrom), charge = 0, multiplicity = 1:

       Center              X                  Y                   Z               Mass
    ------------   -----------------  -----------------  -----------------  -----------------
           H          2.176611262305    -0.651787370633    -0.202891790057     1.007825032070
           O          1.337239262305    -0.543034370633     0.220364209943    15.994914619560
           C          0.702055262305     0.621821629367    -0.250110790057    12.000000000000
           C         -0.715246737695     0.590518629367     0.280820209943    12.000000000000
           H          0.682065262305     0.636766629367    -1.336495790057     1.007825032070
           H          1.215684262305     1.514599629367     0.100113209943     1.007825032070
           O         -1.406252737695    -0.532394370633    -0.181386790057    15.994914619560
           H         -1.257709737695     1.463025629367    -0.061165790057     1.007825032070
           H         -0.689228737695     0.612623629367     1.368129209943     1.007825032070
           H         -0.875059737695    -0.942521370633    -0.851940790057     1.007825032070

  Charge       = 0
  Multiplicity = 1
  Basis Set: 6-31G*
  Basis Set:

    Orbital Energies (a.u.)
    -----------------------

    Doubly Occupied:

       1A    -20.568728     2A    -20.547648     3A    -11.283923
       4A    -11.268205     5A     -1.382836     6A     -1.351093
       7A     -1.003940     8A     -0.849888     9A     -0.724124
      10A     -0.672487    11A     -0.660617    12A     -0.601834
      13A     -0.573057    14A     -0.547706    15A     -0.475112
      16A     -0.456216    17A     -0.434806

  @DF-RHF Final Energy:  -228.91756969340639

   => Energetics <=

    Nuclear Repulsion Energy =            134.6897555653467293
    One-Electron Energy =                -580.4102829024918719
    Two-Electron Energy =                 216.8029576437386083
    DFT Exchange-Correlation Energy =       0.0000000000000000
    Empirical Dispersion Energy =           0.0000000000000000
    PCM Polarization Energy =               0.0000000000000000
    EFP Energy =                            0.0000000000000000
    Total Energy =                       -228.9175696934065343

  Mulliken Charges: (a.u.)
   Center  Symbol    Alpha    Beta     Spin     Total
       1     H     0.27827  0.27827  0.00000  0.44346
       2     O     4.36688  4.36688  0.00000 -0.73376
       3     C     3.03578  3.03578  0.00000 -0.07156
       4     C     2.97846  2.97846  0.00000  0.04307
       5     H     0.42899  0.42899  0.00000  0.14203
       6     H     0.42181  0.42181  0.00000  0.15639
       7     O     4.37122  4.37122  0.00000 -0.74244
       8     H     0.42675  0.42675  0.00000  0.14649
       9     H     0.41530  0.41530  0.00000  0.16940
      10     H     0.27654  0.27654  0.00000  0.44693

   Total alpha = 17.00000, Total beta = 17.00000, Total charge = -0.00000
