  ==> Input File <==

--------------------------------------------------------------------------
set {
	reference rhf
	basis 6-31G*
}

set_num_threads( 1 )
memory 2 gb

molecule MOL {
0 1

H	 3.729471	 -0.928294	 -0.070608
O	 2.826016	 -1.159218	 0.122261
C	 2.077727	 -0.067559	 -0.035091
C	 0.624473	 -0.343591	 0.253101
O	 2.542965	 0.974826	 -0.363729
C	 -0.265902	 0.883932	 0.072916
H	 0.324016	 -1.163849	 -0.390541
H	 0.565024	 -0.726111	 1.268924
C	 -1.728698	 0.646073	 0.462102
H	 -0.209144	 1.219470	 -0.958188
H	 0.135059	 1.692851	 0.673903
C	 -2.457785	 -0.406703	 -0.377571
H	 -2.259802	 1.590687	 0.370480
H	 -1.784592	 0.369889	 1.514126
C	 -3.937557	 -0.526202	 -0.013604
H	 -2.364737	 -0.151542	 -1.431269
H	 -1.985506	 -1.377919	 -0.254797
H	 -4.432040	 -1.278616	 -0.619964
H	 -4.456083	 0.415881	 -0.166701
H	 -4.063347	 -0.806268	 1.028499

	symmetry c1
}
set optking {
	frozen_dihedral = ("
		16 12 9 6,
		7 4 6 10,
		5 3 4 7,
		1 2 3 5
	")
}

ee = energy('scf')
oeprop('DIPOLE', 'QUADRUPOLE', 'MULLIKEN_CHARGES')
f=open( 'psi4out.xyz', 'w' )
f.write( "20  " )
f.write( str(ee) + "\n" )
f.write( MOL.save_string_xyz() )
f.close()
--------------------------------------------------------------------------

    Molecular point group: c1

    Geometry (in Angstrom), charge = 0, multiplicity = 1:

       Center              X                  Y                   Z               Mass
    ------------   -----------------  -----------------  -----------------  -----------------
           H          3.723524137346    -0.912178858467    -0.083110891043     1.007825032070
           O          2.820069137346    -1.143102858467     0.109758108957    15.994914619560
           C          2.071780137346    -0.051443858467    -0.047593891043    12.000000000000
           C          0.618526137346    -0.327475858467     0.240598108957    12.000000000000
           O          2.537018137346     0.990941141533    -0.376231891043    15.994914619560
           C         -0.271848862654     0.900047141533     0.060413108957    12.000000000000
           H          0.318069137346    -1.147733858467    -0.403043891043     1.007825032070
           H          0.559077137346    -0.709995858467     1.256421108957     1.007825032070
           C         -1.734644862654     0.662188141533     0.449599108957    12.000000000000
           H         -0.215090862654     1.235585141533    -0.970690891043     1.007825032070
           H          0.129112137346     1.708966141533     0.661400108957     1.007825032070
           C         -2.463731862654    -0.390587858467    -0.390073891043    12.000000000000
           H         -2.265748862654     1.606802141533     0.357977108957     1.007825032070
           H         -1.790538862654     0.386004141533     1.501623108957     1.007825032070
           C         -3.943503862654    -0.510086858467    -0.026106891043    12.000000000000
           H         -2.370683862654    -0.135426858467    -1.443771891043     1.007825032070
           H         -1.991452862654    -1.361803858467    -0.267299891043     1.007825032070
           H         -4.437986862654    -1.262500858467    -0.632466891043     1.007825032070
           H         -4.462029862654     0.431996141533    -0.179203891043     1.007825032070
           H         -4.069293862654    -0.790152858467     1.015996108957     1.007825032070

  Charge       = 0
  Multiplicity = 1
  Basis Set: 6-31G*
  Basis Set:

    Orbital Energies (a.u.)
    -----------------------

    Doubly Occupied:

       1A    -20.612508     2A    -20.551577     3A    -11.381157
       4A    -11.240158     5A    -11.222963     6A    -11.220759
       7A    -11.220166     8A    -11.212476     9A     -1.474566
      10A     -1.365617    11A     -1.096378    12A     -1.040795
      13A     -0.961339    14A     -0.868919    15A     -0.816925
      16A     -0.775978    17A     -0.699545    18A     -0.690069
      19A     -0.664180    20A     -0.636139    21A     -0.602295
      22A     -0.593989    23A     -0.576022    24A     -0.555490
      25A     -0.539889    26A     -0.513927    27A     -0.495453
      28A     -0.479209    29A     -0.470278    30A     -0.467330
      31A     -0.457424    32A     -0.443752

  @DF-RHF Final Energy:  -383.94870655745945

   => Energetics <=

    Nuclear Repulsion Energy =            376.1949345605052031
    One-Electron Energy =               -1268.3927246229823140
    Two-Electron Energy =                 508.2490835050185183
    DFT Exchange-Correlation Energy =       0.0000000000000000
    Empirical Dispersion Energy =           0.0000000000000000
    PCM Polarization Energy =               0.0000000000000000
    EFP Energy =                            0.0000000000000000
    Total Energy =                       -383.9487065574585927

  Mulliken Charges: (a.u.)
   Center  Symbol    Alpha    Beta     Spin     Total
       1     H     0.26785  0.26785  0.00000  0.46429
       2     O     4.35158  4.35158  0.00000 -0.70316
       3     C     2.62211  2.62211  0.00000  0.75578
       4     C     3.21332  3.21332  0.00000 -0.42665
       5     O     4.27928  4.27928  0.00000 -0.55855
       6     C     3.15419  3.15419  0.00000 -0.30838
       7     H     0.39665  0.39665  0.00000  0.20671
       8     H     0.39913  0.39913  0.00000  0.20174
       9     C     3.15525  3.15525  0.00000 -0.31051
      10     H     0.41229  0.41229  0.00000  0.17541
      11     H     0.40799  0.40799  0.00000  0.18401
      12     C     3.15542  3.15542  0.00000 -0.31084
      13     H     0.41789  0.41789  0.00000  0.16422
      14     H     0.42353  0.42353  0.00000  0.15293
      15     C     3.23915  3.23915  0.00000 -0.47830
      16     H     0.42160  0.42160  0.00000  0.15680
      17     H     0.42250  0.42250  0.00000  0.15500
      18     H     0.41834  0.41834  0.00000  0.16331
      19     H     0.42064  0.42064  0.00000  0.15871
      20     H     0.42127  0.42127  0.00000  0.15746

   Total alpha = 32.00000, Total beta = 32.00000, Total charge =  0.00000
