  ==> Input File <==

--------------------------------------------------------------------------
set {
	reference rhf
	basis 6-31G*
}

set_num_threads( 4 )
memory 2 gb

molecule MOL {
0 1

O	 -1.316236	 1.512359	 -1.926025
C	 -1.660668	 0.799589	 -1.032852
C	 -0.889235	 -0.467034	 -0.705952
C	 -2.853969	 1.133479	 -0.165716
C	 0.379448	 -0.143569	 0.099626
H	 -0.612455	 -0.934967	 -1.644427
H	 -1.513423	 -1.162600	 -0.152233
C	 1.631333	 -0.777471	 -0.511575
H	 0.482768	 0.934507	 0.149241
H	 0.263088	 -0.495696	 1.123449
C	 2.915987	 -0.544314	 0.291766
H	 1.766672	 -0.399098	 -1.523130
H	 1.471257	 -1.849544	 -0.605828
C	 3.373361	 0.914346	 0.347591
H	 3.708709	 -1.142521	 -0.150311
H	 2.780642	 -0.921148	 1.303579
H	 3.506512	 1.320010	 -0.651625
H	 4.322697	 0.999599	 0.867103
H	 2.660624	 1.545032	 0.868198
H	 -3.637456	 0.396854	 -0.323182
H	 -3.229662	 2.116010	 -0.415262
H	 -2.586908	 1.096691	 0.886486

	symmetry c1
}
set optking {
	frozen_dihedral = ("
		6 3 5 8
	")
}

ee = optimize('scf')
oeprop('DIPOLE', 'QUADRUPOLE', 'MULLIKEN_CHARGES')
f=open( 'psi4out.xyz', 'w' )
f.write( "22  " )
f.write( str(ee) + "\n" )
f.write( MOL.save_string_xyz() )
f.close()
--------------------------------------------------------------------------

    Molecular point group: c1
  Charge       = 0
  Multiplicity = 1
  Basis Set: 6-31G*
  Basis Set:
  @DF-RHF Final Energy:  -348.09270064148734
    Total Energy =                       -348.0927006414872267
    Molecular point group: c1
  Basis Set: 6-31G*
  Basis Set:
  Basis Set: 6-31G*
  Basis Set:
  @DF-RHF Final Energy:  -348.09306799105752
    Total Energy =                       -348.0930679910574099
  Basis Set: 6-31G*
  Basis Set:
  Basis Set: 6-31G*
  Basis Set:
  @DF-RHF Final Energy:  -348.09267280449097
    Total Energy =                       -348.0926728044910305
  Basis Set: 6-31G*
  Basis Set:
  Basis Set: 6-31G*
  Basis Set:
  @DF-RHF Final Energy:  -348.09323345934212
    Total Energy =                       -348.0932334593422297
  Basis Set: 6-31G*
  Basis Set:
  @DF-RHF Final Energy:  -348.09336025770170
    Total Energy =                       -348.0933602577018178
  @DF-RHF Final Energy:  -348.09320442854670
    Total Energy =                       -348.0932044285466418
  @DF-RHF Final Energy:  -348.09347969653282
    Total Energy =                       -348.0934796965323130
  @DF-RHF Final Energy:  -348.09351125816528
    Total Energy =                       -348.0935112581653357
  Basis Set: 6-31G*
  Basis Set:
  @DF-RHF Final Energy:  -348.09352085627319
    Total Energy =                       -348.0935208562731873
  Basis Set: 6-31G*
  Basis Set:
  Basis Set: 6-31G*
  Basis Set:
  @DF-RHF Final Energy:  -348.09352235556719
    Total Energy =                       -348.0935223555670746
  Basis Set: 6-31G*
  Basis Set:
  Basis Set: 6-31G*
  Basis Set:
  @DF-RHF Final Energy:  -348.09352462356441
    Total Energy =                       -348.0935246235643490
  Basis Set: 6-31G*
  Basis Set:
  Charge       = 0
  Multiplicity = 1
  Basis Set: 6-31G*
  Basis Set:

    Orbital Energies (a.u.)
    -----------------------

    Doubly Occupied:

       1A    -20.547340     2A    -11.324027     3A    -11.232632
       4A    -11.228823     5A    -11.227487     6A    -11.222380
       7A    -11.220768     8A    -11.212263     9A     -1.392707
      10A     -1.095529    11A     -1.044543    12A     -0.996901
      13A     -0.938181    14A     -0.861095    15A     -0.787650
      16A     -0.734680    17A     -0.660043    18A     -0.638170
      19A     -0.630548    20A     -0.614218    21A     -0.603154
      22A     -0.588076    23A     -0.553413    24A     -0.542873
      25A     -0.535325    26A     -0.522843    27A     -0.499635
      28A     -0.487773    29A     -0.469410    30A     -0.464849
      31A     -0.458710    32A     -0.396492

  @DF-RHF Final Energy:  -348.09352494528645

   => Energetics <=

    Nuclear Repulsion Energy =            374.6216419200760015
    One-Electron Energy =               -1213.9652614190190434
    Two-Electron Energy =                 491.2500945536568224
    DFT Exchange-Correlation Energy =       0.0000000000000000
    Empirical Dispersion Energy =           0.0000000000000000
    PCM Polarization Energy =               0.0000000000000000
    EFP Energy =                            0.0000000000000000
    Total Energy =                       -348.0935249452862763
    Molecular point group: c1
  Basis Set: 6-31G*
  Basis Set:

  -Total Gradient:
     Atom            X                  Y                   Z
    ------   -----------------  -----------------  -----------------
       1       -0.000001388429    -0.000016618181    -0.000002758903
       2       -0.000005562133     0.000049786671    -0.000008687442
       3        0.000247011084     0.003310364880    -0.001555010763
       4       -0.000012523336    -0.000002614562    -0.000003693406
       5       -0.000375680762    -0.002522181385     0.001509253241
       6       -0.000080916154    -0.002206281440     0.001013668222
       7       -0.000005711240    -0.000017969152    -0.000002636480
       8        0.000246400783     0.001427397018    -0.000919222551
       9       -0.000014435459    -0.000006191356    -0.000018511642
      10        0.000002007787    -0.000008021941     0.000003001425
      11       -0.000002193858    -0.000023014040    -0.000004308976
      12        0.000005416733     0.000007977756     0.000013064020
      13        0.000012644640    -0.000005738796    -0.000006983477
      14       -0.000007597894     0.000020941027    -0.000002804458
      15       -0.000011237721    -0.000011050485    -0.000008667712
      16       -0.000000313482     0.000000561485    -0.000008414312
      17        0.000014926458     0.000001787402    -0.000003098512
      18       -0.000009441665     0.000002711800     0.000005532984
      19       -0.000001072733     0.000002889187    -0.000002610625
      20        0.000007043123     0.000005045734    -0.000000881600
      21       -0.000004915203    -0.000007210651     0.000005728706
      22       -0.000002460540    -0.000002570972    -0.000001957735

  **** Optimization is complete! (in 12 steps) ****
    Final optimized geometry and variables:
    Molecular point group: c1

    Geometry (in Angstrom), charge = 0, multiplicity = 1:

    O           -1.859202797618     0.929326710171    -1.735219305230
    C           -1.892619812519     0.410332066943    -0.661348113270
    C           -1.046991992142    -0.806226313048    -0.341134894742
    C           -2.777237988621     0.942724834641     0.446557865429
    C            0.188956554346    -0.452967591857     0.528457532221
    H           -0.736746571009    -1.251919169990    -1.277801863456
    H           -1.659316683281    -1.541224863969     0.174486784256
    C            1.484911851605    -1.038825905182    -0.039995315079
    H            0.291376547714     0.626151168294     0.595654485952
    H            0.041695793152    -0.807209140034     1.544596667189
    C            2.725578445956    -0.798114457206     0.826620779872
    H            1.650189521932    -0.627925267101    -1.033565877499
    H            1.355567420097    -2.111289807688    -0.170299220885
    C            3.140103799246     0.669310384818     0.951897804802
    H            3.553103231148    -1.358850266939     0.399574882359
    H            2.558554999770    -1.213672104186     1.818419742447
    H            3.298802036990     1.114933166201    -0.026184239935
    H            4.066602054714     0.760173767675     1.510174089964
    H            2.392031006273     1.262102722508     1.467990835824
    H           -3.589455741190     0.242991918444     0.625721238700
    H           -3.190482004602     1.899790614302     0.159911597454
    H           -2.227610879575     1.042017463970     1.377263866499

  Mulliken Charges: (a.u.)
   Center  Symbol    Alpha    Beta     Spin     Total
       1     O     4.26061  4.26061  0.00000 -0.52121
       2     C     2.73980  2.73980  0.00000  0.52041
       3     C     3.20354  3.20354  0.00000 -0.40707
       4     C     3.28965  3.28965  0.00000 -0.57929
       5     C     3.16440  3.16440  0.00000 -0.32880
       6     H     0.39797  0.39797  0.00000  0.20406
       7     H     0.41338  0.41338  0.00000  0.17323
       8     C     3.15507  3.15507  0.00000 -0.31013
       9     H     0.41275  0.41275  0.00000  0.17450
      10     H     0.41736  0.41736  0.00000  0.16528
      11     C     3.15437  3.15437  0.00000 -0.30875
      12     H     0.41592  0.41592  0.00000  0.16815
      13     H     0.42008  0.42008  0.00000  0.15984
      14     C     3.24205  3.24205  0.00000 -0.48411
      15     H     0.41871  0.41871  0.00000  0.16259
      16     H     0.42325  0.42325  0.00000  0.15350
      17     H     0.41929  0.41929  0.00000  0.16142
      18     H     0.41796  0.41796  0.00000  0.16408
      19     H     0.42097  0.42097  0.00000  0.15806
      20     H     0.40681  0.40681  0.00000  0.18638
      21     H     0.39695  0.39695  0.00000  0.20611
      22     H     0.40911  0.40911  0.00000  0.18177

   Total alpha = 32.00000, Total beta = 32.00000, Total charge =  0.00000
