  ==> Input File <==

--------------------------------------------------------------------------
set {
	reference rhf
	basis cc-pvtz
}

set_num_threads( 4 )
memory 2 gb

molecule MOL {
0 1

H	 -2.498963	 -0.741158	 -0.729149
O	 -2.346257	 -0.289210	 0.080372
C	 -1.183935	 0.486039	 -0.009831
C	 0.062853	 -0.375310	 0.027457
H	 -1.178881	 1.094526	 -0.908634
H	 -1.184406	 1.155156	 0.838676
O	 0.521490	 -0.423482	 1.338480
H	 0.825803	 0.045657	 -0.629499
H	 -0.172240	 -1.371267	 -0.341834
C	 1.651352	 -1.209954	 1.528466
H	 2.493427	 -0.843251	 0.945617
H	 1.909998	 -1.170230	 2.576421
H	 1.465970	 -2.245112	 1.251696

	symmetry c1
}
set optking {
	frozen_dihedral = ("
		8 4 3 5
	")
}

ee = optimize('scf')
oeprop('DIPOLE', 'QUADRUPOLE', 'MULLIKEN_CHARGES')
f=open( 'psi4out.xyz', 'w' )
f.write( "13  " )
f.write( str(ee) + "\n" )
f.write( MOL.save_string_xyz() )
f.close()
--------------------------------------------------------------------------

    Molecular point group: c1
  Charge       = 0
  Multiplicity = 1
  Basis Set: CC-PVTZ
  Basis Set:
  @DF-RHF Final Energy:  -268.05708593456836
    Total Energy =                       -268.0570859345682493
    Molecular point group: c1
  Basis Set: CC-PVTZ
  Basis Set:
  Basis Set: CC-PVTZ
  Basis Set:
  @DF-RHF Final Energy:  -268.05761641549861
    Total Energy =                       -268.0576164154988419
  Basis Set: CC-PVTZ
  Basis Set:
  Basis Set: CC-PVTZ
  Basis Set:
  @DF-RHF Final Energy:  -268.05780662047641
    Total Energy =                       -268.0578066204763559
  Basis Set: CC-PVTZ
  Basis Set:
  Basis Set: CC-PVTZ
  Basis Set:
  @DF-RHF Final Energy:  -268.05781827638805
    Total Energy =                       -268.0578182763882751
  Basis Set: CC-PVTZ
  Basis Set:
  Charge       = 0
  Multiplicity = 1
  Basis Set: CC-PVTZ
  Basis Set:

    Orbital Energies (a.u.)
    -----------------------

    Doubly Occupied:

       1A    -20.553449     2A    -20.549161     3A    -11.271088
       4A    -11.268179     5A    -11.265581     6A     -1.390748
       7A     -1.365548     8A     -1.018849     9A     -0.915565
      10A     -0.843377    11A     -0.702859    12A     -0.676680
      13A     -0.663920    14A     -0.638917    15A     -0.600027
      16A     -0.567554    17A     -0.537208    18A     -0.499003
      19A     -0.478780    20A     -0.440409    21A     -0.421530

  @DF-RHF Final Energy:  -268.05782049899335

   => Energetics <=

    Nuclear Repulsion Energy =            191.7896816724537530
    One-Electron Energy =                -746.3581488176123457
    Two-Electron Energy =                 286.5106466461652417
    DFT Exchange-Correlation Energy =       0.0000000000000000
    Empirical Dispersion Energy =           0.0000000000000000
    PCM Polarization Energy =               0.0000000000000000
    EFP Energy =                            0.0000000000000000
    Total Energy =                       -268.0578204989933511
    Molecular point group: c1
  Basis Set: CC-PVTZ
  Basis Set:

  -Total Gradient:
     Atom            X                  Y                   Z
    ------   -----------------  -----------------  -----------------
       1       -0.000034408272    -0.000016080380    -0.000003265810
       2        0.000085784537     0.000034496022    -0.000030854104
       3       -0.002766040162    -0.004512812682    -0.003228293722
       4        0.002117627764     0.003711461801     0.004434209074
       5        0.001907529736     0.003085802209     0.002019039718
       6        0.000026698310     0.000046171585     0.000002206315
       7       -0.000015683584    -0.000012573758    -0.000048192654
       8       -0.001314375023    -0.002330024337    -0.003143810597
       9       -0.000001103711    -0.000006156938     0.000007999930
      10       -0.000018454882    -0.000007096862    -0.000018734874
      11        0.000013534752     0.000002395019     0.000006200131
      12       -0.000003055437     0.000010935833    -0.000002164810
      13        0.000001945967    -0.000006517512     0.000005661404

  **** Optimization is complete! (in 5 steps) ****
    Final optimized geometry and variables:
    Molecular point group: c1

    Geometry (in Angstrom), charge = 0, multiplicity = 1:

    H           -2.213887281975    -0.427563050499    -1.256673419030
    O           -2.087019859845     0.104164314760    -0.492495602593
    C           -0.914241101191     0.854811604641    -0.615479705678
    C            0.360473287819     0.026956695899    -0.548020130334
    H           -0.915664260305     1.453609273528    -1.522482210778
    H           -0.906279445422     1.546739783136     0.214549134506
    O            0.808743019330    -0.051496679651     0.764079274188
    H            1.122610290836     0.457753493598    -1.197297672905
    H            0.155777867742    -0.971648184455    -0.936284031648
    C            1.927360442646    -0.855270450977     0.943219816966
    H            2.775253979968    -0.493430778513     0.365057601135
    H            2.186087787319    -0.832067629906     1.991567363024
    H            1.728150025512    -1.884771851272     0.654169733296

  Mulliken Charges: (a.u.)
   Center  Symbol    Alpha    Beta     Spin     Total
       1     H     0.39623  0.39623  0.00000  0.20753
       2     O     4.19832  4.19832  0.00000 -0.39664
       3     C     2.96759  2.96759  0.00000  0.06481
       4     C     2.96220  2.96220  0.00000  0.07559
       5     H     0.47199  0.47199  0.00000  0.05601
       6     H     0.45345  0.45345  0.00000  0.09310
       7     O     4.16971  4.16971  0.00000 -0.33941
       8     H     0.47765  0.47765  0.00000  0.04471
       9     H     0.48367  0.48367  0.00000  0.03265
      10     C     3.03032  3.03032  0.00000 -0.06065
      11     H     0.47247  0.47247  0.00000  0.05507
      12     H     0.44558  0.44558  0.00000  0.10884
      13     H     0.47081  0.47081  0.00000  0.05838

   Total alpha = 21.00000, Total beta = 21.00000, Total charge = -0.00000
