  ==> Input File <==

--------------------------------------------------------------------------
set {
	reference rhf
	basis 6-31G*
}

set_num_threads( 4 )
memory 2 gb

molecule MOL {
0 1

H	 -2.116093	 -1.208640	 0.099913
O	 -2.347518	 -0.290803	 0.079804
C	 -1.184022	 0.487508	 -0.006784
C	 0.062599	 -0.378592	 0.031606
H	 -1.176523	 1.099369	 -0.904519
H	 -1.187323	 1.153111	 0.844927
O	 1.171513	 0.459272	 -0.058250
H	 0.050699	 -1.089204	 -0.797170
H	 0.078739	 -0.954914	 0.954740
C	 2.397842	 -0.198080	 -0.002151
H	 2.508049	 -0.905315	 -0.822092
H	 3.173794	 0.550865	 -0.078850
H	 2.517602	 -0.735921	 0.936026

	symmetry c1
}
set optking {
	frozen_dihedral = ("
		1 2 3 5
	")
}

ee = optimize('scf')
oeprop('DIPOLE', 'QUADRUPOLE', 'MULLIKEN_CHARGES')
f=open( 'psi4out.xyz', 'w' )
f.write( "13  " )
f.write( str(ee) + "\n" )
f.write( MOL.save_string_xyz() )
f.close()
--------------------------------------------------------------------------

    Molecular point group: c1
  Charge       = 0
  Multiplicity = 1
  Basis Set: 6-31G*
  Basis Set:
  @DF-RHF Final Energy:  -267.94569574998411
    Total Energy =                       -267.9456957499839973
    Molecular point group: c1
  Basis Set: 6-31G*
  Basis Set:
  Basis Set: 6-31G*
  Basis Set:
  @DF-RHF Final Energy:  -267.94616385573579
    Total Energy =                       -267.9461638557355627
  Basis Set: 6-31G*
  Basis Set:
  Basis Set: 6-31G*
  Basis Set:
  @DF-RHF Final Energy:  -267.94628013305771
    Total Energy =                       -267.9462801330580533
  Basis Set: 6-31G*
  Basis Set:
  Basis Set: 6-31G*
  Basis Set:
  @DF-RHF Final Energy:  -267.94628160249601
    Total Energy =                       -267.9462816024960148
  Basis Set: 6-31G*
  Basis Set:
  Charge       = 0
  Multiplicity = 1
  Basis Set: 6-31G*
  Basis Set:

    Orbital Energies (a.u.)
    -----------------------

    Doubly Occupied:

       1A    -20.568792     2A    -20.556805     3A    -11.281225
       4A    -11.274846     5A    -11.268405     6A     -1.395276
       7A     -1.362296     8A     -1.022804     9A     -0.916478
      10A     -0.852438    11A     -0.692641    12A     -0.689147
      13A     -0.671183    14A     -0.623842    15A     -0.610421
      16A     -0.578069    17A     -0.547064    18A     -0.498838
      19A     -0.471624    20A     -0.439335    21A     -0.428144

  @DF-RHF Final Energy:  -267.94628172008328

   => Energetics <=

    Nuclear Repulsion Energy =            190.3953412733797563
    One-Electron Energy =                -743.1838990886519696
    Two-Electron Energy =                 284.8422760951883674
    DFT Exchange-Correlation Energy =       0.0000000000000000
    Empirical Dispersion Energy =           0.0000000000000000
    PCM Polarization Energy =               0.0000000000000000
    EFP Energy =                            0.0000000000000000
    Total Energy =                       -267.9462817200839027
    Molecular point group: c1
  Basis Set: 6-31G*
  Basis Set:

  -Total Gradient:
     Atom            X                  Y                   Z
    ------   -----------------  -----------------  -----------------
       1        0.000008032043     0.000005913350     0.000191682370
       2       -0.000033707622     0.000013277254    -0.000214963520
       3        0.000104625067    -0.000127548655    -0.000043637653
       4       -0.000015064256    -0.000013033049    -0.000017573588
       5       -0.000069261918     0.000120737686     0.000083299804
       6       -0.000006574389    -0.000000690522    -0.000004144410
       7        0.000014999119     0.000007030472     0.000000765746
       8        0.000004227411    -0.000009140788     0.000002787406
       9        0.000006184650     0.000007458230    -0.000005714146
      10       -0.000017296647    -0.000004808327     0.000011768874
      11        0.000000897656     0.000001004885    -0.000003284425
      12       -0.000005771224     0.000002882199    -0.000001927366
      13        0.000008710115    -0.000003082735     0.000000940908

  **** Optimization is complete! (in 5 steps) ****
    Final optimized geometry and variables:
    Molecular point group: c1

    Geometry (in Angstrom), charge = 0, multiplicity = 1:

    H           -2.168563375411    -1.202938437263     0.091990310058
    O           -2.364376801700    -0.278563347003     0.050917495368
    C           -1.186733313103     0.486438043805    -0.017486651184
    C            0.063683388174    -0.373789087684     0.024556282954
    H           -1.190599447760     1.064586553304    -0.934024321301
    H           -1.168305469243     1.180444993511     0.814346015607
    O            1.168552095626     0.466466974193    -0.047579736995
    H            0.058482998543    -1.076953858864    -0.810183664168
    H            0.081410523574    -0.956891281503     0.946804644519
    C            2.397137538515    -0.190462107815    -0.017922024828
    H            2.501725963451    -0.874130717334    -0.857884687421
    H            3.169833639654     0.562768324439    -0.079786695550
    H            2.524278098214    -0.752544631532     0.904983335696

  Mulliken Charges: (a.u.)
   Center  Symbol    Alpha    Beta     Spin     Total
       1     H     0.27972  0.27972  0.00000  0.44056
       2     O     4.37916  4.37916  0.00000 -0.75831
       3     C     2.98024  2.98024  0.00000  0.03951
       4     C     3.01646  3.01646  0.00000 -0.03292
       5     H     0.41677  0.41677  0.00000  0.16645
       6     H     0.41636  0.41636  0.00000  0.16728
       7     O     4.30477  4.30477  0.00000 -0.60953
       8     H     0.43060  0.43060  0.00000  0.13880
       9     H     0.43003  0.43003  0.00000  0.13993
      10     C     3.08162  3.08162  0.00000 -0.16324
      11     H     0.42776  0.42776  0.00000  0.14448
      12     H     0.40879  0.40879  0.00000  0.18242
      13     H     0.42771  0.42771  0.00000  0.14457

   Total alpha = 21.00000, Total beta = 21.00000, Total charge = -0.00000
