  ==> Input File <==

--------------------------------------------------------------------------
set {
	reference rhf
	basis 6-31G*
}

set_num_threads( 1 )
memory 2 gb

molecule MOL {
0 1

H	 2.816492	 -0.451839	 0.309787
O	 2.016064	 -0.864478	 0.000222
C	 1.050492	 0.053836	 0.000068
C	 -0.318135	 -0.576402	 0.000164
O	 1.285279	 1.218255	 -0.000078
C	 -1.454360	 0.441875	 -0.000474
H	 -0.374042	 -1.230163	 -0.866135
H	 -0.374274	 -1.229227	 0.867154
C	 -2.826123	 -0.230780	 0.000056
H	 -1.357605	 1.085198	 -0.868380
H	 -1.357504	 1.086451	 0.866496
H	 -2.959731	 -0.858053	 -0.876869
H	 -3.619374	 0.509403	 -0.000080
H	 -2.959371	 -0.857318	 0.877556

	symmetry c1
}
set optking {
	frozen_dihedral = ("
		7 4 6 10,
		2 3 4 7
	")
}

ee = energy('scf')
oeprop('DIPOLE', 'QUADRUPOLE', 'MULLIKEN_CHARGES')
f=open( 'psi4out.xyz', 'w' )
f.write( "14  " )
f.write( str(ee) + "\n" )
f.write( MOL.save_string_xyz() )
f.close()
--------------------------------------------------------------------------

    Molecular point group: c1

    Geometry (in Angstrom), charge = 0, multiplicity = 1:

       Center              X                  Y                   Z               Mass
    ------------   -----------------  -----------------  -----------------  -----------------
           H          2.816922683598    -0.451387098033     0.306243402806     1.007825032070
           O          2.016494683598    -0.864026098033    -0.003321597194    15.994914619560
           C          1.050922683598     0.054287901967    -0.003475597194    12.000000000000
           C         -0.317704316402    -0.575950098033    -0.003379597194    12.000000000000
           O          1.285709683598     1.218706901967    -0.003621597194    15.994914619560
           C         -1.453929316402     0.442326901967    -0.004017597194    12.000000000000
           H         -0.373611316402    -1.229711098033    -0.869678597194     1.007825032070
           H         -0.373843316402    -1.228775098033     0.863610402806     1.007825032070
           C         -2.825692316402    -0.230328098033    -0.003487597194    12.000000000000
           H         -1.357174316402     1.085649901967    -0.871923597194     1.007825032070
           H         -1.357073316402     1.086902901967     0.862952402806     1.007825032070
           H         -2.959300316402    -0.857601098033    -0.880412597194     1.007825032070
           H         -3.618943316402     0.509854901967    -0.003623597194     1.007825032070
           H         -2.958940316402    -0.856866098033     0.874012402806     1.007825032070

  Charge       = 0
  Multiplicity = 1
  Basis Set: 6-31G*
  Basis Set:

    Orbital Energies (a.u.)
    -----------------------

    Doubly Occupied:

       1A    -20.611505     2A    -20.552886     3A    -11.381620
       4A    -11.241226     5A    -11.225515     6A    -11.217098
       7A     -1.474616     8A     -1.366420     9A     -1.083030
      10A     -0.979351    11A     -0.856921    12A     -0.791623
      13A     -0.700911    14A     -0.688492    15A     -0.667102
      16A     -0.619408    17A     -0.588997    18A     -0.572224
      19A     -0.545198    20A     -0.505116    21A     -0.491990
      22A     -0.482458    23A     -0.478734    24A     -0.444669

  @DF-RHF Final Energy:  -305.87832773476271

   => Energetics <=

    Nuclear Repulsion Energy =            239.9646008241651600
    One-Electron Energy =                -892.5516262497178559
    Two-Electron Energy =                 346.7086976907901885
    DFT Exchange-Correlation Energy =       0.0000000000000000
    Empirical Dispersion Energy =           0.0000000000000000
    PCM Polarization Energy =               0.0000000000000000
    EFP Energy =                            0.0000000000000000
    Total Energy =                       -305.8783277347625358

  Mulliken Charges: (a.u.)
   Center  Symbol    Alpha    Beta     Spin     Total
       1     H     0.26731  0.26731  0.00000  0.46539
       2     O     4.35184  4.35184  0.00000 -0.70368
       3     C     2.62479  2.62479  0.00000  0.75042
       4     C     3.20919  3.20919  0.00000 -0.41838
       5     O     4.27653  4.27653  0.00000 -0.55305
       6     C     3.15251  3.15251  0.00000 -0.30503
       7     H     0.39848  0.39848  0.00000  0.20304
       8     H     0.39981  0.39981  0.00000  0.20039
       9     C     3.24288  3.24288  0.00000 -0.48577
      10     H     0.40980  0.40980  0.00000  0.18040
      11     H     0.41061  0.41061  0.00000  0.17878
      12     H     0.42068  0.42068  0.00000  0.15863
      13     H     0.41448  0.41448  0.00000  0.17103
      14     H     0.42109  0.42109  0.00000  0.15782

   Total alpha = 24.00000, Total beta = 24.00000, Total charge = -0.00000
