  ==> Input File <==

--------------------------------------------------------------------------
set {
	reference rhf
	basis 6-31G*
}

set_num_threads( 4 )
memory 2 gb

molecule MOL {
0 1

H	 -2.540934	 -1.039650	 0.185690
O	 -2.315789	 -0.143634	 -0.024262
C	 -0.945151	 -0.064130	 -0.333158
H	 -0.813375	 -0.223047	 -1.403232
C	 -0.232801	 -1.184051	 0.407206
C	 -0.355424	 1.302939	 0.054523
H	 -0.318824	 -0.992899	 1.473524
H	 -0.742411	 -2.122033	 0.217954
C	 1.248522	 -1.270719	 -0.013048
H	 -0.546144	 2.018388	 -0.742941
H	 -0.890929	 1.656788	 0.930149
C	 1.156425	 1.235120	 0.355905
H	 1.825384	 -1.683246	 0.809111
H	 1.357782	 -1.965923	 -0.840362
C	 1.828244	 0.099899	 -0.419275
H	 1.626109	 2.185622	 0.123525
H	 1.309438	 1.071213	 1.419539
H	 2.901447	 0.112642	 -0.255830
H	 1.681817	 0.263413	 -1.484607

	symmetry c1
}
set optking {
	frozen_dihedral = ("
		1 2 3 4
	")
}

ee = optimize('scf')
oeprop('DIPOLE', 'QUADRUPOLE', 'MULLIKEN_CHARGES')
f=open( 'psi4out.xyz', 'w' )
f.write( "19  " )
f.write( str(ee) + "\n" )
f.write( MOL.save_string_xyz() )
f.close()
--------------------------------------------------------------------------

    Molecular point group: c1
  Charge       = 0
  Multiplicity = 1
  Basis Set: 6-31G*
  Basis Set:
  @DF-RHF Final Energy:  -309.04521531268978
    Total Energy =                       -309.0452153126900612
    Molecular point group: c1
  Basis Set: 6-31G*
  Basis Set:
  Basis Set: 6-31G*
  Basis Set:
  @DF-RHF Final Energy:  -309.04698157592168
    Total Energy =                       -309.0469815759216203
  Basis Set: 6-31G*
  Basis Set:
  Basis Set: 6-31G*
  Basis Set:
  @DF-RHF Final Energy:  -309.04730819793912
    Total Energy =                       -309.0473081979394578
  Basis Set: 6-31G*
  Basis Set:
  Basis Set: 6-31G*
  Basis Set:
  @DF-RHF Final Energy:  -309.04731483192916
    Total Energy =                       -309.0473148319293841
  Basis Set: 6-31G*
  Basis Set:
  Charge       = 0
  Multiplicity = 1
  Basis Set: 6-31G*
  Basis Set:

    Orbital Energies (a.u.)
    -----------------------

    Doubly Occupied:

       1A    -20.548357     2A    -11.268728     3A    -11.220887
       4A    -11.219366     5A    -11.217059     6A    -11.215243
       7A    -11.207841     8A     -1.357695     9A     -1.110047
      10A     -1.004144    11A     -0.988775    12A     -0.851206
      13A     -0.831803    14A     -0.738462    15A     -0.692885
      16A     -0.660663    17A     -0.618734    18A     -0.609701
      19A     -0.573292    20A     -0.546231    21A     -0.529583
      22A     -0.521948    23A     -0.499345    24A     -0.487176
      25A     -0.466414    26A     -0.448904    27A     -0.426377
      28A     -0.413512

  @DF-RHF Final Energy:  -309.04731528704406

   => Energetics <=

    Nuclear Repulsion Energy =            331.4299836203879295
    One-Electron Energy =               -1076.4058445766249861
    Two-Electron Energy =                 435.9285456691929994
    DFT Exchange-Correlation Energy =       0.0000000000000000
    Empirical Dispersion Energy =           0.0000000000000000
    PCM Polarization Energy =               0.0000000000000000
    EFP Energy =                            0.0000000000000000
    Total Energy =                       -309.0473152870440572
    Molecular point group: c1
  Basis Set: 6-31G*
  Basis Set:

  -Total Gradient:
     Atom            X                  Y                   Z
    ------   -----------------  -----------------  -----------------
       1        0.000508644306     0.000334382636     0.002423884800
       2       -0.000643624031     0.000099966676    -0.003040446119
       3        0.000148643166    -0.002573478929     0.000924703327
       4       -0.000013629473     0.002136930936    -0.000285211530
       5       -0.000000518122     0.000008531886    -0.000032062228
       6        0.000011686134     0.000001816645    -0.000000261121
       7        0.000005360353    -0.000002357507    -0.000007378819
       8        0.000006883941     0.000004752629    -0.000001782285
       9       -0.000003924689    -0.000008343284     0.000026762075
      10        0.000009962454     0.000004144497    -0.000006984380
      11       -0.000002422896    -0.000006464949    -0.000001390110
      12        0.000006672728     0.000015530371    -0.000013034037
      13        0.000014034269    -0.000009217439     0.000009050579
      14       -0.000005893316    -0.000004209566     0.000006818028
      15       -0.000023948536     0.000001059631    -0.000005975428
      16       -0.000013014491     0.000008403840     0.000007484425
      17        0.000000866501    -0.000005081440    -0.000000660691
      18       -0.000005949133    -0.000019083164    -0.000002487020
      19        0.000000170839     0.000012716531    -0.000001029465

  **** Optimization is complete! (in 5 steps) ****
    Final optimized geometry and variables:
    Molecular point group: c1

    Geometry (in Angstrom), charge = 0, multiplicity = 1:

    H           -2.633454194812    -0.927481124010     0.139734728131
    O           -2.326892988351    -0.051364307275    -0.045693015618
    C           -0.947449427359    -0.076155308938    -0.329041901108
    H           -0.817870398893    -0.221411519248    -1.400497325466
    C           -0.214694828469    -1.189597731936     0.410025741065
    C           -0.370049507465     1.294448675191     0.052410684304
    H           -0.294525481941    -1.000588873905     1.477876585696
    H           -0.700904918670    -2.145918115298     0.226363642500
    C            1.264844055800    -1.263671520976    -0.019533257175
    H           -0.575368807696     1.998840991616    -0.747745663687
    H           -0.909963431287     1.646855425261     0.924253839816
    C            1.142792290958     1.239874888656     0.348569314773
    H            1.850070436489    -1.670072294633     0.799625325549
    H            1.373948240111    -1.958306450528    -0.847011460998
    C            1.825577732213     0.113514042663    -0.429604994849
    H            1.601959879847     2.195131748568     0.114910938687
    H            1.304041719156     1.077375090185     1.411665795026
    H            2.899228807226     0.136866726378    -0.270840440906
    H            1.671732290271     0.273973389532    -1.494003288860

  Mulliken Charges: (a.u.)
   Center  Symbol    Alpha    Beta     Spin     Total
       1     H     0.28153  0.28153  0.00000  0.43694
       2     O     4.38365  4.38365  0.00000 -0.76731
       3     C     2.89708  2.89708  0.00000  0.20584
       4     H     0.42841  0.42841  0.00000  0.14318
       5     C     3.18711  3.18711  0.00000 -0.37422
       6     C     3.16297  3.16297  0.00000 -0.32595
       7     H     0.41507  0.41507  0.00000  0.16985
       8     H     0.42273  0.42273  0.00000  0.15455
       9     C     3.15841  3.15841  0.00000 -0.31682
      10     H     0.41585  0.41585  0.00000  0.16831
      11     H     0.40940  0.40940  0.00000  0.18119
      12     C     3.16569  3.16569  0.00000 -0.33138
      13     H     0.41715  0.41715  0.00000  0.16570
      14     H     0.41784  0.41784  0.00000  0.16431
      15     C     3.16410  3.16410  0.00000 -0.32820
      16     H     0.41600  0.41600  0.00000  0.16799
      17     H     0.42051  0.42051  0.00000  0.15897
      18     H     0.41636  0.41636  0.00000  0.16728
      19     H     0.42012  0.42012  0.00000  0.15976

   Total alpha = 28.00000, Total beta = 28.00000, Total charge = -0.00000
