  ==> Input File <==

--------------------------------------------------------------------------
set {
	reference rhf
	basis cc-pvtz
}

set_num_threads( 4 )
memory 2 gb

molecule MOL {
0 1

H	 -2.644180	 -0.653737	 1.272255
C	 -2.092774	 -0.380414	 0.391915
O	 -0.808934	 -0.154049	 0.752536
F	 -2.163230	 -1.351640	 -0.507133
F	 -2.627232	 0.691260	 -0.169301
C	 0.085006	 0.250800	 -0.215074
C	 1.370439	 -0.548013	 -0.012993
Cl	 0.421658	 1.987697	 -0.091007
H	 -0.272219	 0.063284	 -1.212508
F	 1.404200	 -1.065399	 1.188754
F	 2.398027	 0.258550	 -0.134786
F	 1.498537	 -1.508774	 -0.886366

	symmetry c1
}
set optking {
	frozen_dihedral = ("
		10 7 6 9
	")
}

ee = optimize('scf')
oeprop('DIPOLE', 'QUADRUPOLE', 'MULLIKEN_CHARGES')
f=open( 'psi4out.xyz', 'w' )
f.write( "12  " )
f.write( str(ee) + "\n" )
f.write( MOL.save_string_xyz() )
f.close()
--------------------------------------------------------------------------

    Molecular point group: c1
  Charge       = 0
  Multiplicity = 1
  Basis Set: CC-PVTZ
  Basis Set:
  @DF-RHF Final Energy: -1146.60923075398614
    Total Energy =                      -1146.6092307539865942
    Molecular point group: c1
  Basis Set: CC-PVTZ
  Basis Set:
  Basis Set: CC-PVTZ
  Basis Set:
  @DF-RHF Final Energy: -1146.61075960358676
    Total Energy =                      -1146.6107596035860752
  Basis Set: CC-PVTZ
  Basis Set:
  Basis Set: CC-PVTZ
  Basis Set:
  @DF-RHF Final Energy: -1146.61316338695451
    Total Energy =                      -1146.6131633869549660
  Basis Set: CC-PVTZ
  Basis Set:
  Basis Set: CC-PVTZ
  Basis Set:
  @DF-RHF Final Energy: -1146.61342402004311
    Total Energy =                      -1146.6134240200428849
  Basis Set: CC-PVTZ
  Basis Set:
  Basis Set: CC-PVTZ
  Basis Set:
  @DF-RHF Final Energy: -1146.61344437369735
    Total Energy =                      -1146.6134443736984849
  Basis Set: CC-PVTZ
  Basis Set:
  Basis Set: CC-PVTZ
  Basis Set:
  @DF-RHF Final Energy: -1146.61344832219265
    Total Energy =                      -1146.6134483221937899
  Basis Set: CC-PVTZ
  Basis Set:
  Charge       = 0
  Multiplicity = 1
  Basis Set: CC-PVTZ
  Basis Set:

    Orbital Energies (a.u.)
    -----------------------

    Doubly Occupied:

       1A   -104.856823     2A    -26.356034     3A    -26.352791
       4A    -26.351315     5A    -26.342678     6A    -26.342425
       7A    -20.639039     8A    -11.522097     9A    -11.482879
      10A    -11.401935    11A    -10.582418    12A     -8.049212
      13A     -8.047219    14A     -8.047153    15A     -1.768420
      16A     -1.723932    17A     -1.664572    18A     -1.658452
      19A     -1.644058    20A     -1.485266    21A     -1.176484
      22A     -1.051160    23A     -0.989954    24A     -0.923988
      25A     -0.862282    26A     -0.857853    27A     -0.852603
      28A     -0.829868    29A     -0.817892    30A     -0.795326
      31A     -0.732801    32A     -0.729710    33A     -0.710981
      34A     -0.708266    35A     -0.685126    36A     -0.679720
      37A     -0.665065    38A     -0.662984    39A     -0.650560
      40A     -0.635504    41A     -0.598065    42A     -0.580601
      43A     -0.524484    44A     -0.477402    45A     -0.470150

  @DF-RHF Final Energy: -1146.61344927532491

   => Energetics <=

    Nuclear Repulsion Energy =            736.3569250636287506
    One-Electron Energy =               -3055.9656604354267984
    Two-Electron Energy =                1172.9952860964738193
    DFT Exchange-Correlation Energy =       0.0000000000000000
    Empirical Dispersion Energy =           0.0000000000000000
    PCM Polarization Energy =               0.0000000000000000
    EFP Energy =                            0.0000000000000000
    Total Energy =                      -1146.6134492753242284
    Molecular point group: c1
  Basis Set: CC-PVTZ
  Basis Set:

  -Total Gradient:
     Atom            X                  Y                   Z
    ------   -----------------  -----------------  -----------------
       1        0.000001257350     0.000007968256     0.000006000393
       2       -0.000019382015    -0.000056807621     0.000024262054
       3       -0.000010540109     0.000045517960    -0.000002691147
       4        0.000005960521     0.000040947496    -0.000011029064
       5       -0.000015746383    -0.000047749860    -0.000010306090
       6        0.003491704502     0.004676766960    -0.003516656601
       7        0.002854083252     0.005158631229     0.002886303350
       8        0.000061007113     0.000013302269     0.000008211302
       9       -0.003596871939    -0.005127000323     0.002419195795
      10       -0.002687807379    -0.004687202053    -0.001754959713
      11       -0.000052664676    -0.000005648212     0.000008146640
      12       -0.000031000236    -0.000018726031    -0.000056476927

  **** Optimization is complete! (in 7 steps) ****
    Final optimized geometry and variables:
    Molecular point group: c1

    Geometry (in Angstrom), charge = 0, multiplicity = 1:

    H           -2.654519625931    -0.687186827909     1.226737945911
    C           -2.087813050270    -0.400189298587     0.360470588090
    O           -0.817356723746    -0.154874442996     0.750945762422
    F           -2.120806210393    -1.370014201821    -0.543765591165
    F           -2.630745190863     0.662770565081    -0.209703133001
    C            0.090921313254     0.278872604483    -0.196911931801
    C            1.392304608856    -0.535903106352     0.000072122609
    CL           0.362214624902     2.020515979124    -0.049873662535
    H           -0.275847298144     0.064987595973    -1.184256848496
    F            1.477115404806    -1.041430453303     1.199334624031
    F            2.469727359093     0.154189105879    -0.244747712677
    F            1.363474745466    -1.546000868953    -0.847155188897

  Mulliken Charges: (a.u.)
   Center  Symbol    Alpha    Beta     Spin     Total
       1     H     0.45208  0.45208  0.00000  0.09584
       2     C     2.73972  2.73972  0.00000  0.52055
       3     O     4.15238  4.15238  0.00000 -0.30477
       4     F     4.61871  4.61871  0.00000 -0.23743
       5     F     4.61529  4.61529  0.00000 -0.23058
       6     C     2.95476  2.95476  0.00000  0.09047
       7     C     2.66560  2.66560  0.00000  0.66880
       8    CL     8.56886  8.56886  0.00000 -0.13772
       9     H     0.43131  0.43131  0.00000  0.13739
      10     F     4.59726  4.59726  0.00000 -0.19453
      11     F     4.59558  4.59558  0.00000 -0.19115
      12     F     4.60844  4.60844  0.00000 -0.21688

   Total alpha = 45.00000, Total beta = 45.00000, Total charge = -0.00000
