                              Psi4 1.0.54 Driver

  ==> Input File <==

--------------------------------------------------------------------------
set {
	reference rhf
	basis cc-pvtz
}

set_num_threads( 4 )
memory 2 gb

molecule MOL {
0 1

H	 1.062481	 1.813650	 0.343441
O	 0.246446	 1.336764	 0.355004
C	 0.489979	 0.078084	 0.002623
C	 -0.763662	 -0.754014	 0.000816
O	 1.577075	 -0.303924	 -0.262337
C	 -2.038001	 0.074705	 -0.000833
H	 -0.712945	 -1.405886	 -0.864342
H	 -0.715137	 -1.405770	 0.866182
H	 -2.087267	 0.710831	 -0.874232
H	 -2.903419	 -0.576199	 -0.001922
H	 -2.089467	 0.710909	 0.872389

	symmetry c1
}
set optking {
	frozen_dihedral = ("
		2 3 4 7
	")
}

ee,wfn = optimize('scf', return_wfn=True)
oeprop( wfn, 'DIPOLE', 'QUADRUPOLE', 'MULLIKEN_CHARGES')
f=open( 'psi4out.xyz', 'w' )
f.write( "11  " )
f.write( str(ee) + "\n" )
f.write( MOL.save_string_xyz() )
f.close()
--------------------------------------------------------------------------

    Molecular point group: c1
  Charge       = 0
  Multiplicity = 1
  Basis Set: CC-PVTZ
  Basis Set:
  @DF-RHF Final Energy:  -266.94956877482537
    Total Energy =                       -266.9495687748253658
    Molecular point group: c1
  Basis Set: CC-PVTZ
  Basis Set:
  Basis Set: CC-PVTZ
  Basis Set:
  @DF-RHF Final Energy:  -266.95038217990441
    Total Energy =                       -266.9503821799044090
  Basis Set: CC-PVTZ
  Basis Set:
  Basis Set: CC-PVTZ
  Basis Set:
  @DF-RHF Final Energy:  -266.95061140826419
    Total Energy =                       -266.9506114082640238
  Basis Set: CC-PVTZ
  Basis Set:
  Basis Set: CC-PVTZ
  Basis Set:
  @DF-RHF Final Energy:  -266.95045995490705
    Total Energy =                       -266.9504599549071600
  Basis Set: CC-PVTZ
  Basis Set:
  Basis Set: CC-PVTZ
  Basis Set:
  @DF-RHF Final Energy:  -266.95063884406079
    Total Energy =                       -266.9506388440607907
  Basis Set: CC-PVTZ
  Basis Set:
  Charge       = 0
  Multiplicity = 1
  Basis Set: CC-PVTZ
  Basis Set:

    Orbital Energies (a.u.)
    -----------------------

    Doubly Occupied:

       1A    -20.607822     2A    -20.537364     3A    -11.374916
       4A    -11.243222     5A    -11.223433     6A     -1.479883
       7A     -1.368820     8A     -1.067522     9A     -0.910864
      10A     -0.826645    11A     -0.706008    12A     -0.678178
      13A     -0.663076    14A     -0.599764    15A     -0.589655
      16A     -0.556178    17A     -0.524891    18A     -0.517806
      19A     -0.475354    20A     -0.443322

  @DF-RHF Final Energy:  -266.95064053291446

   => Energetics <=

    Nuclear Repulsion Energy =            180.4160497164251638
    One-Electron Energy =                -721.9439359482673808
    Two-Electron Energy =                 274.5772456989275270
    DFT Exchange-Correlation Energy =       0.0000000000000000
    Empirical Dispersion Energy =           0.0000000000000000
    PCM Polarization Energy =               0.0000000000000000
    EFP Energy =                            0.0000000000000000
    Total Energy =                       -266.9506405329146901
    Molecular point group: c1
  Basis Set: CC-PVTZ
  Basis Set:

  -Total Gradient:
     Atom            X                  Y                   Z
    ------   -----------------  -----------------  -----------------
       1        0.000002977858    -0.000031900849    -0.000006420954
       2       -0.000056511683     0.000131183287    -0.000479715140
       3       -0.000113868516    -0.000097214261     0.000593322881
       4        0.000298769052    -0.000445080296     0.000215574410
       5        0.000105285152    -0.000006356528    -0.000009368726
       6       -0.000006943947     0.000009585539    -0.000011068497
       7       -0.000228656075     0.000446622243    -0.000309332622
       8        0.000002674689     0.000004034429     0.000001034626
       9        0.000002006868    -0.000003742048     0.000007703001
      10       -0.000008143652    -0.000003624164     0.000002145583
      11        0.000002410257    -0.000003507353    -0.000003874564

  **** Optimization is complete! (in 6 steps) ****
    Final optimized geometry and variables:
    Molecular point group: c1

    Geometry (in Angstrom), charge = 0, multiplicity = 1:

    H            1.334215416086     1.576820154518     0.388269345063
    O            0.465754545765     1.203320711682     0.365650366358
    C            0.570519227919    -0.064555419239    -0.012656769698
    C           -0.744618880742    -0.802572722415    -0.067706124990
    O            1.615093344675    -0.559581074012    -0.265221040731
    C           -2.004454447723     0.053912706646    -0.057224205185
    H           -0.700887176542    -1.423537553472    -0.952417384434
    H           -0.736859011037    -1.480581267579     0.779406550341
    H           -2.025231869027     0.735322219401    -0.898261326671
    H           -2.878034518060    -0.582990116635    -0.120215702724
    H           -2.078098443451     0.641168231169     0.847558268244

  Mulliken Charges: (a.u.)
   Center  Symbol    Alpha    Beta     Spin     Total
       1     H     0.38296  0.38296  0.00000  0.23407
       2     O     4.15332  4.15332  0.00000 -0.30664
       3     C     2.80631  2.80631  0.00000  0.38738
       4     C     3.09608  3.09608  0.00000 -0.19215
       5     O     4.19742  4.19742  0.00000 -0.39483
       6     C     3.14219  3.14219  0.00000 -0.28438
       7     H     0.43501  0.43501  0.00000  0.12999
       8     H     0.44071  0.44071  0.00000  0.11858
       9     H     0.44948  0.44948  0.00000  0.10104
      10     H     0.44909  0.44909  0.00000  0.10183
      11     H     0.44744  0.44744  0.00000  0.10511

   Total alpha = 20.00000, Total beta = 20.00000, Total charge = -0.00000

*** Psi4 exiting successfully. Buy a developer a beer!
