  ==> Input File <==

--------------------------------------------------------------------------
set {
	reference rhf
	basis 6-31G*
}

set_num_threads( 4 )
memory 2 gb

molecule MOL {
0 1

H	 3.261115	 0.209844	 -0.291468
N	 2.423874	 -0.339508	 -0.264051
C	 1.267428	 0.496480	 0.024474
H	 2.550614	 -1.024472	 0.456835
C	 -0.016086	 -0.325158	 -0.029487
H	 1.226628	 1.275099	 -0.731253
H	 1.333656	 1.001782	 0.991253
C	 -1.282277	 0.529072	 0.046735
H	 -0.012495	 -0.908639	 -0.945788
H	 -0.015903	 -1.041248	 0.791956
C	 -2.563920	 -0.301775	 -0.006060
H	 -1.284084	 1.244622	 -0.773004
H	 -1.271387	 1.115393	 0.963286
H	 -2.621848	 -0.873522	 -0.927727
H	 -3.445135	 0.329952	 0.047812
H	 -2.609542	 -1.004582	 0.821105

	symmetry c1
}
set optking {
	frozen_dihedral = ("
		6 3 5 9
	")
}

ee = optimize('scf')
oeprop('DIPOLE', 'QUADRUPOLE', 'MULLIKEN_CHARGES')
f=open( 'psi4out.xyz', 'w' )
f.write( "16  " )
f.write( str(ee) + "\n" )
f.write( MOL.save_string_xyz() )
f.close()
--------------------------------------------------------------------------

    Molecular point group: c1
  Charge       = 0
  Multiplicity = 1
  Basis Set: 6-31G*
  Basis Set:
  @DF-RHF Final Energy:  -212.31677304642875
    Total Energy =                       -212.3167730464284659
    Molecular point group: c1
  Basis Set: 6-31G*
  Basis Set:
  Basis Set: 6-31G*
  Basis Set:
  @DF-RHF Final Energy:  -212.31679255418987
    Total Energy =                       -212.3167925541897034
  Basis Set: 6-31G*
  Basis Set:
  Basis Set: 6-31G*
  Basis Set:
  @DF-RHF Final Energy:  -212.31680887647516
    Total Energy =                       -212.3168088764754202
  Basis Set: 6-31G*
  Basis Set:
  Basis Set: 6-31G*
  Basis Set:
  @DF-RHF Final Energy:  -212.31681077197953
    Total Energy =                       -212.3168107719795898
  Basis Set: 6-31G*
  Basis Set:
  Charge       = 0
  Multiplicity = 1
  Basis Set: 6-31G*
  Basis Set:

    Orbital Energies (a.u.)
    -----------------------

    Doubly Occupied:

       1A    -15.532828     2A    -11.239841     3A    -11.215232
       4A    -11.209602     5A    -11.207947     6A     -1.176888
       7A     -1.059565     8A     -0.958713     9A     -0.843690
      10A     -0.792373    11A     -0.662159    12A     -0.639818
      13A     -0.603615    14A     -0.575681    15A     -0.566334
      16A     -0.523773    17A     -0.500472    18A     -0.469956
      19A     -0.464370    20A     -0.462350    21A     -0.381171

  @DF-RHF Final Energy:  -212.31681110169296

   => Energetics <=

    Nuclear Repulsion Energy =            186.2435349844645884
    One-Electron Energy =                -654.9479361056282869
    Two-Electron Energy =                 256.3875900194708493
    DFT Exchange-Correlation Energy =       0.0000000000000000
    Empirical Dispersion Energy =           0.0000000000000000
    PCM Polarization Energy =               0.0000000000000000
    EFP Energy =                            0.0000000000000000
    Total Energy =                       -212.3168111016928492
    Molecular point group: c1
  Basis Set: 6-31G*
  Basis Set:

  -Total Gradient:
     Atom            X                  Y                   Z
    ------   -----------------  -----------------  -----------------
       1        0.000008920066     0.000002510031    -0.000005197302
       2       -0.000019461419     0.000002588515    -0.000013086065
       3        0.000975143110    -0.001472316647    -0.001107862990
       4        0.000003360988    -0.000008085278     0.000006194147
       5       -0.001017495852     0.001702011880    -0.000676770281
       6       -0.000677809718     0.000976631828     0.001037260327
       7        0.000008826468     0.000002160656     0.000022339679
       8        0.000014794195    -0.000010219071     0.000001835191
       9        0.000709004615    -0.001195906370     0.000738475495
      10       -0.000002110038     0.000001292502     0.000009287518
      11       -0.000003581317     0.000002832042    -0.000014175906
      12       -0.000012118554     0.000000891778     0.000001157907
      13        0.000012977001    -0.000006781700    -0.000003757065
      14        0.000002559380    -0.000003368564     0.000006594954
      15       -0.000003390766    -0.000001281921    -0.000005542378
      16        0.000000381835     0.000007040318     0.000003246769

  **** Optimization is complete! (in 5 steps) ****
    Final optimized geometry and variables:
    Molecular point group: c1

    Geometry (in Angstrom), charge = 0, multiplicity = 1:

    H            3.268395157441     0.203293335446    -0.212893350157
    N            2.429417051806    -0.344178438563    -0.213257003025
    C            1.269089208967     0.491486054358     0.057823180905
    H            2.536766227663    -1.037631283747     0.502753841769
    C           -0.015993208338    -0.327443654323    -0.008919621864
    H            1.236170308386     1.276232913815    -0.692074521250
    H            1.321289082231     0.996380398165     1.025999586980
    C           -1.282261778732     0.524416145461     0.080731843894
    H           -0.008424708578    -0.904577777704    -0.929222577465
    H           -0.015006680885    -1.054346134666     0.803481420053
    C           -2.563071138007    -0.308649847858     0.046529509898
    H           -1.294998966045     1.237233747416    -0.740974899856
    H           -1.260707838920     1.113403989218     0.995524855534
    H           -2.628933376872    -0.886988727463    -0.870504788607
    H           -3.444616388307     0.322328884608     0.104290886661
    H           -2.599783414111    -1.005510660234     0.879121606365

  Mulliken Charges: (a.u.)
   Center  Symbol    Alpha    Beta     Spin     Total
       1     H     0.33247  0.33247  0.00000  0.33507
       2     N     3.92141  3.92141  0.00000 -0.84283
       3     C     3.06018  3.06018  0.00000 -0.12037
       4     H     0.33531  0.33531  0.00000  0.32939
       5     C     3.15208  3.15208  0.00000 -0.30416
       6     H     0.42104  0.42104  0.00000  0.15792
       7     H     0.43495  0.43495  0.00000  0.13010
       8     C     3.15528  3.15528  0.00000 -0.31055
       9     H     0.41249  0.41249  0.00000  0.17501
      10     H     0.42814  0.42814  0.00000  0.14372
      11     C     3.23881  3.23881  0.00000 -0.47761
      12     H     0.42201  0.42201  0.00000  0.15598
      13     H     0.42382  0.42382  0.00000  0.15237
      14     H     0.42042  0.42042  0.00000  0.15915
      15     H     0.41959  0.41959  0.00000  0.16083
      16     H     0.42200  0.42200  0.00000  0.15600

   Total alpha = 21.00000, Total beta = 21.00000, Total charge = -0.00000
