  ==> Input File <==

--------------------------------------------------------------------------
set {
	reference rhf
	basis 6-31G*
}

set_num_threads( 4 )
memory 2 gb

molecule MOL {
0 1

O	 1.040435	 0.619377	 2.656613
C	 1.445075	 -0.139943	 1.836395
C	 1.245376	 -0.013843	 0.345420
O	 2.144414	 -1.227412	 2.136340
C	 0.455112	 1.231400	 -0.050772
H	 2.229834	 -0.032969	 -0.110285
H	 0.744890	 -0.918258	 0.008900
C	 -0.998893	 1.219485	 0.433193
H	 0.482531	 1.345121	 -1.130325
H	 0.957290	 2.103070	 0.354729
C	 -1.883438	 0.145884	 -0.207175
H	 -1.431207	 2.195402	 0.224832
H	 -1.019646	 1.105716	 1.516076
C	 -3.347647	 0.245583	 0.225435
H	 -1.822183	 0.231698	 -1.291012
H	 -1.510341	 -0.844814	 0.042401
C	 -4.239992	 -0.825570	 -0.404234
H	 -3.732888	 1.230466	 -0.033079
H	 -3.408585	 0.170602	 1.310038
C	 -5.701275	 -0.716658	 0.029921
H	 -4.179496	 -0.752714	 -1.488058
H	 -3.859041	 -1.810759	 -0.143352
H	 -6.308102	 -1.488908	 -0.432678
H	 -6.122175	 0.245478	 -0.248167
H	 -5.799072	 -0.820114	 1.106957
C	 2.402828	 -1.467185	 3.507696
H	 2.970993	 -0.653652	 3.935314
H	 2.973586	 -2.381983	 3.544950
H	 1.477895	 -1.580385	 4.054707

	symmetry c1
}
set optking {
	frozen_dihedral = ("
		6 3 5 9
	")
}

ee = optimize('scf')
oeprop('DIPOLE', 'QUADRUPOLE', 'MULLIKEN_CHARGES')
f=open( 'psi4out.xyz', 'w' )
f.write( "29  " )
f.write( str(ee) + "\n" )
f.write( MOL.save_string_xyz() )
f.close()
--------------------------------------------------------------------------

    Molecular point group: c1
  Charge       = 0
  Multiplicity = 1
  Basis Set: 6-31G*
  Basis Set:
  @DF-RHF Final Energy:  -501.04229006427533
    Total Energy =                       -501.0422900642749937
    Molecular point group: c1
  Basis Set: 6-31G*
  Basis Set:
  Basis Set: 6-31G*
  Basis Set:
  @DF-RHF Final Energy:  -501.04313418812410
    Total Energy =                       -501.0431341881230765
  Basis Set: 6-31G*
  Basis Set:
  Basis Set: 6-31G*
  Basis Set:
  @DF-RHF Final Energy:  -501.04155526789441
    Total Energy =                       -501.0415552678946369
  Basis Set: 6-31G*
  Basis Set:
  Basis Set: 6-31G*
  Basis Set:
  @DF-RHF Final Energy:  -501.04338305551869
    Total Energy =                       -501.0433830555186887
  Basis Set: 6-31G*
  Basis Set:
  @DF-RHF Final Energy:  -501.04339011310913
    Total Energy =                       -501.0433901131087850
  @DF-RHF Final Energy:  -501.04352433855820
    Total Energy =                       -501.0435243385578588
  Basis Set: 6-31G*
  Basis Set:
  @DF-RHF Final Energy:  -501.04353399511933
    Total Energy =                       -501.0435339951186506
  Basis Set: 6-31G*
  Basis Set:
  Basis Set: 6-31G*
  Basis Set:
  @DF-RHF Final Energy:  -501.04353654654483
    Total Energy =                       -501.0435365465442601
  Basis Set: 6-31G*
  Basis Set:
  Basis Set: 6-31G*
  Basis Set:
  @DF-RHF Final Energy:  -501.04353803286676
    Total Energy =                       -501.0435380328668771
  Basis Set: 6-31G*
  Basis Set:
  Charge       = 0
  Multiplicity = 1
  Basis Set: 6-31G*
  Basis Set:

    Orbital Energies (a.u.)
    -----------------------

    Doubly Occupied:

       1A    -20.604648     2A    -20.545698     3A    -11.372811
       4A    -11.281368     5A    -11.234872     6A    -11.220169
       7A    -11.214080     8A    -11.213364     9A    -11.211933
      10A    -11.211277    11A    -11.207514    12A     -1.470104
      13A     -1.363124    14A     -1.095524    15A     -1.065327
      16A     -1.017382    17A     -0.977073    18A     -0.927173
      19A     -0.860805    20A     -0.800754    21A     -0.789047
      22A     -0.762497    23A     -0.696958    24A     -0.682287
      25A     -0.670689    26A     -0.651105    27A     -0.621847
      28A     -0.615642    29A     -0.587712    30A     -0.579934
      31A     -0.564255    32A     -0.547270    33A     -0.537923
      34A     -0.526273    35A     -0.519534    36A     -0.501413
      37A     -0.499906    38A     -0.478075    39A     -0.469406
      40A     -0.461339    41A     -0.457410    42A     -0.454828
      43A     -0.436409    44A     -0.433781

  @DF-RHF Final Energy:  -501.04353808584926

   => Energetics <=

    Nuclear Repulsion Energy =            626.1851216264916502
    One-Electron Energy =               -1923.5762435482449746
    Two-Electron Energy =                 796.3475838359038335
    DFT Exchange-Correlation Energy =       0.0000000000000000
    Empirical Dispersion Energy =           0.0000000000000000
    PCM Polarization Energy =               0.0000000000000000
    EFP Energy =                            0.0000000000000000
    Total Energy =                       -501.0435380858496046
    Molecular point group: c1
  Basis Set: 6-31G*
  Basis Set:

  -Total Gradient:
     Atom            X                  Y                   Z
    ------   -----------------  -----------------  -----------------
       1       -0.000001663382    -0.000014326163    -0.000006351872
       2        0.000000672255     0.000026162004    -0.000000088937
       3       -0.000075687987    -0.000074110950    -0.000099481439
       4       -0.000000701636    -0.000009509665     0.000003292933
       5        0.000117879282     0.000087612269     0.000022360521
       6        0.000044325783     0.000050141223     0.000082574842
       7        0.000001058210    -0.000002597429     0.000002051939
       8        0.000001386349    -0.000003847590     0.000002999713
       9       -0.000082858860    -0.000056620704    -0.000008496526
      10       -0.000000589183    -0.000005293164    -0.000002007424
      11       -0.000000679126     0.000002658913     0.000001820818
      12       -0.000003536942    -0.000005395068    -0.000000708443
      13       -0.000000479951     0.000002714005     0.000012173724
      14       -0.000001805944     0.000002189242    -0.000005395785
      15       -0.000003370805    -0.000002723172     0.000000100988
      16        0.000001872384     0.000001760105     0.000000800665
      17       -0.000001878355     0.000001627358    -0.000004760549
      18        0.000002706760     0.000002531303    -0.000000951843
      19       -0.000000295936    -0.000000335672    -0.000001853553
      20        0.000002103603    -0.000004129162     0.000006288613
      21        0.000000486949     0.000002392463    -0.000000756728
      22       -0.000001012999    -0.000000469870    -0.000002244033
      23        0.000001224671    -0.000000866054     0.000001226177
      24        0.000001786567    -0.000001182395    -0.000001805869
      25       -0.000002367654     0.000001435227     0.000001848139
      26        0.000003453547     0.000001820977    -0.000009087274
      27       -0.000000725890    -0.000000877916     0.000001509359
      28        0.000000021261    -0.000000997720     0.000003797449
      29       -0.000001322984     0.000000237605     0.000001144388

  **** Optimization is complete! (in 10 steps) ****
    Final optimized geometry and variables:
    Molecular point group: c1

    Geometry (in Angstrom), charge = 0, multiplicity = 1:

    O            2.047425685299     0.878289959524     1.643771684554
    C            2.183668939228     0.003480165646     0.849632432302
    C            1.898112198572     0.106318029083    -0.630340230892
    O            2.648489782370    -1.197465709396     1.168266023969
    C            1.070837570562     1.332716936427    -1.018536990921
    H            2.868895074199     0.142392464187    -1.119738596164
    H            1.440461556815    -0.820541117210    -0.954147766986
    C           -0.388517714577     1.316695899601    -0.546626205203
    H            1.092918337432     1.422885484158    -2.101981674293
    H            1.559226912516     2.215097895126    -0.620819155129
    C           -1.261361719722     0.241070154375    -1.199959627207
    H           -0.819244801453     2.291206888866    -0.765251093464
    H           -0.418555923829     1.210372970333     0.533589471021
    C           -2.727837800193     0.326718750739    -0.771545092785
    H           -1.198000927141     0.333888448096    -2.283310212220
    H           -0.883457092464    -0.749675538226    -0.956841260219
    C           -3.610666054152    -0.745817635604    -1.412155167972
    H           -3.119256279195     1.310832238591    -1.023676681534
    H           -2.791183072712     0.243444634612     0.312128814042
    C           -5.073798240587    -0.651450723347    -0.980711655450
    H           -3.548236836837    -0.663873072610    -2.495304866999
    H           -3.223069358110    -1.730305488194    -1.158366763928
    H           -5.673784965855    -1.424743172349    -1.450581150903
    H           -5.501339814762     0.309609269078    -1.252359674771
    H           -5.173194387093    -0.763720670548     0.095271325890
    C            3.002841405087    -1.411353521305     2.522585370211
    H            3.783765860229    -0.727977695655     2.823697235305
    H            3.354938159907    -2.429610738641     2.578107103579
    H            2.145022640893    -1.275970730602     3.165393667770

  Mulliken Charges: (a.u.)
   Center  Symbol    Alpha    Beta     Spin     Total
       1     O     4.28718  4.28718  0.00000 -0.57435
       2     C     2.60598  2.60598  0.00000  0.78805
       3     C     3.21097  3.21097  0.00000 -0.42195
       4     O     4.30627  4.30627  0.00000 -0.61255
       5     C     3.15615  3.15615  0.00000 -0.31231
       6     H     0.39808  0.39808  0.00000  0.20384
       7     H     0.39877  0.39877  0.00000  0.20246
       8     C     3.15989  3.15989  0.00000 -0.31977
       9     H     0.41979  0.41979  0.00000  0.16043
      10     H     0.40602  0.40602  0.00000  0.18796
      11     C     3.15462  3.15462  0.00000 -0.30925
      12     H     0.42032  0.42032  0.00000  0.15937
      13     H     0.40964  0.40964  0.00000  0.18072
      14     C     3.15015  3.15015  0.00000 -0.30031
      15     H     0.42485  0.42485  0.00000  0.15030
      16     H     0.42522  0.42522  0.00000  0.14957
      17     C     3.15131  3.15131  0.00000 -0.30263
      18     H     0.42359  0.42359  0.00000  0.15283
      19     H     0.42294  0.42294  0.00000  0.15413
      20     C     3.23926  3.23926  0.00000 -0.47852
      21     H     0.42348  0.42348  0.00000  0.15304
      22     H     0.42368  0.42368  0.00000  0.15264
      23     H     0.41970  0.41970  0.00000  0.16061
      24     H     0.42170  0.42170  0.00000  0.15660
      25     H     0.42163  0.42163  0.00000  0.15675
      26     C     3.09246  3.09246  0.00000 -0.18493
      27     H     0.40908  0.40908  0.00000  0.18184
      28     H     0.40837  0.40837  0.00000  0.18326
      29     H     0.40891  0.40891  0.00000  0.18217

   Total alpha = 44.00000, Total beta = 44.00000, Total charge =  0.00000
