                              Psi4 1.0.54 Driver

  ==> Input File <==

--------------------------------------------------------------------------
set {
	reference rhf
	basis cc-pvtz
}

set_num_threads( 4 )
memory 2 gb

molecule MOL {
0 1

H	 -3.162190	 0.493205	 -0.000107
C	 -2.363908	 -0.234727	 0.000005
O	 -1.158738	 0.454634	 -0.000087
H	 -2.464314	 -0.863616	 -0.882153
H	 -2.464327	 -0.863359	 0.882345
C	 -0.064145	 -0.297517	 0.419974
C	 1.181174	 0.564736	 0.374205
H	 0.058914	 -1.169667	 -0.222560
H	 -0.229660	 -0.665042	 1.432976
C	 2.428380	 -0.189425	 0.821496
H	 1.309776	 0.932345	 -0.637848
H	 1.023511	 1.432919	 1.004563
H	 2.618696	 -1.049563	 0.188227
H	 3.302026	 0.449287	 0.778944
H	 2.330643	 -0.545380	 1.841698

	symmetry c1
}
set optking {
	frozen_dihedral = ("
		6 3 2 4
	")
}

ee,wfn = optimize('scf', return_wfn=True)
oeprop( wfn, 'DIPOLE', 'QUADRUPOLE', 'MULLIKEN_CHARGES')
f=open( 'psi4out.xyz', 'w' )
f.write( "15  " )
f.write( str(ee) + "\n" )
f.write( MOL.save_string_xyz() )
f.close()
--------------------------------------------------------------------------

    Molecular point group: c1
  Charge       = 0
  Multiplicity = 1
  Basis Set: CC-PVTZ
  Basis Set:
  @DF-RHF Final Energy:  -232.22734162936351
    Total Energy =                       -232.2273416293635364
    Molecular point group: c1
  Basis Set: CC-PVTZ
  Basis Set:
  Basis Set: CC-PVTZ
  Basis Set:
  @DF-RHF Final Energy:  -232.22738227888536
    Total Energy =                       -232.2273822788851589
  Basis Set: CC-PVTZ
  Basis Set:
  Charge       = 0
  Multiplicity = 1
  Basis Set: CC-PVTZ
  Basis Set:

    Orbital Energies (a.u.)
    -----------------------

    Doubly Occupied:

       1A    -20.546781     2A    -11.264510     3A    -11.261586
       4A    -11.212638     5A    -11.210663     6A     -1.380697
       7A     -1.058396     8A     -0.956229     9A     -0.877243
      10A     -0.809429    11A     -0.676306    12A     -0.655321
      13A     -0.632091    14A     -0.608618    15A     -0.564707
      16A     -0.542328    17A     -0.503526    18A     -0.489821
      19A     -0.478658    20A     -0.462694    21A     -0.415517

  @DF-RHF Final Energy:  -232.22738685423977

   => Energetics <=

    Nuclear Repulsion Energy =            189.9169081715020013
    One-Electron Energy =                -691.0730744319303085
    Two-Electron Energy =                 268.9287794061887098
    DFT Exchange-Correlation Energy =       0.0000000000000000
    Empirical Dispersion Energy =           0.0000000000000000
    PCM Polarization Energy =               0.0000000000000000
    EFP Energy =                            0.0000000000000000
    Total Energy =                       -232.2273868542396258
    Molecular point group: c1
  Basis Set: CC-PVTZ
  Basis Set:

  -Total Gradient:
     Atom            X                  Y                   Z
    ------   -----------------  -----------------  -----------------
       1        0.000037237551    -0.000008921990     0.000000850880
       2        0.001195128197    -0.002108796288     0.002194714488
       3        0.000147051104    -0.000234361640    -0.002887862527
       4       -0.001047918478     0.001822680525    -0.001169287409
       5        0.000012731091     0.000016211014     0.000026492962
       6       -0.000276037606     0.000467021157     0.001910353164
       7       -0.000051664897     0.000030151942    -0.000033682700
       8       -0.000000023741     0.000012855245    -0.000017552416
       9        0.000006036691    -0.000000456263    -0.000005397273
      10       -0.000030230015    -0.000028375066    -0.000017079465
      11        0.000021588342     0.000014624085    -0.000006219773
      12       -0.000000397665     0.000010282168     0.000002804594
      13        0.000002763861    -0.000003768536     0.000002324771
      14       -0.000013756155     0.000009673245    -0.000004236946
      15       -0.000002508279     0.000001180404     0.000003777649

  **** Optimization is complete! (in 3 steps) ****
    Final optimized geometry and variables:
    Molecular point group: c1

    Geometry (in Angstrom), charge = 0, multiplicity = 1:

    H           -3.138063631253     0.447035362482    -0.329269908608
    C           -2.340788767285    -0.283306340539    -0.321257791943
    O           -1.133139557706     0.403979801021    -0.309998574075
    H           -2.439077160937    -0.899315484255    -1.212341111267
    H           -2.456441632909    -0.911486392727     0.558116379675
    C           -0.034287414305    -0.347745953348     0.100609695985
    C            1.208560529951     0.517601069005     0.047125758296
    H            0.088899424256    -1.219419066372    -0.543047785341
    H           -0.193148280038    -0.715692715558     1.114049715253
    C            2.459174770270    -0.231959206953     0.492835815661
    H            1.333216648253     0.882294509313    -0.966533420984
    H            1.050552804244     1.387567966245     0.675101902157
    H            2.649445698748    -1.093985003423    -0.137949078014
    H            3.331201697025     0.408721789815     0.445053144441
    H            2.365690840567    -0.584430731220     1.514711614750

  Mulliken Charges: (a.u.)
   Center  Symbol    Alpha    Beta     Spin     Total
       1     H     0.44882  0.44882  0.00000  0.10235
       2     C     3.03268  3.03268  0.00000 -0.06536
       3     O     4.17270  4.17270  0.00000 -0.34539
       4     H     0.46768  0.46768  0.00000  0.06463
       5     H     0.47401  0.47401  0.00000  0.05197
       6     C     2.95608  2.95608  0.00000  0.08784
       7     C     3.08062  3.08062  0.00000 -0.16123
       8     H     0.47693  0.47693  0.00000  0.04614
       9     H     0.47444  0.47444  0.00000  0.05112
      10     C     3.15581  3.15581  0.00000 -0.31162
      11     H     0.45101  0.45101  0.00000  0.09798
      12     H     0.45120  0.45120  0.00000  0.09760
      13     H     0.45582  0.45582  0.00000  0.08835
      14     H     0.44627  0.44627  0.00000  0.10745
      15     H     0.45591  0.45591  0.00000  0.08817

   Total alpha = 21.00000, Total beta = 21.00000, Total charge = -0.00000

*** Psi4 exiting successfully. Buy a developer a beer!
