                              Psi4 1.0.54 Driver

  ==> Input File <==

--------------------------------------------------------------------------
set {
	reference rhf
	basis cc-pvtz
}

set_num_threads( 4 )
memory 2 gb

molecule MOL {
0 1

O	 -2.081319	 -0.951530	 -0.502732
N	 -1.613558	 0.006676	 0.014756
C	 -0.329345	 -0.171618	 0.743966
O	 -2.068523	 1.100482	 -0.024385
C	 0.472940	 1.122387	 0.689399
H	 0.183082	 -0.981703	 0.252439
H	 -0.593664	 -0.437229	 1.753826
C	 1.801335	 0.984775	 1.428720
H	 0.650994	 1.382599	 -0.347493
H	 -0.115029	 1.919678	 1.129124
C	 2.621570	 2.269527	 1.395478
H	 2.377569	 0.176473	 0.988218
H	 1.612714	 0.702985	 2.460429
H	 2.854382	 2.558229	 0.376583
H	 2.082846	 3.089171	 1.857729
H	 3.556990	 2.145450	 1.927228

	symmetry c1
}
set optking {
	frozen_dihedral = ("
		5 3 2 1
	")
}

ee,wfn = optimize('scf', return_wfn=True)
oeprop( wfn, 'DIPOLE', 'QUADRUPOLE', 'MULLIKEN_CHARGES')
f=open( 'psi4out.xyz', 'w' )
f.write( "16  " )
f.write( str(ee) + "\n" )
f.write( MOL.save_string_xyz() )
f.close()
--------------------------------------------------------------------------

    Molecular point group: c1
  Charge       = 0
  Multiplicity = 1
  Basis Set: CC-PVTZ
  Basis Set:
  @DF-RHF Final Energy:  -360.90715735643704
    Total Energy =                       -360.9071573564370397
    Molecular point group: c1
  Basis Set: CC-PVTZ
  Basis Set:
  Basis Set: CC-PVTZ
  Basis Set:
  @DF-RHF Final Energy:  -360.65170348995105
    Total Energy =                       -360.6517034899510463
  Basis Set: CC-PVTZ
  Basis Set:
  Basis Set: CC-PVTZ
  Basis Set:
  @DF-RHF Final Energy:  -360.79968330239882
    Total Energy =                       -360.7996833023989893
  Basis Set: CC-PVTZ
  Basis Set:
  Basis Set: CC-PVTZ
  Basis Set:
  @DF-RHF Final Energy:  -360.89363836837254
    Total Energy =                       -360.8936383683730469
  Basis Set: CC-PVTZ
  Basis Set:
  @DF-RHF Final Energy:  -360.90404261291161
    Total Energy =                       -360.9040426129114394
  @DF-RHF Final Energy:  -360.90715593112162
    Total Energy =                       -360.9071559311215651
  @DF-RHF Final Energy:  -360.90787172892016
    Total Energy =                       -360.9078717289202700
  @DF-RHF Final Energy:  -360.90853789141192
    Total Energy =                       -360.9085378914119815
  Basis Set: CC-PVTZ
  Basis Set:
  @DF-RHF Final Energy:  -360.90868116392357
    Total Energy =                       -360.9086811639237453
  Basis Set: CC-PVTZ
  Basis Set:
  Basis Set: CC-PVTZ
  Basis Set:
  @DF-RHF Final Energy:  -360.90868225272897
    Total Energy =                       -360.9086822527292497
  Basis Set: CC-PVTZ
  Basis Set:
  Basis Set: CC-PVTZ
  Basis Set:
  @DF-RHF Final Energy:  -360.90868377982434
    Total Energy =                       -360.9086837798242868
  Basis Set: CC-PVTZ
  Basis Set:
  Charge       = 0
  Multiplicity = 1
  Basis Set: CC-PVTZ
  Basis Set:

    Orbital Energies (a.u.)
    -----------------------

    Doubly Occupied:

       1A    -20.590805     2A    -20.589521     3A    -15.837538
       4A    -11.297792     5A    -11.244817     6A    -11.240075
       7A    -11.224493     8A     -1.636346     9A     -1.420387
      10A     -1.134386    11A     -1.058910    12A     -0.948878
      13A     -0.843494    14A     -0.822991    15A     -0.759894
      16A     -0.747555    17A     -0.730330    18A     -0.669870
      19A     -0.615324    20A     -0.604101    21A     -0.566026
      22A     -0.536943    23A     -0.520800    24A     -0.502220
      25A     -0.495539    26A     -0.485270    27A     -0.469393
      28A     -0.453694

  @DF-RHF Final Energy:  -360.90868388305444

   => Energetics <=

    Nuclear Repulsion Energy =            312.5189672438068555
    One-Electron Energy =               -1110.7605212050777936
    Two-Electron Energy =                 437.3328700782163878
    DFT Exchange-Correlation Energy =       0.0000000000000000
    Empirical Dispersion Energy =           0.0000000000000000
    PCM Polarization Energy =               0.0000000000000000
    EFP Energy =                            0.0000000000000000
    Total Energy =                       -360.9086838830545503
    Molecular point group: c1
  Basis Set: CC-PVTZ
  Basis Set:

  -Total Gradient:
     Atom            X                  Y                   Z
    ------   -----------------  -----------------  -----------------
       1        0.000005975879    -0.000186197963     0.000413899023
       2       -0.000024372667     0.000248726159    -0.000442295454
       3        0.000089888060    -0.000091605274    -0.000321849841
       4        0.000004552085     0.000012826953     0.000014464923
       5       -0.000065165317     0.000008926679     0.000332486792
       6       -0.000007677909    -0.000002734941     0.000001133036
       7       -0.000002817787    -0.000000892369    -0.000000092606
       8       -0.000003400947     0.000001625722    -0.000001346123
       9        0.000003406018     0.000000533189     0.000003960436
      10       -0.000002714094     0.000005038836    -0.000000645583
      11        0.000004592754     0.000003230926     0.000001734992
      12       -0.000001696879     0.000002757042     0.000000894025
      13       -0.000001191735    -0.000001552662    -0.000001204053
      14        0.000000332140    -0.000000543322     0.000000537324
      15        0.000001858658    -0.000002606510    -0.000002905896
      16       -0.000001568257     0.000002467537     0.000001229005

  **** Optimization is complete! (in 12 steps) ****
    Final optimized geometry and variables:
    Molecular point group: c1

    Geometry (in Angstrom), charge = 0, multiplicity = 1:

    O           -1.257586804863    -2.228283773261    -0.656126939589
    N           -1.126397460311    -1.168638773139    -0.142044351859
    C            0.274756181674    -0.705891299243     0.086490290505
    O           -2.011166849820    -0.475293671667     0.231109678498
    C            0.421164801418     0.802829912515     0.044117957237
    H            0.863091642641    -1.209242980091    -0.661823736419
    H            0.532945663481    -1.107606687644     1.057249050863
    C            1.877196747549     1.215408965814     0.252076222234
    H            0.067563732466     1.170428557184    -0.913062708387
    H           -0.205641558299     1.248438769681     0.803571739506
    C            2.063571031487     2.728146590927     0.215341579414
    H            2.499525605058     0.756915481323    -0.510955715529
    H            2.228914109707     0.832292509961     1.205947585579
    H            1.751712103827     3.137082215145    -0.739316414770
    H            1.479306811338     3.212476575606     0.989728950183
    H            3.102376570330     2.994956119002     0.367013869809

  Mulliken Charges: (a.u.)
   Center  Symbol    Alpha    Beta     Spin     Total
       1     O     4.17196  4.17196  0.00000 -0.34392
       2     N     3.27419  3.27419  0.00000  0.45162
       3     C     3.04803  3.04803  0.00000 -0.09606
       4     O     4.17075  4.17075  0.00000 -0.34149
       5     C     3.09665  3.09665  0.00000 -0.19330
       6     H     0.43095  0.43095  0.00000  0.13809
       7     H     0.43562  0.43562  0.00000  0.12876
       8     C     3.09424  3.09424  0.00000 -0.18848
       9     H     0.44336  0.44336  0.00000  0.11329
      10     H     0.43409  0.43409  0.00000  0.13182
      11     C     3.14796  3.14796  0.00000 -0.29593
      12     H     0.45112  0.45112  0.00000  0.09776
      13     H     0.45166  0.45166  0.00000  0.09668
      14     H     0.45217  0.45217  0.00000  0.09566
      15     H     0.45170  0.45170  0.00000  0.09660
      16     H     0.44556  0.44556  0.00000  0.10889

   Total alpha = 28.00000, Total beta = 28.00000, Total charge =  0.00000

*** Psi4 exiting successfully. Buy a developer a beer!
