  ==> Input File <==

--------------------------------------------------------------------------
set {
	reference rhf
	basis 6-31G*
}

set_num_threads( 1 )
memory 2 gb

molecule MOL {
0 1

O	 -3.039891	 0.864547	 -0.858719
C	 -2.668563	 0.129746	 -0.000350
C	 -3.494899	 -0.239278	 1.204747
O	 -1.481751	 -0.454642	 0.000584
H	 -4.419688	 -0.691694	 0.867186
H	 -2.970848	 -0.919605	 1.859700
H	 -3.750124	 0.666252	 1.742108
C	 -0.334255	 0.388708	 0.000906
C	 0.891947	 -0.504646	 0.000751
H	 -0.365390	 1.025305	 -0.873475
H	 -0.365484	 1.024911	 0.875569
C	 2.191998	 0.301789	 0.000897
H	 0.855148	 -1.151283	 -0.871571
H	 0.855132	 -1.151660	 0.872805
C	 3.441114	 -0.581407	 0.000108
H	 2.215074	 0.954890	 -0.869742
H	 2.215465	 0.953923	 0.872248
C	 4.739576	 0.224112	 -0.001102
H	 3.419457	 -1.233487	 -0.870178
H	 3.420834	 -1.233096	 0.870717
H	 4.804918	 0.861552	 -0.878265
H	 5.606527	 -0.429058	 -0.001824
H	 4.806469	 0.861674	 0.875853

	symmetry c1
}
set optking {
	frozen_dihedral = ("
		13 9 8 10,
		2 4 8 10,
		16 12 9 13,
		19 15 12 16
	")
}

ee = energy('scf')
oeprop('DIPOLE', 'QUADRUPOLE', 'MULLIKEN_CHARGES')
f=open( 'psi4out.xyz', 'w' )
f.write( "23  " )
f.write( str(ee) + "\n" )
f.write( MOL.save_string_xyz() )
f.close()
--------------------------------------------------------------------------

    Molecular point group: c1

    Geometry (in Angstrom), charge = 0, multiplicity = 1:

       Center              X                  Y                   Z               Mass
    ------------   -----------------  -----------------  -----------------  -----------------
           O         -3.050152320276     0.843642233185    -0.899086645864    15.994914619560
           C         -2.678824320276     0.108841233185    -0.040717645864    12.000000000000
           C         -3.505160320276    -0.260182766815     1.164379354136    12.000000000000
           O         -1.492012320276    -0.475546766815    -0.039783645864    15.994914619560
           H         -4.429949320276    -0.712598766815     0.826818354136     1.007825032070
           H         -2.981109320276    -0.940509766815     1.819332354136     1.007825032070
           H         -3.760385320276     0.645347233185     1.701740354136     1.007825032070
           C         -0.344516320276     0.367803233185    -0.039461645864    12.000000000000
           C          0.881685679724    -0.525550766815    -0.039616645864    12.000000000000
           H         -0.375651320276     1.004400233185    -0.913842645864     1.007825032070
           H         -0.375745320276     1.004006233185     0.835201354136     1.007825032070
           C          2.181736679724     0.280884233185    -0.039470645864    12.000000000000
           H          0.844886679724    -1.172187766815    -0.911938645864     1.007825032070
           H          0.844870679724    -1.172564766815     0.832437354136     1.007825032070
           C          3.430852679724    -0.602311766815    -0.040259645864    12.000000000000
           H          2.204812679724     0.933985233185    -0.910109645864     1.007825032070
           H          2.205203679724     0.933018233185     0.831880354136     1.007825032070
           C          4.729314679724     0.203207233185    -0.041469645864    12.000000000000
           H          3.409195679724    -1.254391766815    -0.910545645864     1.007825032070
           H          3.410572679724    -1.254000766815     0.830349354136     1.007825032070
           H          4.794656679724     0.840647233185    -0.918632645864     1.007825032070
           H          5.596265679724    -0.449962766815    -0.042191645864     1.007825032070
           H          4.796207679724     0.840769233185     0.835485354136     1.007825032070

  Charge       = 0
  Multiplicity = 1
  Basis Set: 6-31G*
  Basis Set:

    Orbital Energies (a.u.)
    -----------------------

    Doubly Occupied:

       1A    -20.587273     2A    -20.547015     3A    -11.374599
       4A    -11.290017     5A    -11.231519     6A    -11.226840
       7A    -11.226006     8A    -11.223184     9A    -11.214251
      10A     -1.463055    11A     -1.362398    12A     -1.095732
      13A     -1.040278    14A     -1.004838    15A     -0.934571
      16A     -0.843792    17A     -0.805126    18A     -0.775551
      19A     -0.697960    20A     -0.682693    21A     -0.658426
      22A     -0.648813    23A     -0.613558    24A     -0.590041
      25A     -0.583596    26A     -0.572486    27A     -0.556275
      28A     -0.549656    29A     -0.515363    30A     -0.502587
      31A     -0.490065    32A     -0.479252    33A     -0.473140
      34A     -0.470201    35A     -0.448502    36A     -0.432626

  @DF-RHF Final Energy:  -422.96341951331993

   => Energetics <=

    Nuclear Repulsion Energy =            449.4773051503810279
    One-Electron Energy =               -1466.4590615687236550
    Two-Electron Energy =                 594.0183369050232614
    DFT Exchange-Correlation Energy =       0.0000000000000000
    Empirical Dispersion Energy =           0.0000000000000000
    PCM Polarization Energy =               0.0000000000000000
    EFP Energy =                            0.0000000000000000
    Total Energy =                       -422.9634195133194225

  Mulliken Charges: (a.u.)
   Center  Symbol    Alpha    Beta     Spin     Total
       1     O     4.26668  4.26668  0.00000 -0.53336
       2     C     2.61899  2.61899  0.00000  0.76202
       3     C     3.29267  3.29267  0.00000 -0.58535
       4     O     4.31755  4.31755  0.00000 -0.63510
       5     H     0.39659  0.39659  0.00000  0.20682
       6     H     0.40136  0.40136  0.00000  0.19729
       7     H     0.39851  0.39851  0.00000  0.20298
       8     C     2.99694  2.99694  0.00000  0.00613
       9     C     3.16419  3.16419  0.00000 -0.32838
      10     H     0.40557  0.40557  0.00000  0.18885
      11     H     0.42123  0.42123  0.00000  0.15754
      12     C     3.16090  3.16090  0.00000 -0.32180
      13     H     0.40980  0.40980  0.00000  0.18040
      14     H     0.41423  0.41423  0.00000  0.17155
      15     C     3.15162  3.15162  0.00000 -0.30323
      16     H     0.41982  0.41982  0.00000  0.16035
      17     H     0.42229  0.42229  0.00000  0.15543
      18     C     3.23994  3.23994  0.00000 -0.47989
      19     H     0.42036  0.42036  0.00000  0.15928
      20     H     0.42142  0.42142  0.00000  0.15716
      21     H     0.42049  0.42049  0.00000  0.15903
      22     H     0.41759  0.41759  0.00000  0.16482
      23     H     0.42127  0.42127  0.00000  0.15746

   Total alpha = 36.00000, Total beta = 36.00000, Total charge =  0.00000
