  ==> Input File <==

--------------------------------------------------------------------------
set {
	reference rhf
	basis cc-pvtz
}

set_num_threads( 4 )
memory 2 gb

molecule MOL {
0 1

H	 -1.835082	 1.385983	 0.000069
C	 -1.300516	 0.441153	 -0.000028
O	 -0.006604	 0.654344	 -0.000106
O	 -1.828920	 -0.612308	 0.000113
C	 0.824647	 -0.315710	 0.630640
C	 2.255721	 0.148870	 0.500659
H	 0.670457	 -1.272168	 0.151713
H	 0.528033	 -0.409906	 1.665585
H	 2.537619	 0.242414	 -0.540375
H	 2.916048	 -0.569319	 0.971856
H	 2.394476	 1.109030	 0.981086

	symmetry c1
}
set optking {
	frozen_dihedral = ("
		5 3 2 4
	")
}

ee = optimize('scf')
oeprop('DIPOLE', 'QUADRUPOLE', 'MULLIKEN_CHARGES')
f=open( 'psi4out.xyz', 'w' )
f.write( "11  " )
f.write( str(ee) + "\n" )
f.write( MOL.save_string_xyz() )
f.close()
--------------------------------------------------------------------------

    Molecular point group: c1
  Charge       = 0
  Multiplicity = 1
  Basis Set: CC-PVTZ
  Basis Set:
  @DF-RHF Final Energy:  -266.92663113672307
    Total Energy =                       -266.9266311367230173
    Molecular point group: c1
  Basis Set: CC-PVTZ
  Basis Set:
  Basis Set: CC-PVTZ
  Basis Set:
  @DF-RHF Final Energy:  -266.91954237720415
    Total Energy =                       -266.9195423772040954
  Basis Set: CC-PVTZ
  Basis Set:
  Basis Set: CC-PVTZ
  Basis Set:
  @DF-RHF Final Energy:  -266.92695450041180
    Total Energy =                       -266.9269545004116253
  Basis Set: CC-PVTZ
  Basis Set:
  Basis Set: CC-PVTZ
  Basis Set:
  @DF-RHF Final Energy:  -266.92713667284715
    Total Energy =                       -266.9271366728472117
  Basis Set: CC-PVTZ
  Basis Set:
  Basis Set: CC-PVTZ
  Basis Set:
  @DF-RHF Final Energy:  -266.92713873357866
    Total Energy =                       -266.9271387335786585
  Basis Set: CC-PVTZ
  Basis Set:
  Charge       = 0
  Multiplicity = 1
  Basis Set: CC-PVTZ
  Basis Set:

    Orbital Energies (a.u.)
    -----------------------

    Doubly Occupied:

       1A    -20.600812     2A    -20.548517     3A    -11.370854
       4A    -11.291982     5A    -11.225603     6A     -1.476403
       7A     -1.378088     8A     -1.053182     9A     -0.901638
      10A     -0.808741    11A     -0.740995    12A     -0.691240
      13A     -0.680052    14A     -0.603414    15A     -0.569480
      16A     -0.558959    17A     -0.521556    18A     -0.515626
      19A     -0.465173    20A     -0.455332

  @DF-RHF Final Energy:  -266.92713939391092

   => Energetics <=

    Nuclear Repulsion Energy =            179.1073047739781998
    One-Electron Energy =                -719.1535995663447238
    Two-Electron Energy =                 273.1191553984556890
    DFT Exchange-Correlation Energy =       0.0000000000000000
    Empirical Dispersion Energy =           0.0000000000000000
    PCM Polarization Energy =               0.0000000000000000
    EFP Energy =                            0.0000000000000000
    Total Energy =                       -266.9271393939108634
    Molecular point group: c1
  Basis Set: CC-PVTZ
  Basis Set:

  -Total Gradient:
     Atom            X                  Y                   Z
    ------   -----------------  -----------------  -----------------
       1        0.000012865151    -0.000013102275     0.000005519859
       2        0.000865678307     0.002709493901     0.016844642593
       3       -0.000199050808    -0.005881875101    -0.013564803440
       4       -0.000561283333    -0.000554060430    -0.009119917100
       5       -0.000118477778     0.003731377534     0.005854939356
       6        0.000003262814     0.000014392635    -0.000006673234
       7       -0.000011687072    -0.000005757829     0.000002013854
       8        0.000004248125     0.000000871058    -0.000023728892
       9        0.000001315351    -0.000001273078     0.000006254469
      10        0.000000454170    -0.000003281385     0.000001763261
      11        0.000002675076     0.000003214973    -0.000000010727

  **** Optimization is complete! (in 6 steps) ****
    Final optimized geometry and variables:
    Molecular point group: c1

    Geometry (in Angstrom), charge = 0, multiplicity = 1:

    H           -1.803425992046     1.346479040389    -0.311363417063
    C           -1.290787685341     0.394630295013    -0.207578383522
    O            0.012535952506     0.562201023025    -0.287842594323
    O           -1.849350991050    -0.638179274054    -0.121764689090
    C            0.849179393118    -0.400224916037     0.349824067618
    C            2.272688581721     0.096059908955     0.264362384818
    H            0.732888921165    -1.356000068730    -0.140106023711
    H            0.527598508838    -0.508222065309     1.377069381957
    H            2.578200310937     0.206322367893    -0.768259722324
    H            2.935745186182    -0.613791409461     0.744433736372
    H            2.378221357293     1.053887429891     0.757578259243

  Mulliken Charges: (a.u.)
   Center  Symbol    Alpha    Beta     Spin     Total
       1     H     0.45179  0.45179  0.00000  0.09641
       2     C     2.84370  2.84370  0.00000  0.31260
       3     O     4.14848  4.14848  0.00000 -0.29696
       4     O     4.18891  4.18891  0.00000 -0.37782
       5     C     2.97196  2.97196  0.00000  0.05608
       6     C     3.13314  3.13314  0.00000 -0.26628
       7     H     0.44900  0.44900  0.00000  0.10201
       8     H     0.45843  0.45843  0.00000  0.08314
       9     H     0.44904  0.44904  0.00000  0.10193
      10     H     0.45454  0.45454  0.00000  0.09093
      11     H     0.45101  0.45101  0.00000  0.09797

   Total alpha = 20.00000, Total beta = 20.00000, Total charge = -0.00000
