  ==> Input File <==

--------------------------------------------------------------------------
set {
	reference rhf
	basis cc-pvtz
}

set_num_threads( 4 )
memory 2 gb

molecule MOL {
0 1

H	 0.555069	 -5.472705	 -2.315369
C	 0.742488	 -4.621586	 -1.671491
C	 -0.439228	 -3.658176	 -1.677866
H	 0.933912	 -4.999805	 -0.672818
H	 1.648719	 -4.137606	 -2.020096
C	 -0.217837	 -2.445733	 -0.785714
H	 -1.338561	 -4.169004	 -1.352259
H	 -0.625143	 -3.323527	 -2.695718
N	 -1.364900	 -1.563749	 -0.795089
H	 -0.056629	 -2.777142	 0.235730
H	 0.699210	 -1.933399	 -1.091693
C	 -1.215959	 -0.382435	 0.027143
H	 -1.576851	 -1.296505	 -1.733693
C	 -2.451944	 0.502410	 -0.038737
H	 -1.059616	 -0.703795	 1.052551
H	 -0.335027	 0.204549	 -0.249415
C	 -3.752217	 -0.292550	 0.005776
H	 -2.407325	 1.093801	 -0.946480
H	 -2.431979	 1.206234	 0.790023
H	 -3.817783	 -0.982946	 -0.828547
H	 -4.612613	 0.364348	 -0.042306
H	 -3.830160	 -0.871666	 0.919868

	symmetry c1
}
set optking {
	frozen_dihedral = ("
		15 12 14 18
	")
}

ee = optimize('scf')
oeprop('DIPOLE', 'QUADRUPOLE', 'MULLIKEN_CHARGES')
f=open( 'psi4out.xyz', 'w' )
f.write( "22  " )
f.write( str(ee) + "\n" )
f.write( MOL.save_string_xyz() )
f.close()
--------------------------------------------------------------------------

    Molecular point group: c1
  Charge       = 0
  Multiplicity = 1
  Basis Set: CC-PVTZ
  Basis Set:
  @DF-RHF Final Energy:  -290.48652761148003
    Total Energy =                       -290.4865276114799713
    Molecular point group: c1
  Basis Set: CC-PVTZ
  Basis Set:
  Basis Set: CC-PVTZ
  Basis Set:
  @DF-RHF Final Energy:  -290.48743543109305
    Total Energy =                       -290.4874354310934450
  Basis Set: CC-PVTZ
  Basis Set:
  Basis Set: CC-PVTZ
  Basis Set:
  @DF-RHF Final Energy:  -290.48782084666544
    Total Energy =                       -290.4878208466657838
  Basis Set: CC-PVTZ
  Basis Set:
  Basis Set: CC-PVTZ
  Basis Set:
  @DF-RHF Final Energy:  -290.48784087390368
    Total Energy =                       -290.4878408739037923
  Basis Set: CC-PVTZ
  Basis Set:
  Charge       = 0
  Multiplicity = 1
  Basis Set: CC-PVTZ
  Basis Set:

    Orbital Energies (a.u.)
    -----------------------

    Doubly Occupied:

       1A    -15.529001     2A    -11.236835     3A    -11.236817
       4A    -11.212448     5A    -11.212281     6A    -11.207903
       7A    -11.199771     8A     -1.208350     9A     -1.058920
      10A     -1.023141    11A     -0.927367    12A     -0.878686
      13A     -0.806789    14A     -0.789641    15A     -0.662710
      16A     -0.633167    17A     -0.615976    18A     -0.609810
      19A     -0.573886    20A     -0.566044    21A     -0.535069
      22A     -0.528881    23A     -0.503469    24A     -0.488977
      25A     -0.482725    26A     -0.470358    27A     -0.464146
      28A     -0.451395    29A     -0.360962

  @DF-RHF Final Energy:  -290.48784174870895

   => Energetics <=

    Nuclear Repulsion Energy =            318.1874753353549181
    One-Electron Energy =               -1022.3995847961565460
    Two-Electron Energy =                 413.7242677120929102
    DFT Exchange-Correlation Energy =       0.0000000000000000
    Empirical Dispersion Energy =           0.0000000000000000
    PCM Polarization Energy =               0.0000000000000000
    EFP Energy =                            0.0000000000000000
    Total Energy =                       -290.4878417487087745
    Molecular point group: c1
  Basis Set: CC-PVTZ
  Basis Set:

  -Total Gradient:
     Atom            X                  Y                   Z
    ------   -----------------  -----------------  -----------------
       1       -0.000007392767     0.000009665629    -0.000001543233
       2        0.000005523242     0.000024273725     0.000006418493
       3       -0.000014755190     0.000010035954    -0.000013133145
       4       -0.000002784356    -0.000000603411     0.000000379251
       5        0.000006796231    -0.000001844103     0.000000828480
       6        0.000016367032    -0.000030000522     0.000037189036
       7       -0.000002259364     0.000006525051     0.000009422180
       8       -0.000002021619    -0.000006891329    -0.000008530192
       9       -0.000009306917    -0.000001682370    -0.000036236247
      10        0.000003504000     0.000000610575     0.000010504951
      11       -0.000014504104     0.000000827754    -0.000009810035
      12       -0.002840452734    -0.003755938795    -0.000329208031
      13       -0.000005673778    -0.000001908359    -0.000014567469
      14       -0.002270086625    -0.003294837816    -0.002644688946
      15        0.002754271357     0.003707203098     0.000726802289
      16        0.000002564184    -0.000010557869    -0.000010034990
      17        0.000012976128     0.000011931729     0.000038520806
      18        0.002386201519     0.003338013112     0.002244751130
      19       -0.000015664194     0.000011419724     0.000012111802
      20        0.000007757214    -0.000000140592    -0.000011228254
      21        0.000001911341    -0.000008679179    -0.000005213748
      22       -0.000012970602    -0.000007422006    -0.000002734128

  **** Optimization is complete! (in 5 steps) ****
    Final optimized geometry and variables:
    Molecular point group: c1

    Geometry (in Angstrom), charge = 0, multiplicity = 1:

    H            1.885525536492    -3.679651345365    -1.610283246854
    C            2.042245845503    -2.833455529958    -0.951880765768
    C            0.850695900575    -1.882952897790    -0.987445712047
    H            2.204871479015    -3.220088531851     0.048666861040
    H            2.953937426601    -2.335975260300    -1.265463927222
    C            1.029144936298    -0.678475122203    -0.075225000782
    H           -0.053074763275    -2.407274754395    -0.697565023685
    H            0.695266203079    -1.538922621301    -2.007294896661
    N           -0.125509791299     0.192550315431    -0.114015211997
    H            1.158443034710    -1.019170868371     0.947637736962
    H            1.950661994358    -0.153518115361    -0.344074613877
    C           -0.010112950937     1.364961686429     0.724054893866
    H           -0.306085139587     0.469562224396    -1.056911055080
    C           -1.227471567157     2.284287882083     0.648551291851
    H            0.141662028274     1.052494590069     1.752925191280
    H            0.875671278153     1.956341051520     0.473305896660
    C           -2.575061016332     1.585347048013     0.783800971052
    H           -1.183978801221     2.871327178132    -0.265746221159
    H           -1.124686674679     3.013573271957     1.447543576822
    H           -2.753860296726     0.897254945706    -0.030939576868
    H           -3.380216053329     2.311473804208     0.797641894210
    H           -2.623357249040     1.015721960607     1.705673438026

  Mulliken Charges: (a.u.)
   Center  Symbol    Alpha    Beta     Spin     Total
       1     H     0.44764  0.44764  0.00000  0.10472
       2     C     3.15383  3.15383  0.00000 -0.30765
       3     C     3.08073  3.08073  0.00000 -0.16146
       4     H     0.45470  0.45470  0.00000  0.09060
       5     H     0.45609  0.45609  0.00000  0.08782
       6     C     3.02021  3.02021  0.00000 -0.04043
       7     H     0.44888  0.44888  0.00000  0.10224
       8     H     0.45976  0.45976  0.00000  0.08048
       9     N     3.63915  3.63915  0.00000 -0.27830
      10     H     0.45945  0.45945  0.00000  0.08110
      11     H     0.47501  0.47501  0.00000  0.04998
      12     C     3.03768  3.03768  0.00000 -0.07536
      13     H     0.44384  0.44384  0.00000  0.11232
      14     C     3.09426  3.09426  0.00000 -0.18853
      15     H     0.45669  0.45669  0.00000  0.08662
      16     H     0.46640  0.46640  0.00000  0.06721
      17     C     3.13974  3.13974  0.00000 -0.27947
      18     H     0.45384  0.45384  0.00000  0.09232
      19     H     0.45214  0.45214  0.00000  0.09572
      20     H     0.45199  0.45199  0.00000  0.09602
      21     H     0.45201  0.45201  0.00000  0.09597
      22     H     0.45596  0.45596  0.00000  0.08808

   Total alpha = 29.00000, Total beta = 29.00000, Total charge = -0.00000
