                              Psi4 1.0.54 Driver

  ==> Input File <==

--------------------------------------------------------------------------
set {
	reference rhf
	basis cc-pvtz
}

set_num_threads( 4 )
memory 2 gb

molecule MOL {
0 1

H	 -3.853603	 -1.976959	 0.722283
C	 -2.784875	 -1.881301	 0.751371
C	 -2.054818	 -2.581696	 1.694825
C	 -2.142136	 -1.058530	 -0.154122
H	 -2.554385	 -3.220135	 2.397341
C	 -0.681534	 -2.458263	 1.731579
H	 -2.709207	 -0.515797	 -0.885384
C	 -0.767109	 -0.933886	 -0.118592
H	 -0.100907	 -2.993215	 2.455288
C	 -0.032615	 -1.634075	 0.825212
H	 -0.266255	 -0.297542	 -0.818407
C	 1.452813	 -1.534830	 0.906305
O	 1.968286	 -0.725612	 -0.000027
O	 2.110393	 -2.119594	 1.700546
C	 3.373556	 -0.568203	 0.000011
H	 3.695416	 -0.031588	 -0.879663
H	 3.782700	 -1.565294	 -0.000152
H	 3.695405	 -0.031851	 0.879862

	symmetry c1
}
set optking {
	frozen_dihedral = ("
		12 13 15 16
	")
}

ee,wfn = optimize('scf', return_wfn=True)
oeprop( wfn, 'DIPOLE', 'QUADRUPOLE', 'MULLIKEN_CHARGES')
f=open( 'psi4out.xyz', 'w' )
f.write( "18  " )
f.write( str(ee) + "\n" )
f.write( MOL.save_string_xyz() )
f.close()
--------------------------------------------------------------------------

    Molecular point group: c1
  Charge       = 0
  Multiplicity = 1
  Basis Set: CC-PVTZ
  Basis Set:
  @DF-RHF Final Energy:  -457.50845895405041
    Total Energy =                       -457.5084589540504112
    Molecular point group: c1
  Basis Set: CC-PVTZ
  Basis Set:
  Basis Set: CC-PVTZ
  Basis Set:
  @DF-RHF Final Energy:  -457.50891647645130
    Total Energy =                       -457.5089164764515317
  Basis Set: CC-PVTZ
  Basis Set:
  Basis Set: CC-PVTZ
  Basis Set:
  @DF-RHF Final Energy:  -457.51005120238534
    Total Energy =                       -457.5100512023857391
  Basis Set: CC-PVTZ
  Basis Set:
  Basis Set: CC-PVTZ
  Basis Set:
  @DF-RHF Final Energy:  -457.50978820288844
    Total Energy =                       -457.5097882028886715
  Basis Set: CC-PVTZ
  Basis Set:
  Basis Set: CC-PVTZ
  Basis Set:
  @DF-RHF Final Energy:  -457.51007543392871
    Total Energy =                       -457.5100754339288187
  Basis Set: CC-PVTZ
  Basis Set:
  Charge       = 0
  Multiplicity = 1
  Basis Set: CC-PVTZ
  Basis Set:

    Orbital Energies (a.u.)
    -----------------------

    Doubly Occupied:

       1A    -20.600905     2A    -20.534432     3A    -11.371863
       4A    -11.281134     5A    -11.245036     6A    -11.243542
       7A    -11.242745     8A    -11.240094     9A    -11.236102
      10A    -11.235341    11A     -1.476888    12A     -1.368508
      13A     -1.170792    14A     -1.051849    15A     -1.029088
      16A     -0.980573    17A     -0.863238    18A     -0.838474
      19A     -0.781229    20A     -0.745058    21A     -0.687920
      22A     -0.681683    23A     -0.676390    24A     -0.634123
      25A     -0.630082    26A     -0.601333    27A     -0.587585
      28A     -0.565439    29A     -0.531390    30A     -0.520331
      31A     -0.509541    32A     -0.502250    33A     -0.464046
      34A     -0.449472    35A     -0.350227    36A     -0.346287

  @DF-RHF Final Energy:  -457.51007702239656

   => Energetics <=

    Nuclear Repulsion Energy =            494.0028874556422807
    One-Electron Energy =               -1602.4759483836187428
    Two-Electron Energy =                 650.9629839055799039
    DFT Exchange-Correlation Energy =       0.0000000000000000
    Empirical Dispersion Energy =           0.0000000000000000
    PCM Polarization Energy =               0.0000000000000000
    EFP Energy =                            0.0000000000000000
    Total Energy =                       -457.5100770223964446
    Molecular point group: c1
  Basis Set: CC-PVTZ
  Basis Set:

  -Total Gradient:
     Atom            X                  Y                   Z
    ------   -----------------  -----------------  -----------------
       1        0.000002729760     0.000001801698    -0.000001368843
       2       -0.000008694091    -0.000006747908     0.000005387429
       3        0.000014978788    -0.000028158897     0.000030507668
       4        0.000016005946     0.000042510381    -0.000039037173
       5        0.000002406121    -0.000020110200     0.000018386928
       6       -0.000018788860    -0.000038275496     0.000031746314
       7       -0.000004518678     0.000017775571    -0.000016047680
       8       -0.000050701432     0.000039340901    -0.000043797526
       9        0.000001355670    -0.000016145570     0.000016437006
      10        0.000037740969    -0.000003863981    -0.000009479245
      11       -0.000007182082     0.000011264549    -0.000012647381
      12       -0.000038589141    -0.000599582779    -0.000505580556
      13        0.000050976167     0.000692693653     0.000693044510
      14        0.000075643160     0.000034444714    -0.000061848014
      15       -0.000109102775     0.000638861202     0.000463444579
      16        0.000074963241    -0.000736265645    -0.000580586381
      17       -0.000013811405    -0.000034872414    -0.000000181691
      18       -0.000025411352     0.000005330219     0.000011620054

  **** Optimization is complete! (in 6 steps) ****
    Final optimized geometry and variables:
    Molecular point group: c1

    Geometry (in Angstrom), charge = 0, multiplicity = 1:

    H           -4.009428313503    -0.567456085319     0.056459029823
    C           -2.943307137495    -0.442883568939     0.067203173417
    C           -2.165834724526    -1.223224548148     0.904259987769
    C           -2.351286640706     0.496825840275    -0.755288000713
    H           -2.626012709245    -1.952427526923     1.542521019518
    C           -0.796015972739    -1.062552916489     0.917626927967
    H           -2.954923816697     1.101597277846    -1.404031481490
    C           -0.979625769242     0.658825382374    -0.743111655153
    H           -0.179243309699    -1.658148634656     1.559557391463
    C           -0.197844842536    -0.121181850105     0.094052041857
    H           -0.518202290063     1.385828258081    -1.378896948979
    C            1.286471367238     0.013300898648     0.145801155953
    O            1.751301149451     0.937827140431    -0.673439701036
    O            1.983344817946    -0.638998798897     0.848590142883
    C            3.151921097833     1.126731234471    -0.711235697897
    H            3.341357513396     1.777922809248    -1.549060825614
    H            3.659617154655     0.185117668208    -0.850852761443
    H            3.496126150508     1.583226161275     0.205326576604

  Mulliken Charges: (a.u.)
   Center  Symbol    Alpha    Beta     Spin     Total
       1     H     0.42029  0.42029  0.00000  0.15943
       2     C     3.06974  3.06974  0.00000 -0.13947
       3     C     3.07551  3.07551  0.00000 -0.15103
       4     C     3.07494  3.07494  0.00000 -0.14988
       5     H     0.42038  0.42038  0.00000  0.15924
       6     C     3.07586  3.07586  0.00000 -0.15172
       7     H     0.42188  0.42188  0.00000  0.15624
       8     C     3.08210  3.08210  0.00000 -0.16420
       9     H     0.40665  0.40665  0.00000  0.18670
      10     C     3.01297  3.01297  0.00000 -0.02595
      11     H     0.41103  0.41103  0.00000  0.17793
      12     C     2.78167  2.78167  0.00000  0.43666
      13     O     4.14853  4.14853  0.00000 -0.29706
      14     O     4.21133  4.21133  0.00000 -0.42266
      15     C     3.03668  3.03668  0.00000 -0.07337
      16     H     0.44562  0.44562  0.00000  0.10877
      17     H     0.45065  0.45065  0.00000  0.09870
      18     H     0.45418  0.45418  0.00000  0.09165

   Total alpha = 36.00000, Total beta = 36.00000, Total charge = -0.00000

*** Psi4 exiting successfully. Buy a developer a beer!
