  ==> Input File <==

--------------------------------------------------------------------------
set {
	reference rhf
	basis 6-31G*
}

set_num_threads( 1 )
memory 2 gb

molecule MOL {
0 1

H	 2.121956	 -1.182019	 0.891705
O	 2.016064	 -0.864478	 0.000222
C	 1.050492	 0.053836	 0.000068
C	 -0.318135	 -0.576402	 0.000164
O	 1.285279	 1.218255	 -0.000078
C	 -1.454360	 0.441875	 -0.000474
H	 -0.374042	 -1.230163	 -0.866135
H	 -0.374274	 -1.229227	 0.867154
C	 -2.826123	 -0.230780	 0.000056
H	 -1.357605	 1.085198	 -0.868380
H	 -1.357504	 1.086451	 0.866496
H	 -2.959731	 -0.858053	 -0.876869
H	 -3.619374	 0.509403	 -0.000080
H	 -2.959371	 -0.857318	 0.877556

	symmetry c1
}
set optking {
	frozen_dihedral = ("
		7 4 6 10,
		2 3 4 7
	")
}

ee = energy('scf')
oeprop('DIPOLE', 'QUADRUPOLE', 'MULLIKEN_CHARGES')
f=open( 'psi4out.xyz', 'w' )
f.write( "14  " )
f.write( str(ee) + "\n" )
f.write( MOL.save_string_xyz() )
f.close()
--------------------------------------------------------------------------

    Molecular point group: c1

    Geometry (in Angstrom), charge = 0, multiplicity = 1:

       Center              X                  Y                   Z               Mass
    ------------   -----------------  -----------------  -----------------  -----------------
           H          2.130336160637    -1.173209649111     0.881500921882     1.007825032070
           O          2.024444160637    -0.855668649111    -0.009982078118    15.994914619560
           C          1.058872160637     0.062645350889    -0.010136078118    12.000000000000
           C         -0.309754839363    -0.567592649111    -0.010040078118    12.000000000000
           O          1.293659160637     1.227064350889    -0.010282078118    15.994914619560
           C         -1.445979839363     0.450684350889    -0.010678078118    12.000000000000
           H         -0.365661839363    -1.221353649111    -0.876339078118     1.007825032070
           H         -0.365893839363    -1.220417649111     0.856949921882     1.007825032070
           C         -2.817742839363    -0.221970649111    -0.010148078118    12.000000000000
           H         -1.349224839363     1.094007350889    -0.878584078118     1.007825032070
           H         -1.349123839363     1.095260350889     0.856291921882     1.007825032070
           H         -2.951350839363    -0.849243649111    -0.887073078118     1.007825032070
           H         -3.610993839363     0.518212350889    -0.010284078118     1.007825032070
           H         -2.950990839363    -0.848508649111     0.867351921882     1.007825032070

  Charge       = 0
  Multiplicity = 1
  Basis Set: 6-31G*
  Basis Set:

    Orbital Energies (a.u.)
    -----------------------

    Doubly Occupied:

       1A    -20.599281     2A    -20.560618     3A    -11.380466
       4A    -11.243903     5A    -11.226986     6A    -11.218874
       7A     -1.469150     8A     -1.370121     9A     -1.084231
      10A     -0.977112    11A     -0.852003    12A     -0.803931
      13A     -0.715065    14A     -0.678080    15A     -0.664314
      16A     -0.634595    17A     -0.579743    18A     -0.561386
      19A     -0.544984    20A     -0.502609    21A     -0.497426
      22A     -0.484968    23A     -0.480269    24A     -0.444349

  @DF-RHF Final Energy:  -305.85741599488836

   => Energetics <=

    Nuclear Repulsion Energy =            240.1037661085532875
    One-Electron Energy =                -892.7734933869498946
    Two-Electron Energy =                 346.8123112835079382
    DFT Exchange-Correlation Energy =       0.0000000000000000
    Empirical Dispersion Energy =           0.0000000000000000
    PCM Polarization Energy =               0.0000000000000000
    EFP Energy =                            0.0000000000000000
    Total Energy =                       -305.8574159948886972

  Mulliken Charges: (a.u.)
   Center  Symbol    Alpha    Beta     Spin     Total
       1     H     0.26610  0.26610  0.00000  0.46781
       2     O     4.35624  4.35624  0.00000 -0.71249
       3     C     2.63419  2.63419  0.00000  0.73162
       4     C     3.21034  3.21034  0.00000 -0.42067
       5     O     4.25143  4.25143  0.00000 -0.50285
       6     C     3.15295  3.15295  0.00000 -0.30591
       7     H     0.39676  0.39676  0.00000  0.20647
       8     H     0.41231  0.41231  0.00000  0.17539
       9     C     3.24279  3.24279  0.00000 -0.48558
      10     H     0.40845  0.40845  0.00000  0.18310
      11     H     0.41154  0.41154  0.00000  0.17692
      12     H     0.42052  0.42052  0.00000  0.15897
      13     H     0.41415  0.41415  0.00000  0.17169
      14     H     0.42223  0.42223  0.00000  0.15554

   Total alpha = 24.00000, Total beta = 24.00000, Total charge = -0.00000
