  ==> Input File <==

--------------------------------------------------------------------------
set {
	reference rhf
	basis 6-31G*
}

set_num_threads( 4 )
memory 2 gb

molecule MOL {
0 1

H	 1.000126	 -2.626290	 -0.183728
C	 0.498313	 -2.479535	 0.780352
C	 -0.776486	 -1.677856	 0.724351
O	 0.964728	 -2.939219	 1.771955
C	 -0.558097	 -0.297372	 0.091132
H	 -1.169326	 -1.593443	 1.730846
H	 -1.495343	 -2.238528	 0.127928
C	 -1.850991	 0.512573	 -0.019058
H	 0.166443	 0.257689	 0.682505
H	 -0.122390	 -0.415630	 -0.899339
C	 -3.096943	 -0.368295	 -0.099594
H	 -1.800724	 1.150330	 -0.898172
H	 -1.931651	 1.177355	 0.838044
H	 -3.060452	 -1.020287	 -0.967456
H	 -3.996858	 0.233488	 -0.175704
H	 -3.191959	 -0.995686	 0.782074

	symmetry c1
}
set optking {
	frozen_dihedral = ("
		9 5 8 12
	")
}

ee = optimize('scf')
oeprop('DIPOLE', 'QUADRUPOLE', 'MULLIKEN_CHARGES')
f=open( 'psi4out.xyz', 'w' )
f.write( "16  " )
f.write( str(ee) + "\n" )
f.write( MOL.save_string_xyz() )
f.close()
--------------------------------------------------------------------------

    Molecular point group: c1
  Charge       = 0
  Multiplicity = 1
  Basis Set: 6-31G*
  Basis Set:
  @DF-RHF Final Energy:  -270.01060633721147
    Total Energy =                       -270.0106063372114704
    Molecular point group: c1
  Basis Set: 6-31G*
  Basis Set:
  Basis Set: 6-31G*
  Basis Set:
  @DF-RHF Final Energy:  -270.01113721623534
    Total Energy =                       -270.0111372162353973
  Basis Set: 6-31G*
  Basis Set:
  Basis Set: 6-31G*
  Basis Set:
  @DF-RHF Final Energy:  -270.01328545557459
    Total Energy =                       -270.0132854555745894
  Basis Set: 6-31G*
  Basis Set:
  Basis Set: 6-31G*
  Basis Set:
  @DF-RHF Final Energy:  -270.01348833569688
    Total Energy =                       -270.0134883356968203
  Basis Set: 6-31G*
  Basis Set:
  @DF-RHF Final Energy:  -270.01323316921048
    Total Energy =                       -270.0132331692105936
  @DF-RHF Final Energy:  -270.01350120042173
    Total Energy =                       -270.0135012004218993
  Basis Set: 6-31G*
  Basis Set:
  @DF-RHF Final Energy:  -270.01352820058617
    Total Energy =                       -270.0135282005863928
  Basis Set: 6-31G*
  Basis Set:
  Basis Set: 6-31G*
  Basis Set:
  @DF-RHF Final Energy:  -270.01351049481991
    Total Energy =                       -270.0135104948199114
  Basis Set: 6-31G*
  Basis Set:
  Basis Set: 6-31G*
  Basis Set:
  @DF-RHF Final Energy:  -270.01352922347996
    Total Energy =                       -270.0135292234798499
  Basis Set: 6-31G*
  Basis Set:
  Charge       = 0
  Multiplicity = 1
  Basis Set: 6-31G*
  Basis Set:

    Orbital Energies (a.u.)
    -----------------------

    Doubly Occupied:

       1A    -20.561935     2A    -11.325979     3A    -11.237360
       4A    -11.234192     5A    -11.229951     6A    -11.219173
       7A     -1.401734     8A     -1.094359     9A     -1.014383
      10A     -0.915170    11A     -0.809790    12A     -0.786375
      13A     -0.676123    14A     -0.650836    15A     -0.637274
      16A     -0.586890    17A     -0.576452    18A     -0.567565
      19A     -0.529397    20A     -0.517049    21A     -0.486355
      22A     -0.474143    23A     -0.470212    24A     -0.409246

  @DF-RHF Final Energy:  -270.01353007620673

   => Energetics <=

    Nuclear Repulsion Energy =            232.3527464935679916
    One-Electron Energy =                -825.9086683907737552
    Two-Electron Energy =                 323.5423918209988869
    DFT Exchange-Correlation Energy =       0.0000000000000000
    Empirical Dispersion Energy =           0.0000000000000000
    PCM Polarization Energy =               0.0000000000000000
    EFP Energy =                            0.0000000000000000
    Total Energy =                       -270.0135300762068482
    Molecular point group: c1
  Basis Set: 6-31G*
  Basis Set:

  -Total Gradient:
     Atom            X                  Y                   Z
    ------   -----------------  -----------------  -----------------
       1       -0.000002792020     0.000021858516    -0.000001607019
       2        0.000003212514    -0.000035470001     0.000015193318
       3        0.000037376879     0.000087844829    -0.000018574259
       4       -0.000019653937    -0.000004955713    -0.000001924609
       5        0.001909760851     0.002422172599    -0.006993696701
       6       -0.000012466444    -0.000003069446     0.000000600992
       7       -0.000001988593    -0.000026388598    -0.000001141013
       8        0.002824992377     0.004681354625     0.005338040262
       9       -0.002065032502    -0.002781833857     0.005107387982
      10       -0.000003430211     0.000002316987    -0.000004296833
      11        0.000005672067    -0.000009840190    -0.000004749066
      12       -0.002688027798    -0.004350677739    -0.003439553890
      13       -0.000000395207     0.000003312072    -0.000003540169
      14        0.000003107620    -0.000002384890    -0.000001582440
      15        0.000001218164     0.000001286530     0.000000750684
      16        0.000008446237    -0.000005525722     0.000008692760

  **** Optimization is complete! (in 10 steps) ****
    Final optimized geometry and variables:
    Molecular point group: c1

    Geometry (in Angstrom), charge = 0, multiplicity = 1:

    H            1.856808191746    -1.411088970531    -0.724621771064
    C            1.367639409189    -1.252034691868     0.244013478656
    C            0.048096656670    -0.527335356898     0.184640596880
    O            1.883064653358    -1.638223492966     1.242854608917
    C            0.207868077641     0.852405069425    -0.477884147407
    H           -0.334666323444    -0.441533866205     1.194911548592
    H           -0.639676724915    -1.145397396333    -0.387530987126
    C           -1.082045228653     1.699744601117    -0.540751155507
    H            0.943343112104     1.391821500611     0.112377529387
    H            0.616179131635     0.722248983352    -1.476147248869
    C           -2.387626698275     0.911064883130    -0.685619451392
    H           -1.015273027905     2.347380027793    -1.410017150228
    H           -1.146395286284     2.334308472430     0.337031051160
    H           -2.370709127166     0.270600536128    -1.563188922816
    H           -3.223331544442     1.594401297487    -0.797791324244
    H           -2.591068120704     0.287807028232     0.178331465258

  Mulliken Charges: (a.u.)
   Center  Symbol    Alpha    Beta     Spin     Total
       1     H     0.43242  0.43242  0.00000  0.13516
       2     C     2.82936  2.82936  0.00000  0.34127
       3     C     3.21096  3.21096  0.00000 -0.42192
       4     O     4.23758  4.23758  0.00000 -0.47515
       5     C     3.16759  3.16759  0.00000 -0.33518
       6     H     0.39992  0.39992  0.00000  0.20016
       7     H     0.40788  0.40788  0.00000  0.18424
       8     C     3.15268  3.15268  0.00000 -0.30536
       9     H     0.41070  0.41070  0.00000  0.17861
      10     H     0.41747  0.41747  0.00000  0.16506
      11     C     3.24585  3.24585  0.00000 -0.49171
      12     H     0.41697  0.41697  0.00000  0.16606
      13     H     0.41590  0.41590  0.00000  0.16820
      14     H     0.42153  0.42153  0.00000  0.15695
      15     H     0.41551  0.41551  0.00000  0.16897
      16     H     0.41768  0.41768  0.00000  0.16463

   Total alpha = 24.00000, Total beta = 24.00000, Total charge = -0.00000
