                              Psi4 1.0.54 Driver

  ==> Input File <==

--------------------------------------------------------------------------
set {
	reference rhf
	basis cc-pvtz
}

set_num_threads( 4 )
memory 2 gb

molecule MOL {
0 1

H	 -3.379760	 -0.069053	 -0.527208
O	 -2.592731	 -0.592280	 -0.550365
C	 -1.605397	 0.107680	 0.001145
C	 -0.310616	 -0.658853	 0.000791
O	 -1.768736	 1.199324	 0.424942
C	 0.926581	 0.227233	 0.000178
H	 -0.327628	 -1.313681	 -0.864448
H	 -0.327041	 -1.313334	 0.866298
C	 2.220156	 -0.582071	 -0.000088
H	 0.899945	 0.878221	 -0.866390
H	 0.900542	 0.878581	 0.866486
C	 3.466689	 0.296012	 -0.000457
H	 2.239073	 -1.234095	 -0.869382
H	 2.239505	 -1.233985	 0.869270
H	 3.493549	 0.935857	 -0.875887
H	 4.368821	 -0.304526	 -0.001199
H	 3.494559	 0.935166	 0.875458

	symmetry c1
}
set optking {
	frozen_dihedral = ("
		2 3 4 7
	")
}

ee,wfn = optimize('scf', return_wfn=True)
oeprop( wfn, 'DIPOLE', 'QUADRUPOLE', 'MULLIKEN_CHARGES')
f=open( 'psi4out.xyz', 'w' )
f.write( "17  " )
f.write( str(ee) + "\n" )
f.write( MOL.save_string_xyz() )
f.close()
--------------------------------------------------------------------------

    Molecular point group: c1
  Charge       = 0
  Multiplicity = 1
  Basis Set: CC-PVTZ
  Basis Set:
  @DF-RHF Final Energy:  -345.04811967829136
    Total Energy =                       -345.0481196782916413
    Molecular point group: c1
  Basis Set: CC-PVTZ
  Basis Set:
  Basis Set: CC-PVTZ
  Basis Set:
  @DF-RHF Final Energy:  -345.04812931684114
    Total Energy =                       -345.0481293168412549
  Basis Set: CC-PVTZ
  Basis Set:
  Basis Set: CC-PVTZ
  Basis Set:
  @DF-RHF Final Energy:  -345.04826760789342
    Total Energy =                       -345.0482676078934219
  Basis Set: CC-PVTZ
  Basis Set:
  Basis Set: CC-PVTZ
  Basis Set:
  @DF-RHF Final Energy:  -345.04833458883292
    Total Energy =                       -345.0483345888328586
  Basis Set: CC-PVTZ
  Basis Set:
  Charge       = 0
  Multiplicity = 1
  Basis Set: CC-PVTZ
  Basis Set:

    Orbital Energies (a.u.)
    -----------------------

    Doubly Occupied:

       1A    -20.605100     2A    -20.539589     3A    -11.373783
       4A    -11.239107     5A    -11.222630     6A    -11.221317
       7A    -11.211117     8A     -1.478001     9A     -1.368865
      10A     -1.093196    11A     -1.019803    12A     -0.914708
      13A     -0.825391    14A     -0.793328    15A     -0.704922
      16A     -0.688051    17A     -0.668019    18A     -0.632990
      19A     -0.593677    20A     -0.584817    21A     -0.576557
      22A     -0.538749    23A     -0.510327    24A     -0.486709
      25A     -0.481507    26A     -0.477609    27A     -0.473995
      28A     -0.444874

  @DF-RHF Final Energy:  -345.04833487970620

   => Energetics <=

    Nuclear Repulsion Energy =            304.7391031160690318
    One-Electron Energy =               -1074.0373984252914852
    Two-Electron Energy =                 424.2499604295167046
    DFT Exchange-Correlation Energy =       0.0000000000000000
    Empirical Dispersion Energy =           0.0000000000000000
    PCM Polarization Energy =               0.0000000000000000
    EFP Energy =                            0.0000000000000000
    Total Energy =                       -345.0483348797057488
    Molecular point group: c1
  Basis Set: CC-PVTZ
  Basis Set:

  -Total Gradient:
     Atom            X                  Y                   Z
    ------   -----------------  -----------------  -----------------
       1       -0.000079264678    -0.000002368560    -0.000012606809
       2        0.000182753563     0.000436233990    -0.000868063587
       3       -0.000256952252    -0.000736507637     0.001350181998
       4        0.000690116373     0.001177050733    -0.001068021902
       5       -0.000073064699    -0.000008234755    -0.000041678440
       6        0.000009169305    -0.000013023198     0.000013923038
       7       -0.000486278572    -0.000833890961     0.000640401408
       8        0.000014939380    -0.000006525666    -0.000010152793
       9        0.000004873134     0.000001853050    -0.000006582761
      10       -0.000010714912    -0.000012601806     0.000005612333
      11       -0.000000808095     0.000004181104     0.000002529186
      12       -0.000001664250    -0.000003432686    -0.000004151075
      13        0.000005102053    -0.000007124807    -0.000000983275
      14       -0.000001993141     0.000002503093    -0.000000046999
      15        0.000000879499     0.000001496697    -0.000000146967
      16        0.000002951495     0.000000157310    -0.000000892758
      17       -0.000000044204     0.000000234104     0.000000679402

  **** Optimization is complete! (in 5 steps) ****
    Final optimized geometry and variables:
    Molecular point group: c1

    Geometry (in Angstrom), charge = 0, multiplicity = 1:

    H           -3.400746235941    -0.069654108020    -0.446275605618
    O           -2.612733112834    -0.587089866689    -0.520608239485
    C           -1.606892525851     0.101978458710     0.008962417000
    C           -0.313841772554    -0.668860239724    -0.013481174518
    O           -1.754676711359     1.188223270007     0.452960675300
    C            0.923466759863     0.219586096295     0.007972241975
    H           -0.323108346904    -1.333205582024    -0.867886761745
    H           -0.334230000053    -1.309901392093     0.864458848331
    C            2.217744024805    -0.587507888830     0.043327529866
    H            0.918460350765     0.861253485887    -0.867711780004
    H            0.873157618955     0.877458841078     0.866690799159
    C            3.462706733356     0.292663071420     0.057100770864
    H            2.255564477073    -1.251317688255    -0.816221881485
    H            2.219111843268    -1.226870145235     0.922104367388
    H            3.508191525840     0.919339073932    -0.827124266551
    H            4.365358531673    -0.306422993590     0.084919803246
    H            3.470343206128     0.944754115620     0.923759791944

  Mulliken Charges: (a.u.)
   Center  Symbol    Alpha    Beta     Spin     Total
       1     H     0.38144  0.38144  0.00000  0.23713
       2     O     4.15887  4.15887  0.00000 -0.31774
       3     C     2.80833  2.80833  0.00000  0.38333
       4     C     3.10341  3.10341  0.00000 -0.20683
       5     O     4.19336  4.19336  0.00000 -0.38672
       6     C     3.08567  3.08567  0.00000 -0.17134
       7     H     0.43615  0.43615  0.00000  0.12770
       8     H     0.44230  0.44230  0.00000  0.11540
       9     C     3.08621  3.08621  0.00000 -0.17241
      10     H     0.45013  0.45013  0.00000  0.09975
      11     H     0.44091  0.44091  0.00000  0.11818
      12     C     3.14914  3.14914  0.00000 -0.29828
      13     H     0.45467  0.45467  0.00000  0.09066
      14     H     0.45418  0.45418  0.00000  0.09164
      15     H     0.45406  0.45406  0.00000  0.09188
      16     H     0.44794  0.44794  0.00000  0.10411
      17     H     0.45322  0.45322  0.00000  0.09355

   Total alpha = 28.00000, Total beta = 28.00000, Total charge = -0.00000

*** Psi4 exiting successfully. Buy a developer a beer!
