  ==> Input File <==

--------------------------------------------------------------------------
set {
	reference rhf
	basis cc-pvtz
}

set_num_threads( 4 )
memory 2 gb

molecule MOL {
0 1

H	 1.128311	 0.207724	 1.465118
C	 1.134565	 0.093781	 0.372499
C	 0.062554	 0.862911	 -0.350953
O	 1.948932	 -0.587720	 -0.146651
C	 -0.616169	 1.908060	 0.539897
H	 -0.653983	 0.159087	 -0.754315
H	 0.547048	 1.364627	 -1.185591
C	 -1.440478	 1.298858	 1.670401
H	 -1.254922	 2.524922	 -0.081432
H	 0.137374	 2.572972	 0.952828
H	 -2.224193	 0.660180	 1.278690
H	 -1.907922	 2.073306	 2.266529
H	 -0.829219	 0.696339	 2.333249

	symmetry c1
}
set optking {
	frozen_dihedral = ("
		6 3 2 4
	")
}

ee = optimize('scf')
oeprop('DIPOLE', 'QUADRUPOLE', 'MULLIKEN_CHARGES')
f=open( 'psi4out.xyz', 'w' )
f.write( "13  " )
f.write( str(ee) + "\n" )
f.write( MOL.save_string_xyz() )
f.close()
--------------------------------------------------------------------------

    Molecular point group: c1
  Charge       = 0
  Multiplicity = 1
  Basis Set: CC-PVTZ
  Basis Set:
  @DF-RHF Final Energy:  -231.06757192138289
    Total Energy =                       -231.0675719213828927
    Molecular point group: c1
  Basis Set: CC-PVTZ
  Basis Set:
  Basis Set: CC-PVTZ
  Basis Set:
  @DF-RHF Final Energy:  -231.06817512686175
    Total Energy =                       -231.0681751268617745
  Basis Set: CC-PVTZ
  Basis Set:
  Basis Set: CC-PVTZ
  Basis Set:
  @DF-RHF Final Energy:  -231.06744060000287
    Total Energy =                       -231.0674406000030103
  Basis Set: CC-PVTZ
  Basis Set:
  Basis Set: CC-PVTZ
  Basis Set:
  @DF-RHF Final Energy:  -231.06853439872185
    Total Energy =                       -231.0685343987218516
  Basis Set: CC-PVTZ
  Basis Set:
  Basis Set: CC-PVTZ
  Basis Set:
  @DF-RHF Final Energy:  -231.06851246485721
    Total Energy =                       -231.0685124648572639
  Basis Set: CC-PVTZ
  Basis Set:
  Basis Set: CC-PVTZ
  Basis Set:
  @DF-RHF Final Energy:  -231.06857710655132
    Total Energy =                       -231.0685771065512029
  Basis Set: CC-PVTZ
  Basis Set:
  Charge       = 0
  Multiplicity = 1
  Basis Set: CC-PVTZ
  Basis Set:

    Orbital Energies (a.u.)
    -----------------------

    Doubly Occupied:

       1A    -20.551283     2A    -11.322650     3A    -11.235510
       4A    -11.234752     5A    -11.223475     6A     -1.407132
       7A     -1.088061     8A     -0.973695     9A     -0.850091
      10A     -0.792690    11A     -0.667919    12A     -0.653201
      13A     -0.622214    14A     -0.595231    15A     -0.580136
      16A     -0.528116    17A     -0.508882    18A     -0.494353
      19A     -0.485381    20A     -0.411940

  @DF-RHF Final Energy:  -231.06857768753758

   => Energetics <=

    Nuclear Repulsion Energy =            172.3484543151099047
    One-Electron Energy =                -654.3806470598342457
    Two-Electron Energy =                 250.9636150571865869
    DFT Exchange-Correlation Energy =       0.0000000000000000
    Empirical Dispersion Energy =           0.0000000000000000
    PCM Polarization Energy =               0.0000000000000000
    EFP Energy =                            0.0000000000000000
    Total Energy =                       -231.0685776875377542
    Molecular point group: c1
  Basis Set: CC-PVTZ
  Basis Set:

  -Total Gradient:
     Atom            X                  Y                   Z
    ------   -----------------  -----------------  -----------------
       1        0.000013028171    -0.000011287150    -0.000014775640
       2       -0.000206749891    -0.000223491560     0.000009002895
       3        0.000176004397     0.000068311652    -0.000173089087
       4        0.000161360621     0.000127750588     0.000004862088
       5       -0.000041095183    -0.000003725222    -0.000041313422
       6       -0.000090821873     0.000002833699     0.000154783462
       7        0.000010407372    -0.000007794062     0.000011077606
       8        0.000002398095     0.000021195104     0.000017749375
       9       -0.000004923199     0.000012771133     0.000008736146
      10       -0.000013271844     0.000010458854     0.000009185068
      11        0.000001172220     0.000011260291     0.000003011278
      12       -0.000002353717    -0.000006075245     0.000015011568
      13       -0.000005155170    -0.000002208082    -0.000004241339

  **** Optimization is complete! (in 7 steps) ****
    Final optimized geometry and variables:
    Molecular point group: c1

    Geometry (in Angstrom), charge = 0, multiplicity = 1:

    H            1.065676746640    -0.479419379535     1.025115160638
    C            0.973697117332    -0.602107945896    -0.060746220567
    C           -0.158790828519     0.141872542347    -0.730745681579
    O            1.744295218300    -1.283879570861    -0.642692056761
    C           -0.834449726357     1.191464663175     0.150904072519
    H           -0.881012101165    -0.601475695009    -1.056885408405
    H            0.249173433264     0.587201091179    -1.630204123183
    C           -1.722561859706     0.600288891519     1.243147946310
    H           -1.433994478539     1.837642780142    -0.479746039430
    H           -0.076792974359     1.828602430721     0.599246936308
    H           -2.526686703207     0.014489364879     0.811083843560
    H           -2.168713340063     1.383084763763     1.844545641083
    H           -1.167932177531    -0.048183393048     1.912253239395

  Mulliken Charges: (a.u.)
   Center  Symbol    Alpha    Beta     Spin     Total
       1     H     0.46124  0.46124  0.00000  0.07751
       2     C     2.90917  2.90917  0.00000  0.18167
       3     C     3.08926  3.08926  0.00000 -0.17852
       4     O     4.16617  4.16617  0.00000 -0.33234
       5     C     3.10369  3.10369  0.00000 -0.20738
       6     H     0.44330  0.44330  0.00000  0.11340
       7     H     0.43382  0.43382  0.00000  0.13235
       8     C     3.14824  3.14824  0.00000 -0.29648
       9     H     0.44404  0.44404  0.00000  0.11192
      10     H     0.44948  0.44948  0.00000  0.10105
      11     H     0.45207  0.45207  0.00000  0.09585
      12     H     0.44484  0.44484  0.00000  0.11031
      13     H     0.45468  0.45468  0.00000  0.09064

   Total alpha = 20.00000, Total beta = 20.00000, Total charge = -0.00000
