  ==> Input File <==

--------------------------------------------------------------------------
set {
	reference rhf
	basis cc-pvtz
}

set_num_threads( 4 )
memory 2 gb

molecule MOL {
0 1

H	 1.167819	 -0.190419	 -0.994961
C	 0.788096	 -0.429819	 0.000000
N	 -0.537714	 -0.645117	 0.000000
O	 1.505095	 -0.482838	 0.948589
C	 -1.522613	 0.412524	 0.000000
H	 -0.845894	 -1.585866	 0.000000
H	 -2.150256	 0.356137	 -0.880771
H	 -1.005621	 1.357208	 0.000000
H	 -2.150256	 0.356137	 0.880771

	symmetry c1
}
set optking {
	frozen_dihedral = ("
		1 2 3 6
	")
}

ee = optimize('scf')
oeprop('DIPOLE', 'QUADRUPOLE', 'MULLIKEN_CHARGES')
f=open( 'psi4out.xyz', 'w' )
f.write( "9  " )
f.write( str(ee) + "\n" )
f.write( MOL.save_string_xyz() )
f.close()
--------------------------------------------------------------------------

    Molecular point group: c1
  Charge       = 0
  Multiplicity = 1
  Basis Set: CC-PVTZ
  Basis Set:
  @DF-RHF Final Energy:  -208.00120952291286
    Total Energy =                       -208.0012095229127738
    Molecular point group: c1
  Basis Set: CC-PVTZ
  Basis Set:
  Basis Set: CC-PVTZ
  Basis Set:
  @DF-RHF Final Energy:  -208.00564072152338
    Total Energy =                       -208.0056407215236050
  Basis Set: CC-PVTZ
  Basis Set:
  Basis Set: CC-PVTZ
  Basis Set:
  @DF-RHF Final Energy:  -208.00816673699720
    Total Energy =                       -208.0081667369971683
  Basis Set: CC-PVTZ
  Basis Set:
  Basis Set: CC-PVTZ
  Basis Set:
  @DF-RHF Final Energy:  -208.01344110826858
    Total Energy =                       -208.0134411082686938
  Basis Set: CC-PVTZ
  Basis Set:
  @DF-RHF Final Energy:  -208.01377309726161
    Total Energy =                       -208.0137730972615486
  @DF-RHF Final Energy:  -208.01629283455478
    Total Energy =                       -208.0162928345548039
  @DF-RHF Final Energy:  -208.01815673305234
    Total Energy =                       -208.0181567330523080
  @DF-RHF Final Energy:  -208.01899303557826
    Total Energy =                       -208.0189930355782622
  @DF-RHF Final Energy:  -208.01953148139290
    Total Energy =                       -208.0195314813927894
  @DF-RHF Final Energy:  -208.02007948137071
    Total Energy =                       -208.0200794813707148
  Basis Set: CC-PVTZ
  Basis Set:
  @DF-RHF Final Energy:  -208.02065457649127
    Total Energy =                       -208.0206545764913244
  Basis Set: CC-PVTZ
  Basis Set:
  Basis Set: CC-PVTZ
  Basis Set:
  @DF-RHF Final Energy:  -208.02084195546644
    Total Energy =                       -208.0208419554665511
  Basis Set: CC-PVTZ
  Basis Set:
  Basis Set: CC-PVTZ
  Basis Set:
  @DF-RHF Final Energy:  -208.02086424132560
    Total Energy =                       -208.0208642413256541
  Basis Set: CC-PVTZ
  Basis Set:
  Charge       = 0
  Multiplicity = 1
  Basis Set: CC-PVTZ
  Basis Set:

    Orbital Energies (a.u.)
    -----------------------

    Doubly Occupied:

       1A    -20.549028     2A    -15.572631     3A    -11.347859
       4A    -11.264453     5A     -1.418219     6A     -1.234532
       7A     -0.948366     8A     -0.830604     9A     -0.709595
      10A     -0.676698    11A     -0.647986    12A     -0.583549
      13A     -0.563782    14A     -0.534118    15A     -0.446256
      16A     -0.409225

  @DF-RHF Final Energy:  -208.02086477221752

   => Energetics <=

    Nuclear Repulsion Energy =            120.3210866597989224
    One-Electron Energy =                -521.2101030890466973
    Two-Electron Energy =                 192.8681516570301255
    DFT Exchange-Correlation Energy =       0.0000000000000000
    Empirical Dispersion Energy =           0.0000000000000000
    PCM Polarization Energy =               0.0000000000000000
    EFP Energy =                            0.0000000000000000
    Total Energy =                       -208.0208647722176352
    Molecular point group: c1
  Basis Set: CC-PVTZ
  Basis Set:

  -Total Gradient:
     Atom            X                  Y                   Z
    ------   -----------------  -----------------  -----------------
       1       -0.001327354050    -0.009579156443    -0.004373610602
       2        0.000766405256     0.013381118982     0.003522608308
       3        0.005116952810    -0.006811562784     0.010701642303
       4       -0.000026033237     0.000014072996    -0.000002885722
       5       -0.000077266671     0.000043106843     0.000003143903
       6       -0.004454865378     0.002984253471    -0.009861064641
       7        0.000017105503    -0.000029144939     0.000037416121
       8       -0.000006028152    -0.000001520424    -0.000014563286
       9       -0.000008916076    -0.000001167704    -0.000012686383

  **** Optimization is complete! (in 14 steps) ****
    Final optimized geometry and variables:
    Molecular point group: c1

    Geometry (in Angstrom), charge = 0, multiplicity = 1:

    H            0.696927994692     0.370642982805    -1.251100041437
    C            0.653259150828    -0.079805289958    -0.253192465076
    N           -0.627185523340    -0.158913912385     0.305548221203
    O            1.614540883978    -0.550615369452     0.236991373534
    C           -1.585167156748     0.794539964281    -0.238446259877
    H           -0.980114369929    -1.086108943426     0.187111367037
    H           -1.694403303033     0.735051748309    -1.319678211499
    H           -1.285486609475     1.801362342563     0.018864761220
    H           -2.550454864467     0.615499594405     0.212041109320

  Mulliken Charges: (a.u.)
   Center  Symbol    Alpha    Beta     Spin     Total
       1     H     0.47557  0.47557  0.00000  0.04887
       2     C     2.87524  2.87524  0.00000  0.24951
       3     N     3.60139  3.60139  0.00000 -0.20277
       4     O     4.16574  4.16574  0.00000 -0.33149
       5     C     3.09113  3.09113  0.00000 -0.18226
       6     H     0.43177  0.43177  0.00000  0.13647
       7     H     0.46545  0.46545  0.00000  0.06910
       8     H     0.44832  0.44832  0.00000  0.10336
       9     H     0.44539  0.44539  0.00000  0.10922

   Total alpha = 16.00000, Total beta = 16.00000, Total charge = -0.00000
