  ==> Input File <==

--------------------------------------------------------------------------
set {
	reference rhf
	basis 6-31G*
}

set_num_threads( 4 )
memory 2 gb

molecule MOL {
0 1

H	 0.990270	 -0.164946	 1.386473
C	 0.018837	 -0.579025	 1.137077
N	 -0.528168	 0.128977	 -0.000000
H	 -0.628094	 -0.443721	 1.996268
H	 0.147628	 -1.651767	 0.970029
C	 0.248044	 -0.037491	 -1.209632
H	 -1.470984	 -0.165193	 -0.159970
H	 0.998722	 0.743888	 -1.266824
H	 -0.398417	 0.061950	 -2.074060
H	 0.763621	 -0.999315	 -1.275517

	symmetry c1
}
set optking {
	frozen_dihedral = ("
		2 3 6 8
	")
}

ee = optimize('scf')
oeprop('DIPOLE', 'QUADRUPOLE', 'MULLIKEN_CHARGES')
f=open( 'psi4out.xyz', 'w' )
f.write( "10  " )
f.write( str(ee) + "\n" )
f.write( MOL.save_string_xyz() )
f.close()
--------------------------------------------------------------------------

    Molecular point group: c1
  Charge       = 0
  Multiplicity = 1
  Basis Set: 6-31G*
  Basis Set:
  @DF-RHF Final Energy:  -134.23655640366928
    Total Energy =                       -134.2365564036692263
    Molecular point group: c1
  Basis Set: 6-31G*
  Basis Set:
  Basis Set: 6-31G*
  Basis Set:
  @DF-RHF Final Energy:  -134.23672166134048
    Total Energy =                       -134.2367216613404821
  Basis Set: 6-31G*
  Basis Set:
  Basis Set: 6-31G*
  Basis Set:
  @DF-RHF Final Energy:  -134.23674524753076
    Total Energy =                       -134.2367452475307914
  Basis Set: 6-31G*
  Basis Set:
  Charge       = 0
  Multiplicity = 1
  Basis Set: 6-31G*
  Basis Set:

    Orbital Energies (a.u.)
    -----------------------

    Doubly Occupied:

       1A    -15.537933     2A    -11.235993     3A    -11.235897
       4A     -1.198376     5A     -0.948159     6A     -0.853705
       7A     -0.660336     8A     -0.613971     9A     -0.590401
      10A     -0.542259    11A     -0.507746    12A     -0.504822
      13A     -0.362316

  @DF-RHF Final Energy:  -134.23674595055132

   => Energetics <=

    Nuclear Repulsion Energy =             84.5371278681261060
    One-Electron Energy =                -347.9639188265118719
    Two-Electron Energy =                 129.1900450078343283
    DFT Exchange-Correlation Energy =       0.0000000000000000
    Empirical Dispersion Energy =           0.0000000000000000
    PCM Polarization Energy =               0.0000000000000000
    EFP Energy =                            0.0000000000000000
    Total Energy =                       -134.2367459505514375
    Molecular point group: c1
  Basis Set: 6-31G*
  Basis Set:

  -Total Gradient:
     Atom            X                  Y                   Z
    ------   -----------------  -----------------  -----------------
       1       -0.000013542639     0.000006906230    -0.000016864412
       2       -0.001810045799    -0.002500627661    -0.000834491190
       3        0.001796028665     0.004136689156     0.000534086646
       4        0.000001449400    -0.000003060455     0.000018897061
       5        0.000021932827    -0.000012487006     0.000004047879
       6        0.002658365105    -0.004030505302     0.002345841456
       7        0.000022095184     0.000012101262     0.000038756644
       8       -0.002676515081     0.002387772762    -0.002043419401
       9       -0.000009164504     0.000009516612    -0.000027960499
      10        0.000009396843    -0.000006305598    -0.000018894184

  **** Optimization is complete! (in 4 steps) ****
    Final optimized geometry and variables:
    Molecular point group: c1

    Geometry (in Angstrom), charge = 0, multiplicity = 1:

    H            1.069589608178     0.020524403065     1.426451911837
    C            0.100002242649    -0.394605175981     1.170917134014
    N           -0.444116617193     0.308996798642     0.028863655449
    H           -0.551307371239    -0.258814793790     2.026804067243
    H            0.231811944644    -1.466526339238     1.003859730724
    C            0.336348595798     0.147168844220    -1.184366284704
    H           -1.378610355885    -0.008229357894    -0.131682366296
    H            1.088944815980     0.926087215220    -1.256023540665
    H           -0.310278959559     0.264671169244    -2.047291055828
    H            0.825007477766    -0.824840036325    -1.263023752640

  Mulliken Charges: (a.u.)
   Center  Symbol    Alpha    Beta     Spin     Total
       1     H     0.41784  0.41784  0.00000  0.16432
       2     C     3.14583  3.14583  0.00000 -0.29166
       3     N     3.83893  3.83893  0.00000 -0.67787
       4     H     0.41707  0.41707  0.00000  0.16587
       5     H     0.43423  0.43423  0.00000  0.13153
       6     C     3.14539  3.14539  0.00000 -0.29079
       7     H     0.33216  0.33216  0.00000  0.33568
       8     H     0.41657  0.41657  0.00000  0.16686
       9     H     0.42045  0.42045  0.00000  0.15910
      10     H     0.43152  0.43152  0.00000  0.13695

   Total alpha = 13.00000, Total beta = 13.00000, Total charge =  0.00000
