  ==> Input File <==

--------------------------------------------------------------------------
set {
	reference rhf
	basis 6-31G*
}

set_num_threads( 4 )
memory 2 gb

molecule MOL {
0 1

H	 -0.367348	 2.047014	 -0.308205
C	 0.352277	 1.337084	 0.083769
N	 -0.000016	 0.000074	 -0.335546
H	 1.328359	 1.600444	 -0.307950
H	 0.381933	 1.450534	 1.172486
C	 -1.052475	 -0.561751	 0.479900
C	 -0.318789	 -0.057952	 -1.743797
H	 -1.239922	 -1.587429	 0.182917
H	 -0.748896	 -0.565823	 1.520711
H	 -1.994578	 -0.009027	 0.403598
H	 0.520276	 0.305539	 -2.326222
H	 -0.508003	 -1.084683	 -2.036132
H	 -1.198522	 0.537745	 -2.008641

	symmetry c1
}
set optking {
	frozen_dihedral = ("
		6 3 2 1
	")
}

ee = optimize('scf')
oeprop('DIPOLE', 'QUADRUPOLE', 'MULLIKEN_CHARGES')
f=open( 'psi4out.xyz', 'w' )
f.write( "13  " )
f.write( str(ee) + "\n" )
f.write( MOL.save_string_xyz() )
f.close()
--------------------------------------------------------------------------

    Molecular point group: c1
  Charge       = 0
  Multiplicity = 1
  Basis Set: 6-31G*
  Basis Set:
  @DF-RHF Final Energy:  -173.26718507597121
    Total Energy =                       -173.2671850759712129
    Molecular point group: c1
  Basis Set: 6-31G*
  Basis Set:
  Basis Set: 6-31G*
  Basis Set:
  @DF-RHF Final Energy:  -173.26800628472816
    Total Energy =                       -173.2680062847282159
  Basis Set: 6-31G*
  Basis Set:
  Basis Set: 6-31G*
  Basis Set:
  @DF-RHF Final Energy:  -173.26812588588945
    Total Energy =                       -173.2681258858895319
  Basis Set: 6-31G*
  Basis Set:
  Basis Set: 6-31G*
  Basis Set:
  @DF-RHF Final Energy:  -173.26812854492059
    Total Energy =                       -173.2681285449206143
  Basis Set: 6-31G*
  Basis Set:
  Charge       = 0
  Multiplicity = 1
  Basis Set: 6-31G*
  Basis Set:

    Orbital Energies (a.u.)
    -----------------------

    Doubly Occupied:

       1A    -15.542104     2A    -11.235915     3A    -11.235827
       4A    -11.235723     5A     -1.223889     6A     -0.952526
       7A     -0.951462     8A     -0.805580     9A     -0.640022
      10A     -0.631240    11A     -0.629927    12A     -0.546539
      13A     -0.541550    14A     -0.517601    15A     -0.503152
      16A     -0.501434    17A     -0.342651

  @DF-RHF Final Energy:  -173.26812885827329

   => Energetics <=

    Nuclear Repulsion Energy =            139.1127800329927311
    One-Electron Energy =                -508.6875316743080475
    Two-Electron Energy =                 196.3066227830420019
    DFT Exchange-Correlation Energy =       0.0000000000000000
    Empirical Dispersion Energy =           0.0000000000000000
    PCM Polarization Energy =               0.0000000000000000
    EFP Energy =                            0.0000000000000000
    Total Energy =                       -173.2681288582732861
    Molecular point group: c1
  Basis Set: 6-31G*
  Basis Set:

  -Total Gradient:
     Atom            X                  Y                   Z
    ------   -----------------  -----------------  -----------------
       1        0.002007842013     0.000383003715    -0.003079390008
       2       -0.001833599380    -0.000902280596     0.004678993089
       3       -0.002103462835     0.001602157662    -0.003310509663
       4       -0.000009877157    -0.000002824463    -0.000010585020
       5       -0.000001067025     0.000000284615     0.000005872950
       6        0.001928843919    -0.001069542705     0.001698290897
       7       -0.000005770936    -0.000002957226    -0.000007771561
       8       -0.000006781490    -0.000005086780     0.000004581404
       9        0.000002137767     0.000001670563    -0.000001221261
      10        0.000016501911     0.000001990042    -0.000003792241
      11       -0.000002639290     0.000000355925     0.000007805363
      12       -0.000001606980    -0.000005673687     0.000001372342
      13        0.000009479484    -0.000001097067     0.000016353710

  **** Optimization is complete! (in 5 steps) ****
    Final optimized geometry and variables:
    Molecular point group: c1

    Geometry (in Angstrom), charge = 0, multiplicity = 1:

    H           -0.070987952341     1.920218006801     0.103378245969
    C            0.625597808058     1.154396581048     0.458206363347
    N            0.254697420363    -0.181279135740     0.048496081680
    H            1.602326428214     1.401849594755     0.053710655131
    H            0.688392810992     1.212093651447     1.537655183487
    C           -0.783257775952    -0.759577571884     0.869360498734
    C           -0.034433383814    -0.258970043871    -1.362558620938
    H           -0.958408179496    -1.785979441102     0.566732469337
    H           -0.469458644343    -0.767522669601     1.906713999339
    H           -1.736158452236    -0.223421567669     0.806691531683
    H            0.811887628648     0.110814752929    -1.931094221464
    H           -0.203859125853    -1.290692725679    -1.649639049026
    H           -0.915367054492     0.323865849834    -1.651329481913

  Mulliken Charges: (a.u.)
   Center  Symbol    Alpha    Beta     Spin     Total
       1     H     0.43422  0.43422  0.00000  0.13155
       2     C     3.14194  3.14194  0.00000 -0.28388
       3     N     3.76817  3.76817  0.00000 -0.53634
       4     H     0.41651  0.41651  0.00000  0.16698
       5     H     0.41769  0.41769  0.00000  0.16462
       6     C     3.14098  3.14098  0.00000 -0.28196
       7     C     3.14170  3.14170  0.00000 -0.28340
       8     H     0.41747  0.41747  0.00000  0.16506
       9     H     0.41686  0.41686  0.00000  0.16628
      10     H     0.43555  0.43555  0.00000  0.12891
      11     H     0.41693  0.41693  0.00000  0.16614
      12     H     0.41691  0.41691  0.00000  0.16618
      13     H     0.43507  0.43507  0.00000  0.12987

   Total alpha = 17.00000, Total beta = 17.00000, Total charge =  0.00000
