  ==> Input File <==

--------------------------------------------------------------------------
set {
	reference rhf
	basis 6-31G*
}

set_num_threads( 1 )
memory 2 gb

molecule MOL {
0 1

O	 -2.978353	 0.992105	 0.757926
C	 -2.668563	 0.129746	 -0.000350
C	 -3.581202	 -0.418179	 -1.067184
O	 -1.481751	 -0.454642	 0.000584
H	 -3.883040	 0.394033	 -1.717620
H	 -3.103426	 -1.194458	 -1.646460
H	 -4.474409	 -0.808405	 -0.594124
C	 -0.334255	 0.388708	 0.000906
C	 0.891947	 -0.504646	 0.000751
H	 -0.365390	 1.025305	 -0.873475
H	 -0.365484	 1.024911	 0.875569
C	 2.191998	 0.301789	 0.000897
H	 0.855148	 -1.151283	 -0.871571
H	 0.855132	 -1.151660	 0.872805
C	 3.441114	 -0.581407	 0.000108
H	 2.215074	 0.954890	 -0.869742
H	 2.215465	 0.953923	 0.872248
C	 4.739576	 0.224112	 -0.001102
H	 3.419457	 -1.233487	 -0.870178
H	 3.420834	 -1.233096	 0.870717
H	 4.804918	 0.861552	 -0.878265
H	 5.606527	 -0.429058	 -0.001824
H	 4.806469	 0.861674	 0.875853

	symmetry c1
}
set optking {
	frozen_dihedral = ("
		13 9 8 10,
		2 4 8 10,
		16 12 9 13,
		19 15 12 16
	")
}

ee = energy('scf')
oeprop('DIPOLE', 'QUADRUPOLE', 'MULLIKEN_CHARGES')
f=open( 'psi4out.xyz', 'w' )
f.write( "23  " )
f.write( str(ee) + "\n" )
f.write( MOL.save_string_xyz() )
f.close()
--------------------------------------------------------------------------

    Molecular point group: c1

    Geometry (in Angstrom), charge = 0, multiplicity = 1:

       Center              X                  Y                   Z               Mass
    ------------   -----------------  -----------------  -----------------  -----------------
           O         -2.985739121042     0.977161136351     0.793640302975    15.994914619560
           C         -2.675949121042     0.114802136351     0.035364302975    12.000000000000
           C         -3.588588121042    -0.433122863649    -1.031469697025    12.000000000000
           O         -1.489137121042    -0.469585863649     0.036298302975    15.994914619560
           H         -3.890426121042     0.379089136351    -1.681905697025     1.007825032070
           H         -3.110812121042    -1.209401863649    -1.610745697025     1.007825032070
           H         -4.481795121042    -0.823348863649    -0.558409697025     1.007825032070
           C         -0.341641121042     0.373764136351     0.036620302975    12.000000000000
           C          0.884560878958    -0.519589863649     0.036465302975    12.000000000000
           H         -0.372776121042     1.010361136351    -0.837760697025     1.007825032070
           H         -0.372870121042     1.009967136351     0.911283302975     1.007825032070
           C          2.184611878958     0.286845136351     0.036611302975    12.000000000000
           H          0.847761878958    -1.166226863649    -0.835856697025     1.007825032070
           H          0.847745878958    -1.166603863649     0.908519302975     1.007825032070
           C          3.433727878958    -0.596350863649     0.035822302975    12.000000000000
           H          2.207687878958     0.939946136351    -0.834027697025     1.007825032070
           H          2.208078878958     0.938979136351     0.907962302975     1.007825032070
           C          4.732189878958     0.209168136351     0.034612302975    12.000000000000
           H          3.412070878958    -1.248430863649    -0.834463697025     1.007825032070
           H          3.413447878958    -1.248039863649     0.906431302975     1.007825032070
           H          4.797531878958     0.846608136351    -0.842550697025     1.007825032070
           H          5.599140878958    -0.444001863649     0.033890302975     1.007825032070
           H          4.799082878958     0.846730136351     0.911567302975     1.007825032070

  Charge       = 0
  Multiplicity = 1
  Basis Set: 6-31G*
  Basis Set:

    Orbital Energies (a.u.)
    -----------------------

    Doubly Occupied:

       1A    -20.590583     2A    -20.545361     3A    -11.374557
       4A    -11.287693     5A    -11.231644     6A    -11.226168
       7A    -11.225401     8A    -11.222767     9A    -11.213876
      10A     -1.464108    11A     -1.361847    12A     -1.095284
      13A     -1.040744    14A     -1.004414    15A     -0.933520
      16A     -0.843155    17A     -0.804472    18A     -0.775191
      19A     -0.697038    20A     -0.682461    21A     -0.660565
      22A     -0.648150    23A     -0.611660    24A     -0.589602
      25A     -0.583367    26A     -0.571273    27A     -0.556083
      28A     -0.547938    29A     -0.515438    30A     -0.503450
      31A     -0.491403    32A     -0.478953    33A     -0.472635
      34A     -0.469259    35A     -0.448246    36A     -0.432677

  @DF-RHF Final Energy:  -422.96678271880785

   => Energetics <=

    Nuclear Repulsion Energy =            449.4585291536785689
    One-Electron Energy =               -1466.4487528991262479
    Two-Electron Energy =                 594.0234410266411942
    DFT Exchange-Correlation Energy =       0.0000000000000000
    Empirical Dispersion Energy =           0.0000000000000000
    PCM Polarization Energy =               0.0000000000000000
    EFP Energy =                            0.0000000000000000
    Total Energy =                       -422.9667827188064848

  Mulliken Charges: (a.u.)
   Center  Symbol    Alpha    Beta     Spin     Total
       1     O     4.27118  4.27118  0.00000 -0.54236
       2     C     2.61698  2.61698  0.00000  0.76605
       3     C     3.29194  3.29194  0.00000 -0.58388
       4     O     4.31670  4.31670  0.00000 -0.63339
       5     H     0.39814  0.39814  0.00000  0.20373
       6     H     0.40074  0.40074  0.00000  0.19852
       7     H     0.39697  0.39697  0.00000  0.20606
       8     C     2.99725  2.99725  0.00000  0.00551
       9     C     3.16445  3.16445  0.00000 -0.32889
      10     H     0.42012  0.42012  0.00000  0.15975
      11     H     0.40470  0.40470  0.00000  0.19059
      12     C     3.16068  3.16068  0.00000 -0.32136
      13     H     0.41458  0.41458  0.00000  0.17084
      14     H     0.41064  0.41064  0.00000  0.17872
      15     C     3.15157  3.15157  0.00000 -0.30313
      16     H     0.42215  0.42215  0.00000  0.15571
      17     H     0.41983  0.41983  0.00000  0.16035
      18     C     3.23992  3.23992  0.00000 -0.47984
      19     H     0.42149  0.42149  0.00000  0.15701
      20     H     0.42055  0.42055  0.00000  0.15889
      21     H     0.42122  0.42122  0.00000  0.15755
      22     H     0.41770  0.41770  0.00000  0.16460
      23     H     0.42051  0.42051  0.00000  0.15898

   Total alpha = 36.00000, Total beta = 36.00000, Total charge =  0.00000
