  ==> Input File <==

--------------------------------------------------------------------------
set {
	reference rhf
	basis 6-31G*
}

set_num_threads( 4 )
memory 2 gb

molecule MOL {
0 1

O	 -2.021257	 0.135387	 0.852937
C	 -1.083277	 0.139568	 0.115197
C	 0.323299	 -0.082943	 0.642902
C	 -1.240457	 0.389703	 -1.368230
C	 1.355627	 -0.005344	 -0.493127
H	 0.396251	 -1.044647	 1.143147
H	 0.528637	 0.693580	 1.371677
C	 2.786168	 -0.195604	 0.007473
H	 1.132807	 -0.760304	 -1.243899
H	 1.259610	 0.958506	 -0.981915
H	 3.495561	 -0.130713	 -0.811210
H	 2.912696	 -1.165395	 0.480041
H	 3.049284	 0.565503	 0.735850
H	 -0.566114	 1.173710	 -1.700290
H	 -2.261938	 0.665046	 -1.590714
H	 -0.981359	 -0.510402	 -1.919485

	symmetry c1
}
set optking {
	frozen_dihedral = ("
		4 2 3 5
	")
}

ee = optimize('scf')
oeprop('DIPOLE', 'QUADRUPOLE', 'MULLIKEN_CHARGES')
f=open( 'psi4out.xyz', 'w' )
f.write( "16  " )
f.write( str(ee) + "\n" )
f.write( MOL.save_string_xyz() )
f.close()
--------------------------------------------------------------------------

    Molecular point group: c1
  Charge       = 0
  Multiplicity = 1
  Basis Set: 6-31G*
  Basis Set:
  @DF-RHF Final Energy:  -270.02211535192657
    Total Energy =                       -270.0221153519265727
    Molecular point group: c1
  Basis Set: 6-31G*
  Basis Set:
  Basis Set: 6-31G*
  Basis Set:
  @DF-RHF Final Energy:  -270.02475873786233
    Total Energy =                       -270.0247587378622711
  Basis Set: 6-31G*
  Basis Set:
  Basis Set: 6-31G*
  Basis Set:
  @DF-RHF Final Energy:  -270.02731126392717
    Total Energy =                       -270.0273112639272313
  Basis Set: 6-31G*
  Basis Set:
  Basis Set: 6-31G*
  Basis Set:
  @DF-RHF Final Energy:  -270.02763331105007
    Total Energy =                       -270.0276333110497831
  Basis Set: 6-31G*
  Basis Set:
  @DF-RHF Final Energy:  -270.02761012238716
    Total Energy =                       -270.0276101223873866
  @DF-RHF Final Energy:  -270.02775359347197
    Total Energy =                       -270.0277535934719708
  @DF-RHF Final Energy:  -270.02775197845006
    Total Energy =                       -270.0277519784501692
  @DF-RHF Final Energy:  -270.02774723810597
    Total Energy =                       -270.0277472381059169
  Basis Set: 6-31G*
  Basis Set:
  @DF-RHF Final Energy:  -270.02777048682611
    Total Energy =                       -270.0277704868259434
  Basis Set: 6-31G*
  Basis Set:
  Basis Set: 6-31G*
  Basis Set:
  @DF-RHF Final Energy:  -270.02776781278516
    Total Energy =                       -270.0277678127850436
  Basis Set: 6-31G*
  Basis Set:
  Basis Set: 6-31G*
  Basis Set:
  @DF-RHF Final Energy:  -270.02777507282923
    Total Energy =                       -270.0277750728290584
  Basis Set: 6-31G*
  Basis Set:
  Charge       = 0
  Multiplicity = 1
  Basis Set: 6-31G*
  Basis Set:

    Orbital Energies (a.u.)
    -----------------------

    Doubly Occupied:

       1A    -20.545421     2A    -11.326589     3A    -11.233737
       4A    -11.231438     5A    -11.228051     6A    -11.221363
       7A     -1.392792     8A     -1.084734     9A     -1.008638
      10A     -0.952377    11A     -0.834905    12A     -0.733358
      13A     -0.655944    14A     -0.652584    15A     -0.623959
      16A     -0.597467    17A     -0.576722    18A     -0.553988
      19A     -0.539222    20A     -0.520808    21A     -0.503993
      22A     -0.490518    23A     -0.468057    24A     -0.397787

  @DF-RHF Final Energy:  -270.02777523339086

   => Energetics <=

    Nuclear Repulsion Energy =            236.5362311400457429
    One-Electron Energy =                -834.3791054562994987
    Two-Electron Energy =                 327.8150990828629574
    DFT Exchange-Correlation Energy =       0.0000000000000000
    Empirical Dispersion Energy =           0.0000000000000000
    PCM Polarization Energy =               0.0000000000000000
    EFP Energy =                            0.0000000000000000
    Total Energy =                       -270.0277752333907983
    Molecular point group: c1
  Basis Set: 6-31G*
  Basis Set:

  -Total Gradient:
     Atom            X                  Y                   Z
    ------   -----------------  -----------------  -----------------
       1        0.000008251977    -0.000001267014    -0.000004299970
       2       -0.000017935806    -0.000019517724     0.000000417575
       3        0.000009087823    -0.000002960634     0.000006157341
       4        0.000006430777     0.000050923484     0.000004742185
       5        0.000003808213    -0.000007248448    -0.000002053092
       6       -0.000004602411     0.000006325957    -0.000005491616
       7        0.000000397836     0.000004907531     0.000002467829
       8       -0.000001524572     0.000009067463     0.000000414294
       9       -0.000002957542    -0.000003111610    -0.000002111822
      10        0.000003194581    -0.000004750241     0.000001507096
      11        0.000000202479     0.000003815748     0.000000202968
      12        0.000000958833    -0.000001422447    -0.000004029142
      13       -0.000000664331    -0.000002567738     0.000004392704
      14       -0.000005175944    -0.000012231689    -0.000008666333
      15       -0.000000944621    -0.000005012556     0.000000500820
      16        0.000001472710    -0.000014950080     0.000005849161

  **** Optimization is complete! (in 12 steps) ****
    Final optimized geometry and variables:
    Molecular point group: c1

    Geometry (in Angstrom), charge = 0, multiplicity = 1:

    O           -2.001052685019     0.069950812509     0.950084298357
    C           -1.128401121024     0.095432575194     0.136239765056
    C            0.314179239461    -0.113836407138     0.587172854731
    C           -1.439516610397     0.331334087771    -1.325895708934
    C            1.416690992539    -0.077463715894    -0.472663101066
    H            0.329964108865    -1.066914904154     1.109364950231
    H            0.502962564260     0.639229715886     1.347820500743
    C            2.799222980273    -0.303380858871     0.139249741003
    H            1.234579208354    -0.836874658925    -1.228181523629
    H            1.408782131014     0.879105286341    -0.987988540924
    H            3.571893479129    -0.274234505755    -0.622049217852
    H            2.856236291449    -1.268781703265     0.633350785711
    H            3.030890787464     0.459352832294     0.876783700636
    H           -0.928201064955     1.216454977858    -1.691243770406
    H           -2.506703977926     0.457202889749    -1.442179003077
    H           -1.105532586096    -0.506065925845    -1.930646469108

  Mulliken Charges: (a.u.)
   Center  Symbol    Alpha    Beta     Spin     Total
       1     O     4.26331  4.26331  0.00000 -0.52662
       2     C     2.73813  2.73813  0.00000  0.52374
       3     C     3.20310  3.20310  0.00000 -0.40621
       4     C     3.29179  3.29179  0.00000 -0.58357
       5     C     3.16134  3.16134  0.00000 -0.32267
       6     H     0.40037  0.40037  0.00000  0.19925
       7     H     0.40037  0.40037  0.00000  0.19925
       8     C     3.24027  3.24027  0.00000 -0.48055
       9     H     0.41897  0.41897  0.00000  0.16206
      10     H     0.41897  0.41897  0.00000  0.16205
      11     H     0.41561  0.41561  0.00000  0.16878
      12     H     0.41859  0.41859  0.00000  0.16282
      13     H     0.41860  0.41860  0.00000  0.16281
      14     H     0.40764  0.40764  0.00000  0.18473
      15     H     0.39531  0.39531  0.00000  0.20938
      16     H     0.40762  0.40762  0.00000  0.18475

   Total alpha = 24.00000, Total beta = 24.00000, Total charge = -0.00000
