  ==> Input File <==

--------------------------------------------------------------------------
set {
	reference rhf
	basis 6-31G*
}

set_num_threads( 4 )
memory 2 gb

molecule MOL {
0 1

H	 -3.519146	 1.078596	 1.338418
O	 -2.659361	 1.365404	 1.065862
C	 -2.026376	 0.340750	 0.341611
C	 -0.673256	 0.843270	 -0.132153
H	 -1.892241	 -0.539286	 0.968094
H	 -2.633610	 0.045723	 -0.513304
C	 0.486613	 -0.083066	 0.235839
H	 -0.715586	 0.970948	 -1.210718
H	 -0.508072	 1.829858	 0.297090
C	 1.840406	 0.433480	 -0.254303
H	 0.300215	 -1.068318	 -0.178947
H	 0.519509	 -0.203625	 1.318070
C	 3.000220	 -0.489290	 0.118523
H	 1.809207	 0.553576	 -1.335192
H	 2.021860	 1.424500	 0.157276
H	 2.864959	 -1.479103	 -0.307933
H	 3.946603	 -0.099227	 -0.243630
H	 3.080049	 -0.602997	 1.196117

	symmetry c1
}
set optking {
	frozen_dihedral = ("
		2 3 4 8
	")
}

ee = optimize('scf')
oeprop('DIPOLE', 'QUADRUPOLE', 'MULLIKEN_CHARGES')
f=open( 'psi4out.xyz', 'w' )
f.write( "18  " )
f.write( str(ee) + "\n" )
f.write( MOL.save_string_xyz() )
f.close()
--------------------------------------------------------------------------

    Molecular point group: c1
  Charge       = 0
  Multiplicity = 1
  Basis Set: 6-31G*
  Basis Set:
  @DF-RHF Final Energy:  -271.17377225168605
    Total Energy =                       -271.1737722516858753
    Molecular point group: c1
  Basis Set: 6-31G*
  Basis Set:
  Basis Set: 6-31G*
  Basis Set:
  @DF-RHF Final Energy:  -271.17408645501177
    Total Energy =                       -271.1740864550117180
  Basis Set: 6-31G*
  Basis Set:
  Basis Set: 6-31G*
  Basis Set:
  @DF-RHF Final Energy:  -271.17416487408491
    Total Energy =                       -271.1741648740851360
  Basis Set: 6-31G*
  Basis Set:
  Charge       = 0
  Multiplicity = 1
  Basis Set: 6-31G*
  Basis Set:

    Orbital Energies (a.u.)
    -----------------------

    Doubly Occupied:

       1A    -20.551386     2A    -11.267513     3A    -11.214667
       4A    -11.214068     5A    -11.210826     6A    -11.207949
       7A     -1.357454     8A     -1.078282     9A     -1.008397
      10A     -0.912354    11A     -0.820583    12A     -0.791245
      13A     -0.699453    14A     -0.646338    15A     -0.625588
      16A     -0.581515    17A     -0.570465    18A     -0.560523
      19A     -0.527271    20A     -0.496673    21A     -0.489984
      22A     -0.468489    23A     -0.463049    24A     -0.451633
      25A     -0.427294

  @DF-RHF Final Energy:  -271.17416576859966

   => Energetics <=

    Nuclear Repulsion Energy =            245.5125451675252179
    One-Electron Energy =                -854.0874238578771838
    Two-Electron Energy =                 337.4007129217523016
    DFT Exchange-Correlation Energy =       0.0000000000000000
    Empirical Dispersion Energy =           0.0000000000000000
    PCM Polarization Energy =               0.0000000000000000
    EFP Energy =                            0.0000000000000000
    Total Energy =                       -271.1741657685996643
    Molecular point group: c1
  Basis Set: 6-31G*
  Basis Set:

  -Total Gradient:
     Atom            X                  Y                   Z
    ------   -----------------  -----------------  -----------------
       1       -0.000047747952     0.000029976411     0.000037740778
       2        0.000596172785    -0.000585046485     0.001219374021
       3       -0.000623050170     0.000287449988    -0.001658418147
       4       -0.000494004266     0.002134705694     0.000670345390
       5       -0.000005018063     0.000001282798     0.000008023370
       6       -0.000032957189     0.000009250525     0.000019140084
       7       -0.000015565763     0.000026395020    -0.000036839434
       8        0.000591987732    -0.001867714068    -0.000235928665
       9       -0.000000208282    -0.000005659896    -0.000014424108
      10        0.000017813226    -0.000000742634     0.000019260741
      11       -0.000004265596    -0.000019184788    -0.000029934395
      12       -0.000023929880    -0.000031189566    -0.000010060495
      13        0.000022593455     0.000027479381     0.000021564668
      14       -0.000005068522    -0.000016832180     0.000006906626
      15        0.000017797111     0.000010830782    -0.000016825385
      16       -0.000005080617     0.000010362417    -0.000006252832
      17        0.000009676332    -0.000003819843     0.000006642857
      18        0.000000855659    -0.000007543555    -0.000000315075

  **** Optimization is complete! (in 4 steps) ****
    Final optimized geometry and variables:
    Molecular point group: c1

    Geometry (in Angstrom), charge = 0, multiplicity = 1:

    H           -3.460187254332     0.657531296159     1.096107313587
    O           -2.606334533840     0.953378179635     0.813448297640
    C           -1.968371105923    -0.072879044564     0.092855712838
    C           -0.604413850629     0.437567545528    -0.388979614470
    H           -1.837537479608    -0.944595049116     0.731653252074
    H           -2.583031890968    -0.382087345898    -0.749504814127
    C            0.555206696268    -0.491711571804    -0.021657582767
    H           -0.618041130070     0.569562630618    -1.467495430809
    H           -0.445946841147     1.415846810296     0.050923698541
    C            1.911641035376     0.018687348993    -0.509174071054
    H            0.375052001687    -1.482089237292    -0.438546706147
    H            0.583856745002    -0.616633643538     1.059311857369
    C            3.068824385711    -0.905134863863    -0.130896367091
    H            1.884253206674     0.138521805551    -1.590222083857
    H            2.090857873777     1.009447487090    -0.097373421084
    H            2.935706260016    -1.895490369485    -0.557390220162
    H            4.016671390237    -0.515777511615    -0.489452861763
    H            3.144177708340    -1.017819793057     0.946953374033

  Mulliken Charges: (a.u.)
   Center  Symbol    Alpha    Beta     Spin     Total
       1     H     0.28206  0.28206  0.00000  0.43588
       2     O     4.37133  4.37133  0.00000 -0.74265
       3     C     2.99500  2.99500  0.00000  0.01000
       4     C     3.16519  3.16519  0.00000 -0.33039
       5     H     0.42935  0.42935  0.00000  0.14130
       6     H     0.43037  0.43037  0.00000  0.13925
       7     C     3.15846  3.15846  0.00000 -0.31692
       8     H     0.42027  0.42027  0.00000  0.15946
       9     H     0.40332  0.40332  0.00000  0.19336
      10     C     3.15205  3.15205  0.00000 -0.30409
      11     H     0.42555  0.42555  0.00000  0.14891
      12     H     0.42059  0.42059  0.00000  0.15883
      13     C     3.23928  3.23928  0.00000 -0.47856
      14     H     0.42315  0.42315  0.00000  0.15370
      15     H     0.42112  0.42112  0.00000  0.15776
      16     H     0.42236  0.42236  0.00000  0.15528
      17     H     0.41916  0.41916  0.00000  0.16168
      18     H     0.42140  0.42140  0.00000  0.15719

   Total alpha = 25.00000, Total beta = 25.00000, Total charge = -0.00000
