  ==> Input File <==

--------------------------------------------------------------------------
set {
	reference rhf
	basis cc-pvtz
}

set_num_threads( 4 )
memory 2 gb

molecule MOL {
0 1

H	 -3.815655	 -2.315565	 0.008033
C	 -2.745399	 -2.233543	 0.008429
C	 -1.965776	 -3.376219	 0.019422
C	 -2.150232	 -0.986286	 -0.002051
H	 -2.428434	 -4.343990	 0.027552
C	 -0.590561	 -3.270015	 0.019922
H	 -2.755722	 -0.100746	 -0.010571
C	 -0.773339	 -0.878299	 -0.001564
H	 0.028089	 -4.144235	 0.028356
C	 0.010740	 -2.020932	 0.009433
H	 -0.309252	 0.086112	 -0.009662
C	 1.500428	 -1.959704	 0.010458
O	 1.968286	 -0.725612	 -0.000027
O	 2.199738	 -2.916814	 0.019747
C	 3.373556	 -0.568203	 0.000011
H	 3.695416	 -0.031588	 -0.879663
H	 3.782700	 -1.565294	 -0.000152
H	 3.695405	 -0.031851	 0.879862

	symmetry c1
}
set optking {
	frozen_dihedral = ("
		12 13 15 16
	")
}

ee = optimize('scf')
oeprop('DIPOLE', 'QUADRUPOLE', 'MULLIKEN_CHARGES')
f=open( 'psi4out.xyz', 'w' )
f.write( "18  " )
f.write( str(ee) + "\n" )
f.write( MOL.save_string_xyz() )
f.close()
--------------------------------------------------------------------------

    Molecular point group: c1
  Charge       = 0
  Multiplicity = 1
  Basis Set: CC-PVTZ
  Basis Set:
  @DF-RHF Final Energy:  -457.50600312039785
    Total Energy =                       -457.5060031203981907
    Molecular point group: c1
  Basis Set: CC-PVTZ
  Basis Set:
  Basis Set: CC-PVTZ
  Basis Set:
  @DF-RHF Final Energy:  -457.50643817921809
    Total Energy =                       -457.5064381792185486
  Basis Set: CC-PVTZ
  Basis Set:
  Basis Set: CC-PVTZ
  Basis Set:
  @DF-RHF Final Energy:  -457.50806255711950
    Total Energy =                       -457.5080625571195014
  Basis Set: CC-PVTZ
  Basis Set:
  Basis Set: CC-PVTZ
  Basis Set:
  @DF-RHF Final Energy:  -457.50808187237027
    Total Energy =                       -457.5080818723706670
  Basis Set: CC-PVTZ
  Basis Set:
  Basis Set: CC-PVTZ
  Basis Set:
  @DF-RHF Final Energy:  -457.50789725955508
    Total Energy =                       -457.5078972595546247
  Basis Set: CC-PVTZ
  Basis Set:
  Basis Set: CC-PVTZ
  Basis Set:
  @DF-RHF Final Energy:  -457.50809418100749
    Total Energy =                       -457.5080941810072090
  Basis Set: CC-PVTZ
  Basis Set:
  Charge       = 0
  Multiplicity = 1
  Basis Set: CC-PVTZ
  Basis Set:

    Orbital Energies (a.u.)
    -----------------------

    Doubly Occupied:

       1A    -20.599860     2A    -20.533616     3A    -11.373297
       4A    -11.279820     5A    -11.244535     6A    -11.243167
       7A    -11.242227     8A    -11.239604     9A    -11.235667
      10A    -11.234902    11A     -1.474345    12A     -1.369102
      13A     -1.170319    14A     -1.051538    15A     -1.028643
      16A     -0.981636    17A     -0.862715    18A     -0.838016
      19A     -0.780326    20A     -0.745060    21A     -0.688401
      22A     -0.679192    23A     -0.676036    24A     -0.634299
      25A     -0.629707    26A     -0.600855    27A     -0.587418
      28A     -0.571641    29A     -0.526146    30A     -0.519975
      31A     -0.510130    32A     -0.501469    33A     -0.459916
      34A     -0.450054    35A     -0.349992    36A     -0.345842

  @DF-RHF Final Energy:  -457.50809450067561

   => Energetics <=

    Nuclear Repulsion Energy =            493.5875868544621881
    One-Electron Energy =               -1601.6724239959696661
    Two-Electron Energy =                 650.5767426408319807
    DFT Exchange-Correlation Energy =       0.0000000000000000
    Empirical Dispersion Energy =           0.0000000000000000
    PCM Polarization Energy =               0.0000000000000000
    EFP Energy =                            0.0000000000000000
    Total Energy =                       -457.5080945006754973
    Molecular point group: c1
  Basis Set: CC-PVTZ
  Basis Set:

  -Total Gradient:
     Atom            X                  Y                   Z
    ------   -----------------  -----------------  -----------------
       1        0.000003378472     0.000003475334    -0.000000187819
       2        0.000007307392    -0.000002998743     0.000000389300
       3       -0.000001193557     0.000006785717     0.000000756797
       4        0.000008651716     0.000003581377    -0.000000643183
       5        0.000004479190     0.000001219404     0.000000094981
       6        0.000011440511     0.000001160192    -0.000000612418
       7       -0.000000391306     0.000000156871     0.000000011178
       8       -0.000011386356     0.000006437502    -0.000000547325
       9        0.000000408122     0.000000087761    -0.000000271701
      10        0.000017668010    -0.000017071045    -0.000001074301
      11       -0.000002388160    -0.000002292403     0.000000610680
      12       -0.000045863065     0.000042676959     0.000061081161
      13       -0.000015874843     0.000024969988    -0.000071601022
      14        0.000021791264    -0.000030263767     0.000000119647
      15        0.000020325099    -0.000085871294    -0.000027065292
      16       -0.000016324924     0.000060499061     0.000035277681
      17        0.000014482468    -0.000015040633     0.000001910287
      18       -0.000016510027     0.000002487721     0.000001751347

  **** Optimization is complete! (in 7 steps) ****
    Final optimized geometry and variables:
    Molecular point group: c1

    Geometry (in Angstrom), charge = 0, multiplicity = 1:

    H           -4.027545390321    -0.402693641057     0.001598501867
    C           -2.956281171184    -0.334480828967     0.001392872836
    C           -2.191343030039    -1.487119937680     0.009037147834
    C           -2.344843598794     0.904823088036    -0.006523056335
    H           -2.666326529992    -2.448981424435     0.015171986332
    C           -0.814884434636    -1.398642716975     0.008750186406
    H           -2.938595347661     1.798347947061    -0.012455945282
    C           -0.966529733584     0.995027260444    -0.006801531217
    H           -0.207894260751    -2.280997225954     0.014588740124
    C           -0.197074816598    -0.157469991868     0.000850059267
    H           -0.490470274160     1.953501552444    -0.012920199515
    C            1.294703596919    -0.117730207063     0.000944825524
    O            1.769781407586     1.114521954768    -0.007152234400
    O            1.973365298487    -1.089032164862     0.007508046362
    C            3.169434926749     1.326104009243    -0.006894547302
    H            3.423714341926     1.877551436465    -0.900120403082
    H            3.700647315133     0.390999368802     0.016104196763
    H            3.415342871913     1.916493746210     0.863385078108

  Mulliken Charges: (a.u.)
   Center  Symbol    Alpha    Beta     Spin     Total
       1     H     0.42035  0.42035  0.00000  0.15930
       2     C     3.06971  3.06971  0.00000 -0.13942
       3     C     3.07553  3.07553  0.00000 -0.15106
       4     C     3.07477  3.07477  0.00000 -0.14955
       5     H     0.42050  0.42050  0.00000  0.15900
       6     C     3.07600  3.07600  0.00000 -0.15200
       7     H     0.42200  0.42200  0.00000  0.15600
       8     C     3.08183  3.08183  0.00000 -0.16367
       9     H     0.40633  0.40633  0.00000  0.18734
      10     C     3.01881  3.01881  0.00000 -0.03762
      11     H     0.41126  0.41126  0.00000  0.17749
      12     C     2.77410  2.77410  0.00000  0.45180
      13     O     4.15030  4.15030  0.00000 -0.30060
      14     O     4.21149  4.21149  0.00000 -0.42298
      15     C     3.04316  3.04316  0.00000 -0.08631
      16     H     0.45252  0.45252  0.00000  0.09497
      17     H     0.43908  0.43908  0.00000  0.12183
      18     H     0.45227  0.45227  0.00000  0.09547

   Total alpha = 36.00000, Total beta = 36.00000, Total charge =  0.00000
