                              Psi4 1.0.54 Driver

  ==> Input File <==

--------------------------------------------------------------------------
set {
	reference rhf
	basis cc-pvtz
}

set_num_threads( 4 )
memory 2 gb

molecule MOL {
0 1

O	 2.426299	 2.037216	 -0.324930
C	 1.481941	 2.268606	 -1.006660
C	 0.229639	 1.416297	 -0.972889
C	 1.467938	 3.440533	 -1.961970
C	 0.288398	 0.247429	 0.000314
H	 -0.606112	 2.071653	 -0.738163
H	 0.044884	 1.065613	 -1.985752
C	 -0.993089	 -0.581367	 -0.000217
H	 0.482737	 0.624787	 0.997784
H	 1.134431	 -0.382071	 -0.250868
C	 -2.258482	 0.271340	 0.000669
H	 -1.002280	 -1.233920	 -0.870484
H	 -1.002061	 -1.235367	 0.868958
C	 -3.544441	 -0.550271	 -0.000253
H	 -2.250545	 0.925250	 -0.867923
H	 -2.250598	 0.923423	 0.870642
C	 -4.804551	 0.308747	 0.000556
H	 -3.553737	 -1.201524	 -0.870151
H	 -3.553831	 -1.203282	 0.868313
H	 -4.842050	 0.949078	 -0.874436
H	 -5.698404	 -0.304480	 -0.000254
H	 -4.842277	 0.947103	 0.876982
H	 0.650029	 4.110375	 -1.720343
H	 2.404206	 3.973558	 -1.901328
H	 1.310634	 3.093338	 -2.977230

	symmetry c1
}
set optking {
	frozen_dihedral = ("
		9 5 8 12
	")
}

ee,wfn = optimize('scf', return_wfn=True)
oeprop( wfn, 'DIPOLE', 'QUADRUPOLE', 'MULLIKEN_CHARGES')
f=open( 'psi4out.xyz', 'w' )
f.write( "25  " )
f.write( str(ee) + "\n" )
f.write( MOL.save_string_xyz() )
f.close()
--------------------------------------------------------------------------

    Molecular point group: c1
  Charge       = 0
  Multiplicity = 1
  Basis Set: CC-PVTZ
  Basis Set:
  @DF-RHF Final Energy:  -387.26890707166086
    Total Energy =                       -387.2689070716610331
    Molecular point group: c1
  Basis Set: CC-PVTZ
  Basis Set:
  Basis Set: CC-PVTZ
  Basis Set:
  @DF-RHF Final Energy:  -387.26879166814768
    Total Energy =                       -387.2687916681477418
  Basis Set: CC-PVTZ
  Basis Set:
  Basis Set: CC-PVTZ
  Basis Set:
  @DF-RHF Final Energy:  -387.27136819653975
    Total Energy =                       -387.2713681965400383
  Basis Set: CC-PVTZ
  Basis Set:
  Basis Set: CC-PVTZ
  Basis Set:
  @DF-RHF Final Energy:  -387.27125471818198
    Total Energy =                       -387.2712547181818081
  Basis Set: CC-PVTZ
  Basis Set:
  @DF-RHF Final Energy:  -387.27087829166692
    Total Energy =                       -387.2708782916668042
  Basis Set: CC-PVTZ
  Basis Set:
  @DF-RHF Final Energy:  -387.27157035061020
    Total Energy =                       -387.2715703506102045
  Basis Set: CC-PVTZ
  Basis Set:
  Basis Set: CC-PVTZ
  Basis Set:
  @DF-RHF Final Energy:  -387.27158034864249
    Total Energy =                       -387.2715803486422601
  Basis Set: CC-PVTZ
  Basis Set:
  Basis Set: CC-PVTZ
  Basis Set:
  @DF-RHF Final Energy:  -387.27158356047522
    Total Energy =                       -387.2715835604752783
  Basis Set: CC-PVTZ
  Basis Set:
  Charge       = 0
  Multiplicity = 1
  Basis Set: CC-PVTZ
  Basis Set:

    Orbital Energies (a.u.)
    -----------------------

    Doubly Occupied:

       1A    -20.538772     2A    -11.320415     3A    -11.229730
       4A    -11.226468     5A    -11.215718     6A    -11.215360
       7A    -11.214882     8A    -11.214498     9A    -11.208949
      10A     -1.398877    11A     -1.095848    12A     -1.057092
      13A     -1.015494    14A     -0.969010    15A     -0.900343
      16A     -0.817241    17A     -0.787521    18A     -0.730872
      19A     -0.660116    20A     -0.654341    21A     -0.636591
      22A     -0.624160    23A     -0.597874    24A     -0.582747
      25A     -0.568849    26A     -0.564382    27A     -0.544704
      28A     -0.529822    29A     -0.518331    30A     -0.495651
      31A     -0.491336    32A     -0.476895    33A     -0.460474
      34A     -0.460021    35A     -0.448494    36A     -0.402901

  @DF-RHF Final Energy:  -387.27158418309176

   => Energetics <=

    Nuclear Repulsion Energy =            445.8502353310216790
    One-Electron Energy =               -1408.4940922281475650
    Two-Electron Energy =                 575.3722727140342386
    DFT Exchange-Correlation Energy =       0.0000000000000000
    Empirical Dispersion Energy =           0.0000000000000000
    PCM Polarization Energy =               0.0000000000000000
    EFP Energy =                            0.0000000000000000
    Total Energy =                       -387.2715841830917043
    Molecular point group: c1
  Basis Set: CC-PVTZ
  Basis Set:

  -Total Gradient:
     Atom            X                  Y                   Z
    ------   -----------------  -----------------  -----------------
       1       -0.000004687580    -0.000010398123     0.000001477265
       2       -0.000010494804     0.000007667786    -0.000007470961
       3        0.000011019219     0.000001618804     0.000011280062
       4        0.000004293784     0.000000226321     0.000006691992
       5       -0.002226295848     0.003384507246    -0.000508691520
       6        0.000002691156    -0.000000873841    -0.000001771181
       7       -0.000001999873     0.000001542951     0.000006957139
       8       -0.001678631888     0.002743623916    -0.002377462084
       9        0.002126715065    -0.003259749962     0.000807810347
      10       -0.000003153792    -0.000008752878    -0.000001477169
      11        0.000004439445     0.000001994376    -0.000011642648
      12        0.001770023276    -0.002854871266     0.002076375932
      13       -0.000003121525     0.000000150585     0.000002788042
      14        0.000003559012    -0.000008683203    -0.000005343916
      15       -0.000000904220     0.000002545497    -0.000001165893
      16        0.000007974698     0.000000871104     0.000000734358
      17        0.000010439091     0.000002583490     0.000007478772
      18       -0.000001084445     0.000001414697     0.000005183806
      19       -0.000009487132     0.000002313264    -0.000003190658
      20        0.000004769966    -0.000002168132    -0.000001801071
      21       -0.000001639797    -0.000007686018     0.000000131172
      22        0.000001003255     0.000002586582     0.000000416936
      23        0.000000391930     0.000000442505    -0.000007968775
      24       -0.000007321683    -0.000003809278    -0.000001458814
      25        0.000001502681     0.000002903579     0.000002118866

  **** Optimization is complete! (in 9 steps) ****
    Final optimized geometry and variables:
    Molecular point group: c1

    Geometry (in Angstrom), charge = 0, multiplicity = 1:

    O            3.138403157190     0.968014368024     0.177201232601
    C            2.232563642110     1.278778145326    -0.524687144384
    C            0.908070970704     0.541479986841    -0.518286576090
    C            2.341339169949     2.445733828738    -1.480349137425
    C            0.854298895080    -0.628677844133     0.453697295710
    H            0.135543300995     1.273874788708    -0.304595328633
    H            0.716144005413     0.206163862310    -1.535530137391
    C           -0.419927060553    -1.476123813344     0.379522284380
    H            1.005870231398    -0.277985841940     1.468418208450
    H            1.702758193073    -1.273427679263     0.257006656373
    C           -1.739515895963    -0.711365469894     0.437635626455
    H           -0.387593724501    -2.103032106677    -0.508602565570
    H           -0.391125255667    -2.173031804847     1.212932128347
    C           -2.956184350674    -1.629150551972     0.524480012720
    H           -1.843617334264    -0.076153956856    -0.437247188099
    H           -1.732134029667    -0.046386437178     1.299016980182
    C           -4.278454957843    -0.870625604412     0.566424302619
    H           -2.955825168171    -2.305328554795    -0.326202598105
    H           -2.871382214385    -2.253908980946     1.409087823206
    H           -4.411256141966    -0.264793903203    -0.323914222300
    H           -5.119766737798    -1.551024186540     0.630825905828
    H           -4.322739961713    -0.208412408237     1.424766724509
    H            1.581869172791     3.186129910872    -1.254480624172
    H            3.319914826699     2.893661291014    -1.401622576980
    H            2.173420152141     2.112156043716    -2.498464375290

  Mulliken Charges: (a.u.)
   Center  Symbol    Alpha    Beta     Spin     Total
       1     O     4.17007  4.17007  0.00000 -0.34014
       2     C     2.86207  2.86207  0.00000  0.27587
       3     C     3.11634  3.11634  0.00000 -0.23269
       4     C     3.15103  3.15103  0.00000 -0.30206
       5     C     3.09265  3.09265  0.00000 -0.18530
       6     H     0.44212  0.44212  0.00000  0.11577
       7     H     0.44432  0.44432  0.00000  0.11136
       8     C     3.10034  3.10034  0.00000 -0.20069
       9     H     0.44477  0.44477  0.00000  0.11045
      10     H     0.44109  0.44109  0.00000  0.11781
      11     C     3.09159  3.09159  0.00000 -0.18318
      12     H     0.45181  0.45181  0.00000  0.09637
      13     H     0.44801  0.44801  0.00000  0.10398
      14     C     3.08458  3.08458  0.00000 -0.16916
      15     H     0.45411  0.45411  0.00000  0.09179
      16     H     0.45316  0.45316  0.00000  0.09369
      17     C     3.14981  3.14981  0.00000 -0.29963
      18     H     0.45444  0.45444  0.00000  0.09111
      19     H     0.45258  0.45258  0.00000  0.09485
      20     H     0.45603  0.45603  0.00000  0.08794
      21     H     0.44780  0.44780  0.00000  0.10440
      22     H     0.45492  0.45492  0.00000  0.09015
      23     H     0.45059  0.45059  0.00000  0.09882
      24     H     0.43515  0.43515  0.00000  0.12970
      25     H     0.45061  0.45061  0.00000  0.09879

   Total alpha = 36.00000, Total beta = 36.00000, Total charge = -0.00000

*** Psi4 exiting successfully. Buy a developer a beer!
