                              Psi4 1.0.54 Driver

  ==> Input File <==

--------------------------------------------------------------------------
set {
	reference rhf
	basis cc-pvtz
}

set_num_threads( 4 )
memory 2 gb

molecule MOL {
0 1

H	 -2.644180	 -0.653737	 1.272255
C	 -2.092774	 -0.380414	 0.391915
O	 -0.808934	 -0.154049	 0.752536
F	 -2.163230	 -1.351640	 -0.507133
F	 -2.627232	 0.691260	 -0.169301
C	 -0.458949	 -0.313860	 2.075893
C	 0.425538	 0.869605	 2.461079
Cl	 0.416096	 -1.835667	 2.328754
H	 -1.312206	 -0.321225	 2.731289
F	 0.782476	 0.785022	 3.717448
F	 -0.256548	 1.979928	 2.308577
F	 1.499878	 0.944871	 1.724614

	symmetry c1
}
set optking {
	frozen_dihedral = ("
		6 3 2 4
	")
}

ee,wfn = optimize('scf', return_wfn=True)
oeprop( wfn, 'DIPOLE', 'QUADRUPOLE', 'MULLIKEN_CHARGES')
f=open( 'psi4out.xyz', 'w' )
f.write( "12  " )
f.write( str(ee) + "\n" )
f.write( MOL.save_string_xyz() )
f.close()
--------------------------------------------------------------------------

    Molecular point group: c1
  Charge       = 0
  Multiplicity = 1
  Basis Set: CC-PVTZ
  Basis Set:
  @DF-RHF Final Energy: -1146.61363630046162
    Total Energy =                      -1146.6136363004616214
    Molecular point group: c1
  Basis Set: CC-PVTZ
  Basis Set:
  Basis Set: CC-PVTZ
  Basis Set:
  @DF-RHF Final Energy: -1146.61503594428268
    Total Energy =                      -1146.6150359442829085
  Basis Set: CC-PVTZ
  Basis Set:
  Basis Set: CC-PVTZ
  Basis Set:
  @DF-RHF Final Energy: -1146.61578470545760
    Total Energy =                      -1146.6157847054571448
  Basis Set: CC-PVTZ
  Basis Set:
  Basis Set: CC-PVTZ
  Basis Set:
  @DF-RHF Final Energy: -1146.61586346981812
    Total Energy =                      -1146.6158634698181231
  Basis Set: CC-PVTZ
  Basis Set:
  @DF-RHF Final Energy: -1146.61640747285401
    Total Energy =                      -1146.6164074728542346
  @DF-RHF Final Energy: -1146.51042401786935
    Total Energy =                      -1146.5104240178693544
  @DF-RHF Final Energy: -1146.47248548458128
    Total Energy =                      -1146.4724854845808295
  @DF-RHF Final Energy: -1146.48359025717491
    Total Energy =                      -1146.4835902571751376
  @DF-RHF Final Energy: -1146.51455237436903
    Total Energy =                      -1146.5145523743708509
  @DF-RHF Final Energy: -1146.58001316115656
    Total Energy =                      -1146.5800131611558754
  @DF-RHF Final Energy: -1146.60731139172140
    Total Energy =                      -1146.6073113917216233
  @DF-RHF Final Energy: -1146.59972458341417
    Total Energy =                      -1146.5997245834139449
  @DF-RHF Final Energy: -1146.60476643408992
    Total Energy =                      -1146.6047664340896972
  @DF-RHF Final Energy: -1146.61501539007941
    Total Energy =                      -1146.6150153900787245
  @DF-RHF Final Energy: -1146.61603054744410
    Total Energy =                      -1146.6160305474440975
  @DF-RHF Final Energy: -1146.61640152902555
    Total Energy =                      -1146.6164015290250973
  @DF-RHF Final Energy: -1146.61525565784359
    Total Energy =                      -1146.6152556578426811
  @DF-RHF Final Energy: -1146.61650940538902
    Total Energy =                      -1146.6165094053890243
  Basis Set: CC-PVTZ
  Basis Set:
  @DF-RHF Final Energy: -1146.61654427669555
    Total Energy =                      -1146.6165442766950946
  Basis Set: CC-PVTZ
  Basis Set:
  Basis Set: CC-PVTZ
  Basis Set:
  @DF-RHF Final Energy: -1146.61654044576858
    Total Energy =                      -1146.6165404457678960
  Basis Set: CC-PVTZ
  Basis Set:
  Basis Set: CC-PVTZ
  Basis Set:
  @DF-RHF Final Energy: -1146.61654923260858
    Total Energy =                      -1146.6165492326090316
  Basis Set: CC-PVTZ
  Basis Set:
  Charge       = 0
  Multiplicity = 1
  Basis Set: CC-PVTZ
  Basis Set:

    Orbital Energies (a.u.)
    -----------------------

    Doubly Occupied:

       1A   -104.864804     2A    -26.359763     3A    -26.358221
       4A    -26.357422     5A    -26.338731     6A    -26.337429
       7A    -20.642512     8A    -11.526204     9A    -11.484869
      10A    -11.410475    11A    -10.590359    12A     -8.057116
      13A     -8.055183    14A     -8.055103    15A     -1.772813
      16A     -1.721406    17A     -1.667648    18A     -1.666041
      19A     -1.641876    20A     -1.492311    21A     -1.180979
      22A     -1.060849    23A     -0.987928    24A     -0.935667
      25A     -0.867734    26A     -0.864479    27A     -0.856651
      28A     -0.824272    29A     -0.817196    30A     -0.797711
      31A     -0.738562    32A     -0.735052    33A     -0.706091
      34A     -0.697717    35A     -0.689755    36A     -0.684025
      37A     -0.668632    38A     -0.668145    39A     -0.658905
      40A     -0.649626    41A     -0.608092    42A     -0.566299
      43A     -0.526261    44A     -0.487281    45A     -0.478767

  @DF-RHF Final Energy: -1146.61654946374142

   => Energetics <=

    Nuclear Repulsion Energy =            726.9775174533044719
    One-Electron Energy =               -3036.8742026104364413
    Two-Electron Energy =                1163.2801356933905481
    DFT Exchange-Correlation Energy =       0.0000000000000000
    Empirical Dispersion Energy =           0.0000000000000000
    PCM Polarization Energy =               0.0000000000000000
    EFP Energy =                            0.0000000000000000
    Total Energy =                      -1146.6165494637416487
    Molecular point group: c1
  Basis Set: CC-PVTZ
  Basis Set:

  -Total Gradient:
     Atom            X                  Y                   Z
    ------   -----------------  -----------------  -----------------
       1        0.000000910854     0.000002174969     0.000003761387
       2       -0.000241320867    -0.000021651925     0.000121793892
       3        0.000164842736     0.000084863055     0.000245809042
       4        0.000150763172    -0.000022317928    -0.000161333225
       5        0.000006392452    -0.000000253469    -0.000014509226
       6       -0.000086917358    -0.000043931300    -0.000164206716
       7       -0.000009863447    -0.000031001345    -0.000006958401
       8       -0.000000805078     0.000002544084    -0.000014516097
       9        0.000013986327     0.000004935362    -0.000005384205
      10        0.000001819706     0.000002072139     0.000007029044
      11        0.000012606061     0.000008038225    -0.000006413536
      12       -0.000012414533     0.000014528120    -0.000005072103

  **** Optimization is complete! (in 22 steps) ****
    Final optimized geometry and variables:
    Molecular point group: c1

    Geometry (in Angstrom), charge = 0, multiplicity = 1:

    H            0.295146702098    -2.383013533394     0.286114586326
    C           -0.656809154818    -1.916277286816     0.488600036765
    O           -0.622966694276    -0.564916152390     0.338389872456
    F           -1.567405704725    -2.414547761949    -0.318310611762
    F           -1.024213611052    -2.190075162653     1.723752744484
    C            0.542595557930     0.019254743798    -0.067161673131
    C            0.443350915423     1.505530004807     0.270425250647
    CL           0.836467962150    -0.199804763915    -1.810962091251
    H            1.405843421657    -0.378870842529     0.442868343347
    F            1.547224735778     2.120302669422    -0.072492198118
    F            0.292247368736     1.639297815015     1.565607466915
    F           -0.561119688600     2.082186183368    -0.325830721733

  Mulliken Charges: (a.u.)
   Center  Symbol    Alpha    Beta     Spin     Total
       1     H     0.48293  0.48293  0.00000  0.03414
       2     C     2.73442  2.73442  0.00000  0.53115
       3     O     4.13882  4.13882  0.00000 -0.27763
       4     F     4.60488  4.60488  0.00000 -0.20976
       5     F     4.60712  4.60712  0.00000 -0.21425
       6     C     2.95107  2.95107  0.00000  0.09785
       7     C     2.66670  2.66670  0.00000  0.66660
       8    CL     8.57644  8.57644  0.00000 -0.15289
       9     H     0.43457  0.43457  0.00000  0.13087
      10     F     4.60243  4.60243  0.00000 -0.20487
      11     F     4.60279  4.60279  0.00000 -0.20559
      12     F     4.59782  4.59782  0.00000 -0.19563

   Total alpha = 45.00000, Total beta = 45.00000, Total charge =  0.00000

*** Psi4 exiting successfully. Buy a developer a beer!
