  ==> Input File <==

--------------------------------------------------------------------------
set {
	reference rhf
	basis 6-31G*
}

set_num_threads( 4 )
memory 2 gb

molecule MOL {
0 1

H	 -3.042581	 -0.665861	 0.004336
O	 -2.245037	 -1.176175	 0.000806
C	 -1.162163	 -0.365336	 0.001020
C	 -0.689644	 0.243649	 -1.147542
C	 -0.523019	 -0.161110	 1.217826
H	 -1.182381	 0.084134	 -2.091861
C	 0.429724	 1.059910	 -1.066040
H	 -0.915691	 -0.651737	 2.089726
C	 0.592367	 0.654092	 1.298286
H	 0.801296	 1.533166	 -1.957670
C	 1.069238	 1.266946	 0.139419
C	 1.273927	 0.896082	 2.624942
H	 1.937406	 1.900547	 0.185943
H	 2.353112	 0.851716	 2.524039
H	 0.974548	 0.161870	 3.363296
H	 1.022207	 1.878946	 3.013482

	symmetry c1
}
set optking {
	frozen_dihedral = ("
		5 3 2 1
	")
}

ee = optimize('scf')
oeprop('DIPOLE', 'QUADRUPOLE', 'MULLIKEN_CHARGES')
f=open( 'psi4out.xyz', 'w' )
f.write( "16  " )
f.write( str(ee) + "\n" )
f.write( MOL.save_string_xyz() )
f.close()
--------------------------------------------------------------------------

    Molecular point group: c1
  Charge       = 0
  Multiplicity = 1
  Basis Set: 6-31G*
  Basis Set:
  @DF-RHF Final Energy:  -344.59002389860785
    Total Energy =                       -344.5900238986076829
    Molecular point group: c1
  Basis Set: 6-31G*
  Basis Set:
  Basis Set: 6-31G*
  Basis Set:
  @DF-RHF Final Energy:  -344.59069737088475
    Total Energy =                       -344.5906973708850956
  Basis Set: 6-31G*
  Basis Set:
  Basis Set: 6-31G*
  Basis Set:
  @DF-RHF Final Energy:  -344.59075270483754
    Total Energy =                       -344.5907527048376551
  Basis Set: 6-31G*
  Basis Set:
  Basis Set: 6-31G*
  Basis Set:
  @DF-RHF Final Energy:  -344.59075793096918
    Total Energy =                       -344.5907579309691187
  Basis Set: 6-31G*
  Basis Set:
  Charge       = 0
  Multiplicity = 1
  Basis Set: 6-31G*
  Basis Set:

    Orbital Energies (a.u.)
    -----------------------

    Doubly Occupied:

       1A    -20.574598     2A    -11.286490     3A    -11.241107
       4A    -11.232796     5A    -11.221980     6A    -11.221900
       7A    -11.221819     8A    -11.220462     9A     -1.389334
      10A     -1.149909    11A     -1.043052    12A     -1.003289
      13A     -0.936279    14A     -0.826150    15A     -0.807365
      16A     -0.714720    17A     -0.675850    18A     -0.654005
      19A     -0.618441    20A     -0.588419    21A     -0.575365
      22A     -0.567435    23A     -0.550333    24A     -0.509747
      25A     -0.503089    26A     -0.479781    27A     -0.461662
      28A     -0.329134    29A     -0.318178

  @DF-RHF Final Energy:  -344.59075891309413

   => Energetics <=

    Nuclear Repulsion Energy =            344.9576787994503206
    One-Electron Energy =               -1151.2514991642726727
    Two-Electron Energy =                 461.7030614517279901
    DFT Exchange-Correlation Energy =       0.0000000000000000
    Empirical Dispersion Energy =           0.0000000000000000
    PCM Polarization Energy =               0.0000000000000000
    EFP Energy =                            0.0000000000000000
    Total Energy =                       -344.5907589130943052
    Molecular point group: c1
  Basis Set: 6-31G*
  Basis Set:

  -Total Gradient:
     Atom            X                  Y                   Z
    ------   -----------------  -----------------  -----------------
       1       -0.000039383845    -0.000019639064     0.000718913251
       2       -0.000267831636     0.000139537331    -0.000805566907
       3        0.000690700021    -0.000491171895    -0.000190402544
       4       -0.000139849312    -0.000061193018     0.000038581883
       5       -0.000319318592     0.000360331581     0.000190287698
       6       -0.000015824087    -0.000024756707    -0.000001651139
       7        0.000103627976     0.000053499606     0.000078422480
       8        0.000023104183     0.000009788152    -0.000030467173
       9       -0.000125145803     0.000040500314     0.000052398272
      10       -0.000006887236    -0.000009512748     0.000015286869
      11        0.000012703066    -0.000004142628    -0.000103416626
      12        0.000045690150     0.000003949754    -0.000016137394
      13        0.000010002363     0.000000073502     0.000039098245
      14        0.000014465030    -0.000003764518     0.000022877749
      15        0.000000450188     0.000009249037    -0.000000148657
      16        0.000013497536    -0.000002748700    -0.000008076006

  **** Optimization is complete! (in 5 steps) ****
    Final optimized geometry and variables:
    Molecular point group: c1

    Geometry (in Angstrom), charge = 0, multiplicity = 1:

    H           -2.847758198101    -0.954053366738    -0.443247750782
    O           -2.047777887611    -1.462395268172    -0.444473111311
    C           -0.960243634595    -0.628426211922    -0.394111570099
    C           -0.488898270602    -0.027701281592    -1.546407720838
    C           -0.321046634478    -0.425316929906     0.818565224945
    H           -0.986366755802    -0.209112668639    -2.481784728586
    C            0.630672255012     0.786416522137    -1.471069129820
    H           -0.708883897014    -0.918205464897     1.691911536890
    C            0.801938037286     0.386078790418     0.899414303338
    H            1.007357208499     1.255914089611    -2.362439104919
    C            1.271135927274     0.992339573700    -0.262431567118
    C            1.491992180083     0.624814090560     2.222728737832
    H            2.142671428889     1.622406620989    -0.220356050119
    H            2.570540263116     0.575586489781     2.116889579698
    H            1.194249664801    -0.110130499511     2.961327880181
    H            1.247304751248     1.607569965407     2.616397819382

  Mulliken Charges: (a.u.)
   Center  Symbol    Alpha    Beta     Spin     Total
       1     H     0.27146  0.27146  0.00000  0.45708
       2     O     4.38907  4.38907  0.00000 -0.77813
       3     C     2.81439  2.81439  0.00000  0.37121
       4     C     3.12505  3.12505  0.00000 -0.25010
       5     C     3.13449  3.13449  0.00000 -0.26897
       6     H     0.39623  0.39623  0.00000  0.20753
       7     C     3.09346  3.09346  0.00000 -0.18692
       8     H     0.39628  0.39628  0.00000  0.20744
       9     C     2.97437  2.97437  0.00000  0.05126
      10     H     0.39862  0.39862  0.00000  0.20276
      11     C     3.11695  3.11695  0.00000 -0.23390
      12     C     3.25414  3.25414  0.00000 -0.50829
      13     H     0.40238  0.40238  0.00000  0.19524
      14     H     0.41137  0.41137  0.00000  0.17726
      15     H     0.41178  0.41178  0.00000  0.17645
      16     H     0.40996  0.40996  0.00000  0.18008

   Total alpha = 29.00000, Total beta = 29.00000, Total charge = -0.00000
