  ==> Input File <==

--------------------------------------------------------------------------
set {
	reference rhf
	basis 6-31G*
}

set_num_threads( 1 )
memory 2 gb

molecule MOL {
0 1

H	 -2.798360	 -0.862255	 -0.071053
N	 -1.863561	 -0.715187	 0.256814
C	 -1.344686	 0.554728	 -0.219830
H	 -1.300452	 -1.461917	 -0.101532
C	 -0.446844	 0.329320	 -1.418248
H	 -2.120534	 1.268236	 -0.500845
H	 -0.756444	 1.008344	 0.571993
O	 -1.227054	 -0.182103	 -2.460748
H	 0.016912	 1.267213	 -1.723085
H	 0.341677	 -0.373148	 -1.157466
C	 -0.508357	 -0.517633	 -3.604630
H	 -1.211078	 -0.896624	 -4.334182
H	 0.000016	 0.348914	 -4.023718
H	 0.233537	 -1.285920	 -3.396934

	symmetry c1
}
set optking {
	frozen_dihedral = ("
		8 5 3 6,
		5 8 11 13,
		11 8 5 3
	")
}

ee = energy('scf')
oeprop('DIPOLE', 'QUADRUPOLE', 'MULLIKEN_CHARGES')
f=open( 'psi4out.xyz', 'w' )
f.write( "14  " )
f.write( str(ee) + "\n" )
f.write( MOL.save_string_xyz() )
f.close()
--------------------------------------------------------------------------

    Molecular point group: c1

    Geometry (in Angstrom), charge = 0, multiplicity = 1:

       Center              X                  Y                   Z               Mass
    ------------   -----------------  -----------------  -----------------  -----------------
           H         -1.719677218352    -0.735364881189     1.441272849180     1.007825032070
           N         -0.784878218352    -0.588296881189     1.769139849180    14.003074004780
           C         -0.266003218352     0.681618118811     1.292495849180    12.000000000000
           H         -0.221769218352    -1.335026881189     1.410793849180     1.007825032070
           C          0.631838781648     0.456210118811     0.094077849180    12.000000000000
           H         -1.041851218352     1.395126118811     1.011480849180     1.007825032070
           H          0.322238781648     1.135234118811     2.084318849180     1.007825032070
           O         -0.148371218352    -0.055212881189    -0.948422150820    15.994914619560
           H          1.095594781648     1.394103118811    -0.210759150820     1.007825032070
           H          1.420359781648    -0.246257881189     0.354859849180     1.007825032070
           C          0.570325781648    -0.390742881189    -2.092304150820    12.000000000000
           H         -0.132395218352    -0.769733881189    -2.821856150820     1.007825032070
           H          1.078698781648     0.475804118811    -2.511392150820     1.007825032070
           H          1.312219781648    -1.159029881189    -1.884608150820     1.007825032070

  Charge       = 0
  Multiplicity = 1
  Basis Set: 6-31G*
  Basis Set:

    Orbital Energies (a.u.)
    -----------------------

    Doubly Occupied:

       1A    -20.560686     2A    -15.526655     3A    -11.270057
       4A    -11.269927     5A    -11.241236     6A     -1.385206
       7A     -1.174932     8A     -0.999868     9A     -0.909921
      10A     -0.823571    11A     -0.690449    12A     -0.666318
      13A     -0.649554    14A     -0.631724    15A     -0.582166
      16A     -0.547790    17A     -0.534400    18A     -0.508310
      19A     -0.473117    20A     -0.422651    21A     -0.376180

  @DF-RHF Final Energy:  -248.11899737262681

   => Energetics <=

    Nuclear Repulsion Energy =            195.3293585063750299
    One-Electron Energy =                -724.4071955946261596
    Two-Electron Energy =                 280.9588397156246629
    DFT Exchange-Correlation Energy =       0.0000000000000000
    Empirical Dispersion Energy =           0.0000000000000000
    PCM Polarization Energy =               0.0000000000000000
    EFP Energy =                            0.0000000000000000
    Total Energy =                       -248.1189973726264952

  Mulliken Charges: (a.u.)
   Center  Symbol    Alpha    Beta     Spin     Total
       1     H     0.32778  0.32778  0.00000  0.34444
       2     N     3.92307  3.92307  0.00000 -0.84615
       3     C     3.06125  3.06125  0.00000 -0.12250
       4     H     0.33022  0.33022  0.00000  0.33955
       5     C     3.00794  3.00794  0.00000 -0.01588
       6     H     0.41448  0.41448  0.00000  0.17105
       7     H     0.41922  0.41922  0.00000  0.16157
       8     O     4.30546  4.30546  0.00000 -0.61093
       9     H     0.42886  0.42886  0.00000  0.14228
      10     H     0.43186  0.43186  0.00000  0.13629
      11     C     3.07943  3.07943  0.00000 -0.15886
      12     H     0.41152  0.41152  0.00000  0.17695
      13     H     0.42890  0.42890  0.00000  0.14220
      14     H     0.43001  0.43001  0.00000  0.13999

   Total alpha = 21.00000, Total beta = 21.00000, Total charge = -0.00000
