                              Psi4 1.0.54 Driver

  ==> Input File <==

--------------------------------------------------------------------------
set {
	reference rhf
	basis cc-pvtz
}

set_num_threads( 4 )
memory 2 gb

molecule MOL {
0 1

H	 2.614283	 2.028610	 0.296620
O	 3.358864	 1.662087	 -0.142800
C	 3.565468	 0.338079	 0.273842
C	 2.424151	 -0.219261	 1.111371
H	 3.667353	 -0.244151	 -0.632032
H	 4.504053	 0.253667	 0.818252
C	 2.240733	 0.471815	 2.460674
H	 1.506195	 -0.147312	 0.535751
H	 2.613815	 -1.277814	 1.272279
C	 1.107929	 -0.135714	 3.286810
H	 2.044916	 1.526671	 2.299623
H	 3.168526	 0.408542	 3.026786
C	 0.927212	 0.470050	 4.679880
H	 0.175971	 -0.047797	 2.733680
H	 1.294048	 -1.200451	 3.397098
C	 0.450967	 1.921477	 4.697002
H	 0.208102	 -0.135753	 5.224317
H	 1.863047	 0.392199	 5.228794
C	 0.190594	 2.448111	 6.105999
H	 -0.460954	 2.005805	 4.109842
H	 1.183823	 2.560953	 4.214307
C	 -0.281443	 3.898158	 6.126955
H	 -0.551918	 1.821016	 6.591803
H	 1.098393	 2.356719	 6.696431
H	 -1.205806	 4.016880	 5.571352
H	 -0.459272	 4.239051	 7.140501
H	 0.456809	 4.556992	 5.681677

	symmetry c1
}
set optking {
	frozen_dihedral = ("
		4 3 2 1
	")
}

ee,wfn = optimize('scf', return_wfn=True)
oeprop( wfn, 'DIPOLE', 'QUADRUPOLE', 'MULLIKEN_CHARGES')
f=open( 'psi4out.xyz', 'w' )
f.write( "27  " )
f.write( str(ee) + "\n" )
f.write( MOL.save_string_xyz() )
f.close()
--------------------------------------------------------------------------

    Molecular point group: c1
  Charge       = 0
  Multiplicity = 1
  Basis Set: CC-PVTZ
  Basis Set:
  @DF-RHF Final Energy:  -388.42500701906039
    Total Energy =                       -388.4250070190598763
    Molecular point group: c1
  Basis Set: CC-PVTZ
  Basis Set:
  Basis Set: CC-PVTZ
  Basis Set:
  @DF-RHF Final Energy:  -388.42527832265205
    Total Energy =                       -388.4252783226520478
  Basis Set: CC-PVTZ
  Basis Set:
  Basis Set: CC-PVTZ
  Basis Set:
  @DF-RHF Final Energy:  -388.42537669565417
    Total Energy =                       -388.4253766956543359
  Basis Set: CC-PVTZ
  Basis Set:
  Charge       = 0
  Multiplicity = 1
  Basis Set: CC-PVTZ
  Basis Set:

    Orbital Energies (a.u.)
    -----------------------

    Doubly Occupied:

       1A    -20.542032     2A    -11.264110     3A    -11.221218
       4A    -11.220500     5A    -11.217755     6A    -11.215199
       7A    -11.214927     8A    -11.213522     9A    -11.208025
      10A     -1.360503    11A     -1.098949    12A     -1.065017
      13A     -1.014414    14A     -0.950613    15A     -0.890720
      16A     -0.826038    17A     -0.806183    18A     -0.781144
      19A     -0.668745    20A     -0.658032    21A     -0.649121
      22A     -0.626041    23A     -0.608625    24A     -0.585872
      25A     -0.577227    26A     -0.564727    27A     -0.540512
      28A     -0.529332    29A     -0.509689    30A     -0.494872
      31A     -0.488559    32A     -0.479515    33A     -0.468481
      34A     -0.462469    35A     -0.449692    36A     -0.441732
      37A     -0.430603

  @DF-RHF Final Energy:  -388.42537587251849

   => Energetics <=

    Nuclear Repulsion Energy =            460.4122944657638641
    One-Electron Energy =               -1438.9858990943730532
    Two-Electron Energy =                 590.1482287560911573
    DFT Exchange-Correlation Energy =       0.0000000000000000
    Empirical Dispersion Energy =           0.0000000000000000
    PCM Polarization Energy =               0.0000000000000000
    EFP Energy =                            0.0000000000000000
    Total Energy =                       -388.4253758725180887
    Molecular point group: c1
  Basis Set: CC-PVTZ
  Basis Set:

  -Total Gradient:
     Atom            X                  Y                   Z
    ------   -----------------  -----------------  -----------------
       1       -0.000317067845    -0.000159728260    -0.000342831059
       2        0.000462039789     0.000318390329     0.000767071163
       3       -0.000366087244    -0.000295845143    -0.000712654800
       4        0.000291203290     0.000127703374     0.000391458692
       5        0.000024878501    -0.000078422097    -0.000004997560
       6       -0.000067832486     0.000056144499     0.000018331006
       7       -0.000028877558     0.000092879915     0.000007689501
       8        0.000008092705    -0.000029338002    -0.000028647787
       9       -0.000011101344     0.000015975727    -0.000009181249
      10        0.000039883113    -0.000106299355     0.000032405127
      11        0.000052214939     0.000119243755    -0.000029666746
      12       -0.000060595287    -0.000020477403    -0.000050934178
      13       -0.000066189437    -0.000018735741     0.000003405802
      14        0.000001953453    -0.000015894432     0.000019895606
      15        0.000011288680    -0.000014290474    -0.000000283074
      16        0.000003233346    -0.000011071719    -0.000023359759
      17       -0.000023212189     0.000019740450     0.000002044736
      18       -0.000020504376    -0.000021823791     0.000002822322
      19        0.000023690934     0.000012017728     0.000001570240
      20        0.000002559675    -0.000011480676     0.000018031531
      21        0.000031747465     0.000015764153    -0.000063676301
      22        0.000009934397     0.000005860884     0.000003751821
      23        0.000000773344     0.000000308861    -0.000009884760
      24       -0.000000737277     0.000000577986     0.000007398229
      25        0.000001068650    -0.000002893533     0.000001133716
      26       -0.000001079923     0.000000578917    -0.000001557364
      27       -0.000001277312     0.000001114050     0.000000665141

  **** Optimization is complete! (in 4 steps) ****
    Final optimized geometry and variables:
    Molecular point group: c1

    Geometry (in Angstrom), charge = 0, multiplicity = 1:

    H            1.014235975636     0.818496583275    -2.877905579518
    O            1.775469770803     0.458370433820    -3.290844399392
    C            2.015283647210    -0.851433487597    -2.841159084821
    C            0.884462180479    -1.437824121330    -2.010591520800
    H            2.179862698262    -1.470422426656    -3.715220591576
    H            2.934203843521    -0.857451866822    -2.261274290786
    C            0.669072554620    -0.751041046283    -0.662106754343
    H           -0.033194375647    -1.406633086871    -2.594010115986
    H            1.104708367180    -2.488054123770    -1.843249442752
    C           -0.478930268955    -1.367574895477     0.135794612045
    H            0.481958779837     0.307959351569    -0.809654645660
    H            1.586400853959    -0.815702091860    -0.082380830174
    C           -0.678709236870    -0.782556163382     1.535081006120
    H           -1.402772207409    -1.268565201098    -0.429381397531
    H           -0.297929784105    -2.434535978020     0.232080229296
    C           -1.130732649007     0.676311117707     1.567065936388
    H           -1.418713212863    -1.385263134205     2.054153344021
    H            0.244236934752    -0.885228440273     2.100998432696
    C           -1.407084803680     1.185086514518     2.979519970318
    H           -2.031047576948     0.785261079752     0.965961058068
    H           -0.378533293539     1.310676048157     1.108053394420
    C           -1.853416732088     2.642873300638     3.015516798648
    H           -2.169129889399     0.563798016530     3.441907443098
    H           -0.511684557465     1.068052156461     3.583946916172
    H           -2.765957770910     2.786991478652     2.446518050468
    H           -2.042517102515     2.970934658481     4.031163466114
    H           -1.095942031603     3.294990618369     2.593447117934

  Mulliken Charges: (a.u.)
   Center  Symbol    Alpha    Beta     Spin     Total
       1     H     0.39085  0.39085  0.00000  0.21830
       2     O     4.20929  4.20929  0.00000 -0.41857
       3     C     2.95437  2.95437  0.00000  0.09127
       4     C     3.11204  3.11204  0.00000 -0.22407
       5     H     0.46072  0.46072  0.00000  0.07857
       6     H     0.47491  0.47491  0.00000  0.05017
       7     C     3.09300  3.09300  0.00000 -0.18601
       8     H     0.44966  0.44966  0.00000  0.10068
       9     H     0.45109  0.45109  0.00000  0.09782
      10     C     3.09915  3.09915  0.00000 -0.19829
      11     H     0.45763  0.45763  0.00000  0.08474
      12     H     0.45095  0.45095  0.00000  0.09810
      13     C     3.09770  3.09770  0.00000 -0.19540
      14     H     0.45259  0.45259  0.00000  0.09483
      15     H     0.44715  0.44715  0.00000  0.10571
      16     C     3.08936  3.08936  0.00000 -0.17873
      17     H     0.44776  0.44776  0.00000  0.10449
      18     H     0.45283  0.45283  0.00000  0.09434
      19     C     3.08408  3.08408  0.00000 -0.16817
      20     H     0.45502  0.45502  0.00000  0.08995
      21     H     0.45379  0.45379  0.00000  0.09242
      22     C     3.14974  3.14974  0.00000 -0.29948
      23     H     0.45371  0.45371  0.00000  0.09258
      24     H     0.45417  0.45417  0.00000  0.09167
      25     H     0.45524  0.45524  0.00000  0.08952
      26     H     0.44805  0.44805  0.00000  0.10391
      27     H     0.45517  0.45517  0.00000  0.08966

   Total alpha = 37.00000, Total beta = 37.00000, Total charge = -0.00000

*** Psi4 exiting successfully. Buy a developer a beer!
