                              Psi4 1.0.54 Driver

  ==> Input File <==

--------------------------------------------------------------------------
set {
	reference rhf
	basis cc-pvtz
}

set_num_threads( 4 )
memory 2 gb

molecule MOL {
0 1

H	 -2.337107	 -0.965527	 -0.571864
O	 -2.346257	 -0.289210	 0.080372
C	 -1.183935	 0.486039	 -0.009831
C	 0.062853	 -0.375310	 0.027457
H	 -1.178881	 1.094526	 -0.908634
H	 -1.184406	 1.155156	 0.838676
O	 1.172093	 0.457955	 -0.054438
H	 0.052476	 -1.081302	 -0.804627
H	 0.076323	 -0.955658	 0.947560
C	 2.395478	 -0.199028	 -0.000366
H	 2.505946	 -0.901710	 -0.823354
H	 3.174616	 0.545641	 -0.071768
H	 2.513730	 -0.742241	 0.934223

	symmetry c1
}
set optking {
	frozen_dihedral = ("
		1 2 3 5
	")
}

ee,wfn = optimize('scf', return_wfn=True)
oeprop( wfn, 'DIPOLE', 'QUADRUPOLE', 'MULLIKEN_CHARGES')
f=open( 'psi4out.xyz', 'w' )
f.write( "13  " )
f.write( str(ee) + "\n" )
f.write( MOL.save_string_xyz() )
f.close()
--------------------------------------------------------------------------

    Molecular point group: c1
  Charge       = 0
  Multiplicity = 1
  Basis Set: CC-PVTZ
  Basis Set:
  @DF-RHF Final Energy:  -268.06175198897216
    Total Energy =                       -268.0617519889722757
    Molecular point group: c1
  Basis Set: CC-PVTZ
  Basis Set:
  Basis Set: CC-PVTZ
  Basis Set:
  @DF-RHF Final Energy:  -268.06177531574576
    Total Energy =                       -268.0617753157457059
  Basis Set: CC-PVTZ
  Basis Set:
  Basis Set: CC-PVTZ
  Basis Set:
  @DF-RHF Final Energy:  -268.06177981499064
    Total Energy =                       -268.0617798149903592
  Basis Set: CC-PVTZ
  Basis Set:
  Charge       = 0
  Multiplicity = 1
  Basis Set: CC-PVTZ
  Basis Set:

    Orbital Energies (a.u.)
    -----------------------

    Doubly Occupied:

       1A    -20.558188     2A    -20.552685     3A    -11.272843
       4A    -11.269398     5A    -11.267260     6A     -1.394237
       7A     -1.369234     8A     -1.020870     9A     -0.915073
      10A     -0.847034    11A     -0.707898    12A     -0.678550
      13A     -0.668115    14A     -0.636188    15A     -0.598585
      16A     -0.578136    17A     -0.546300    18A     -0.495625
      19A     -0.479016    20A     -0.443016    21A     -0.426917

  @DF-RHF Final Energy:  -268.06177990232061

   => Energetics <=

    Nuclear Repulsion Energy =            190.5932083019773984
    One-Electron Energy =                -743.8596381993729665
    Two-Electron Energy =                 285.2046499950748739
    DFT Exchange-Correlation Energy =       0.0000000000000000
    Empirical Dispersion Energy =           0.0000000000000000
    PCM Polarization Energy =               0.0000000000000000
    EFP Energy =                            0.0000000000000000
    Total Energy =                       -268.0617799023207226
    Molecular point group: c1
  Basis Set: CC-PVTZ
  Basis Set:

  -Total Gradient:
     Atom            X                  Y                   Z
    ------   -----------------  -----------------  -----------------
       1        0.000824359684    -0.001105384711     0.001127116654
       2       -0.001234899963     0.001677184442    -0.001147613825
       3        0.001104011683    -0.001728052300    -0.000782927835
       4       -0.000033564929    -0.000006314416     0.000019110369
       5       -0.000683395006     0.001150334953     0.000792365256
       6       -0.000004161083    -0.000005572491     0.000003053456
       7        0.000014877116    -0.000004933632    -0.000005556220
       8        0.000002589199     0.000012479917     0.000003061784
       9       -0.000001863888    -0.000001459201    -0.000005459123
      10        0.000000922607     0.000020119094    -0.000005479515
      11        0.000000853589    -0.000002237498     0.000001245236
      12        0.000012310458    -0.000005307365     0.000001044369
      13       -0.000002039469    -0.000000856791     0.000000039393

  **** Optimization is complete! (in 4 steps) ****
    Final optimized geometry and variables:
    Molecular point group: c1

    Geometry (in Angstrom), charge = 0, multiplicity = 1:

    H           -2.354920199618    -0.953160387820    -0.570529466530
    O           -2.352101269963    -0.281421111173     0.087259899305
    C           -1.185000360611     0.485530922811    -0.006388403284
    C            0.062914399005    -0.373229004096     0.029441266868
    H           -1.185504821158     1.100557739013    -0.901086681599
    H           -1.184167760546     1.153254974791     0.843398118381
    O            1.170388085504     0.459499959097    -0.063038784519
    H            0.050314385158    -1.083244936947    -0.800373135407
    H            0.082919191738    -0.949744824391     0.952178318687
    C            2.394780984591    -0.196641286887    -0.014611191486
    H            2.500366768951    -0.901857837960    -0.836018427571
    H            3.172509636195     0.548563794016    -0.093607543575
    H            2.519366979502    -0.736394657779     0.921118605653

  Mulliken Charges: (a.u.)
   Center  Symbol    Alpha    Beta     Spin     Total
       1     H     0.39463  0.39463  0.00000  0.21074
       2     O     4.20153  4.20153  0.00000 -0.40306
       3     C     2.96636  2.96636  0.00000  0.06727
       4     C     2.96986  2.96986  0.00000  0.06027
       5     H     0.46817  0.46817  0.00000  0.06367
       6     H     0.45461  0.45461  0.00000  0.09077
       7     O     4.17410  4.17410  0.00000 -0.34821
       8     H     0.48344  0.48344  0.00000  0.03312
       9     H     0.46871  0.46871  0.00000  0.06257
      10     C     3.03224  3.03224  0.00000 -0.06449
      11     H     0.47111  0.47111  0.00000  0.05779
      12     H     0.44544  0.44544  0.00000  0.10912
      13     H     0.46978  0.46978  0.00000  0.06044

   Total alpha = 21.00000, Total beta = 21.00000, Total charge = -0.00000

*** Psi4 exiting successfully. Buy a developer a beer!
