                              Psi4 1.0.54 Driver

  ==> Input File <==

--------------------------------------------------------------------------
set {
	reference rhf
	basis cc-pvtz
}

set_num_threads( 4 )
memory 2 gb

molecule MOL {
0 1

H	 -2.564168	 -0.481432	 -0.345429
N	 -1.851927	 0.161443	 -0.071573
C	 -0.561396	 -0.500007	 0.035200
H	 -2.127171	 0.549793	 0.806357
C	 0.575129	 0.507849	 -0.048832
H	 -0.478089	 -1.200753	 -0.788956
H	 -0.456191	 -1.081816	 0.952176
C	 1.951750	 -0.141983	 0.035101
H	 0.478254	 1.061643	 -0.975981
H	 0.467676	 1.231891	 0.755499
H	 2.101550	 -0.848142	 -0.774949
H	 2.738260	 0.600794	 -0.026526
H	 2.078939	 -0.679792	 0.968824

	symmetry c1
}
set optking {
	frozen_dihedral = ("
		1 2 3 6
	")
}

ee,wfn = optimize('scf', return_wfn=True)
oeprop( wfn, 'DIPOLE', 'QUADRUPOLE', 'MULLIKEN_CHARGES')
f=open( 'psi4out.xyz', 'w' )
f.write( "13  " )
f.write( str(ee) + "\n" )
f.write( MOL.save_string_xyz() )
f.close()
--------------------------------------------------------------------------

    Molecular point group: c1
  Charge       = 0
  Multiplicity = 1
  Basis Set: CC-PVTZ
  Basis Set:
  @DF-RHF Final Energy:  -173.35198099892293
    Total Energy =                       -173.3519809989229543
    Molecular point group: c1
  Basis Set: CC-PVTZ
  Basis Set:
  Basis Set: CC-PVTZ
  Basis Set:
  @DF-RHF Final Energy:  -173.35206072851969
    Total Energy =                       -173.3520607285196036
  Basis Set: CC-PVTZ
  Basis Set:
  Basis Set: CC-PVTZ
  Basis Set:
  @DF-RHF Final Energy:  -173.35207445699433
    Total Energy =                       -173.3520744569941883
  Basis Set: CC-PVTZ
  Basis Set:
  Charge       = 0
  Multiplicity = 1
  Basis Set: CC-PVTZ
  Basis Set:

    Orbital Energies (a.u.)
    -----------------------

    Doubly Occupied:

       1A    -15.525944     2A    -11.238570     3A    -11.207966
       4A    -11.205817     5A     -1.177286     6A     -1.035378
       7A     -0.899141     8A     -0.798178     9A     -0.669916
      10A     -0.623595    11A     -0.604319    12A     -0.569250
      13A     -0.526081    14A     -0.491645    15A     -0.480974
      16A     -0.466972    17A     -0.381866

  @DF-RHF Final Energy:  -173.35207513845629

   => Energetics <=

    Nuclear Repulsion Energy =            131.8592314737105369
    One-Electron Energy =                -494.6168210094916731
    Two-Electron Energy =                 189.4055143973247937
    DFT Exchange-Correlation Energy =       0.0000000000000000
    Empirical Dispersion Energy =           0.0000000000000000
    PCM Polarization Energy =               0.0000000000000000
    EFP Energy =                            0.0000000000000000
    Total Energy =                       -173.3520751384563141
    Molecular point group: c1
  Basis Set: CC-PVTZ
  Basis Set:

  -Total Gradient:
     Atom            X                  Y                   Z
    ------   -----------------  -----------------  -----------------
       1        0.000362979847     0.000385514246    -0.001849049236
       2       -0.000658918572    -0.000707490021     0.002555684261
       3        0.001044405135     0.001586984643    -0.001671177205
       4        0.000023553243    -0.000008573410    -0.000019249362
       5       -0.000040412601    -0.000007776230    -0.000015194566
       6       -0.000697906275    -0.001226894557     0.000985805294
       7        0.000004260065     0.000004454173    -0.000009420723
       8       -0.000020465910    -0.000005359717     0.000031922300
       9       -0.000018486941    -0.000016203584    -0.000004926241
      10        0.000006999423    -0.000013055233    -0.000008197459
      11       -0.000013211110     0.000013298366     0.000001373208
      12        0.000003435064     0.000003781986     0.000004460960
      13        0.000003768631    -0.000008680662    -0.000002031232

  **** Optimization is complete! (in 4 steps) ****
    Final optimized geometry and variables:
    Molecular point group: c1

    Geometry (in Angstrom), charge = 0, multiplicity = 1:

    H           -2.566431406081    -0.507108589033    -0.323227816239
    N           -1.855729851059     0.140642420637    -0.061893571629
    C           -0.553590707266    -0.500809134761     0.028553546853
    H           -2.122324235014     0.560022175780     0.802793291640
    C            0.573122880115     0.518413956200    -0.050098492673
    H           -0.469618605889    -1.203018123945    -0.794054946790
    H           -0.439051400774    -1.090077580242     0.939546223267
    C            1.955784357414    -0.117058095073     0.043469701873
    H            0.474908677691     1.070443643588    -0.978018943684
    H            0.450626883697     1.241986762850     0.751898302443
    H            2.117538243495    -0.824472908883    -0.763439688912
    H            2.735374012133     0.633193981104    -0.016109978151
    H            2.083382862856    -0.650931324930     0.979530205742

  Mulliken Charges: (a.u.)
   Center  Symbol    Alpha    Beta     Spin     Total
       1     H     0.42728  0.42728  0.00000  0.14544
       2     N     3.69341  3.69341  0.00000 -0.38683
       3     C     3.02750  3.02750  0.00000 -0.05500
       4     H     0.42949  0.42949  0.00000  0.14102
       5     C     3.07179  3.07179  0.00000 -0.14359
       6     H     0.45727  0.45727  0.00000  0.08546
       7     H     0.46799  0.46799  0.00000  0.06403
       8     C     3.15381  3.15381  0.00000 -0.30763
       9     H     0.45091  0.45091  0.00000  0.09818
      10     H     0.45979  0.45979  0.00000  0.08042
      11     H     0.45585  0.45585  0.00000  0.08829
      12     H     0.44776  0.44776  0.00000  0.10449
      13     H     0.45714  0.45714  0.00000  0.08571

   Total alpha = 17.00000, Total beta = 17.00000, Total charge =  0.00000

*** Psi4 exiting successfully. Buy a developer a beer!
