  ==> Input File <==

--------------------------------------------------------------------------
set {
	reference rhf
	basis cc-pvtz
}

set_num_threads( 4 )
memory 2 gb

molecule MOL {
0 1

H	 -3.144994	 -1.202467	 -0.018751
O	 -2.321472	 -0.864941	 -0.318626
C	 -2.021813	 0.336996	 0.342658
C	 -0.669613	 0.837286	 -0.127252
H	 -2.780861	 1.084746	 0.127159
H	 -2.006390	 0.184138	 1.420053
C	 0.490865	 -0.082543	 0.241244
H	 -0.708709	 0.967192	 -1.204587
H	 -0.507562	 1.822272	 0.303070
C	 1.839800	 0.429565	 -0.255472
H	 0.305636	 -1.070211	 -0.165276
H	 0.527397	 -0.195943	 1.322876
C	 1.758143	 1.817219	 -0.882796
H	 2.541699	 0.450995	 0.573734
H	 2.247716	 -0.269613	 -0.981036
H	 1.386660	 2.546250	 -0.170456
H	 2.731033	 2.153154	 -1.223292
H	 1.089250	 1.821847	 -1.737200

	symmetry c1
}
set optking {
	frozen_dihedral = ("
		14 10 7 11
	")
}

ee = optimize('scf')
oeprop('DIPOLE', 'QUADRUPOLE', 'MULLIKEN_CHARGES')
f=open( 'psi4out.xyz', 'w' )
f.write( "18  " )
f.write( str(ee) + "\n" )
f.write( MOL.save_string_xyz() )
f.close()
--------------------------------------------------------------------------

    Molecular point group: c1
  Charge       = 0
  Multiplicity = 1
  Basis Set: CC-PVTZ
  Basis Set:
  @DF-RHF Final Energy:  -271.27241955759905
    Total Energy =                       -271.2724195575991644
    Molecular point group: c1
  Basis Set: CC-PVTZ
  Basis Set:
  Basis Set: CC-PVTZ
  Basis Set:
  @DF-RHF Final Energy:  -271.27279261141285
    Total Energy =                       -271.2727926114129104
  Basis Set: CC-PVTZ
  Basis Set:
  Basis Set: CC-PVTZ
  Basis Set:
  @DF-RHF Final Energy:  -271.27630809576402
    Total Energy =                       -271.2763080957639659
  Basis Set: CC-PVTZ
  Basis Set:
  Basis Set: CC-PVTZ
  Basis Set:
  @DF-RHF Final Energy:  -271.27677928108596
    Total Energy =                       -271.2767792810859646
  Basis Set: CC-PVTZ
  Basis Set:
  Basis Set: CC-PVTZ
  Basis Set:
  @DF-RHF Final Energy:  -271.27683159698137
    Total Energy =                       -271.2768315969811397
  Basis Set: CC-PVTZ
  Basis Set:
  Basis Set: CC-PVTZ
  Basis Set:
  @DF-RHF Final Energy:  -271.27684255447400
    Total Energy =                       -271.2768425544740012
  Basis Set: CC-PVTZ
  Basis Set:
  Charge       = 0
  Multiplicity = 1
  Basis Set: CC-PVTZ
  Basis Set:

    Orbital Energies (a.u.)
    -----------------------

    Doubly Occupied:

       1A    -20.546069     2A    -11.265576     3A    -11.209744
       4A    -11.209685     5A    -11.205161     6A    -11.203104
       7A     -1.363947     8A     -1.072196     9A     -1.006208
      10A     -0.915912    11A     -0.834556    12A     -0.765211
      13A     -0.708408    14A     -0.639400    15A     -0.624516
      16A     -0.600817    17A     -0.562368    18A     -0.551115
      19A     -0.529080    20A     -0.511007    21A     -0.492085
      22A     -0.464457    23A     -0.450820    24A     -0.443617
      25A     -0.429686

  @DF-RHF Final Energy:  -271.27684300207648

   => Energetics <=

    Nuclear Repulsion Energy =            252.1236137670146888
    One-Electron Energy =                -867.5914188891672438
    Two-Electron Energy =                 344.1909621200757670
    DFT Exchange-Correlation Energy =       0.0000000000000000
    Empirical Dispersion Energy =           0.0000000000000000
    PCM Polarization Energy =               0.0000000000000000
    EFP Energy =                            0.0000000000000000
    Total Energy =                       -271.2768430020767596
    Molecular point group: c1
  Basis Set: CC-PVTZ
  Basis Set:

  -Total Gradient:
     Atom            X                  Y                   Z
    ------   -----------------  -----------------  -----------------
       1        0.000001069780    -0.000002584647     0.000000882863
       2        0.000045429437    -0.000029429774     0.000019520293
       3       -0.000041054730     0.000033032364    -0.000083718186
       4        0.000001561084     0.000046946497     0.000120819075
       5       -0.000000395681     0.000019614265     0.000010841294
       6        0.000019102846    -0.000003640294    -0.000016208899
       7        0.001042526541    -0.000673190379     0.002240180243
       8        0.000018086508     0.000002082275    -0.000022385263
       9       -0.000028369851    -0.000017599145    -0.000001420762
      10        0.000476779448    -0.002339270779    -0.000958064066
      11       -0.000938064823     0.000899261877    -0.001756671364
      12        0.000001937036     0.000004852865    -0.000010542732
      13       -0.000005403391     0.000008406831     0.000027587729
      14       -0.000572328067     0.002060943098     0.000466155926
      15        0.000001241870     0.000000044891    -0.000003753104
      16        0.000031900685    -0.000000301194    -0.000016356862
      17       -0.000004063592    -0.000005133115    -0.000005086907
      18       -0.000049955101    -0.000004035633    -0.000011779278

  **** Optimization is complete! (in 7 steps) ****
    Final optimized geometry and variables:
    Molecular point group: c1

    Geometry (in Angstrom), charge = 0, multiplicity = 1:

    H           -2.910876703852    -1.695350561769     0.189270050944
    O           -2.112930983841    -1.314479805190    -0.127076937131
    C           -1.851399045423    -0.110451117701     0.546711572775
    C           -0.538134411666     0.464152268803     0.049405381416
    H           -2.650508814418     0.603588448489     0.364134495575
    H           -1.799610726553    -0.279780255784     1.620496630199
    C            0.662779363523    -0.419274439989     0.392732583199
    H           -0.617381562146     0.598576366665    -1.023658091884
    H           -0.424799230168     1.451397939157     0.485292354123
    C            2.051633415872     0.064658313690    -0.102798005950
    H            0.465379080559    -1.399446109896    -0.019962704221
    H            0.692751091882    -0.540756138133     1.471146656725
    C            2.122308410109     1.452699512902    -0.741253171943
    H            2.737084648852     0.063134094670     0.737778488944
    H            2.443611177913    -0.653990777046    -0.813426295728
    H            1.808884242681     2.231110979769    -0.055102864518
    H            3.143476785526     1.670558620580    -1.033317421138
    H            1.507492952801     1.526556020051    -1.629937349507

  Mulliken Charges: (a.u.)
   Center  Symbol    Alpha    Beta     Spin     Total
       1     H     0.39564  0.39564  0.00000  0.20871
       2     O     4.19900  4.19900  0.00000 -0.39801
       3     C     2.97470  2.97470  0.00000  0.05060
       4     C     3.09214  3.09214  0.00000 -0.18428
       5     H     0.46498  0.46498  0.00000  0.07005
       6     H     0.47347  0.47347  0.00000  0.05307
       7     C     3.09886  3.09886  0.00000 -0.19772
       8     H     0.45018  0.45018  0.00000  0.09965
       9     H     0.45278  0.45278  0.00000  0.09444
      10     C     3.08744  3.08744  0.00000 -0.17488
      11     H     0.44165  0.44165  0.00000  0.11670
      12     H     0.45599  0.45599  0.00000  0.08802
      13     C     3.15727  3.15727  0.00000 -0.31453
      14     H     0.45261  0.45261  0.00000  0.09477
      15     H     0.45086  0.45086  0.00000  0.09827
      16     H     0.45469  0.45469  0.00000  0.09062
      17     H     0.44515  0.44515  0.00000  0.10971
      18     H     0.45260  0.45260  0.00000  0.09481

   Total alpha = 25.00000, Total beta = 25.00000, Total charge = -0.00000
