                              Psi4 1.0.54 Driver

  ==> Input File <==

--------------------------------------------------------------------------
set {
	reference rhf
	basis cc-pvtz
}

set_num_threads( 4 )
memory 2 gb

molecule MOL {
0 1

O	 1.600851	 3.339348	 -1.773896
C	 0.899329	 3.208681	 -2.723055
C	 -0.370864	 2.383477	 -2.684586
C	 1.231536	 3.863993	 -4.044580
C	 -0.664866	 1.740947	 -1.336422
H	 -1.190486	 3.029788	 -2.990479
H	 -0.294071	 1.627851	 -3.463134
C	 -1.951943	 0.920909	 -1.345593
H	 -0.726350	 2.514717	 -0.579710
H	 0.170968	 1.111628	 -1.052744
C	 -2.258482	 0.271340	 0.000669
H	 -2.785456	 1.557905	 -1.633285
H	 -1.883888	 0.148181	 -2.108169
C	 -3.544441	 -0.550271	 -0.000253
H	 -2.326939	 1.042989	 0.763548
H	 -1.426217	 -0.366218	 0.288736
C	 -4.804551	 0.308747	 0.000556
H	 -3.553737	 -1.201524	 -0.870151
H	 -3.553831	 -1.203282	 0.868313
H	 -4.842050	 0.949078	 -0.874436
H	 -5.698404	 -0.304480	 -0.000254
H	 -4.842277	 0.947103	 0.876982
H	 0.428145	 4.527302	 -4.345632
H	 2.150188	 4.423021	 -3.955369
H	 1.335555	 3.112011	 -4.819012

	symmetry c1
}
set optking {
	frozen_dihedral = ("
		15 11 14 18
	")
}

ee,wfn = optimize('scf', return_wfn=True)
oeprop( wfn, 'DIPOLE', 'QUADRUPOLE', 'MULLIKEN_CHARGES')
f=open( 'psi4out.xyz', 'w' )
f.write( "25  " )
f.write( str(ee) + "\n" )
f.write( MOL.save_string_xyz() )
f.close()
--------------------------------------------------------------------------

    Molecular point group: c1
  Charge       = 0
  Multiplicity = 1
  Basis Set: CC-PVTZ
  Basis Set:
  @DF-RHF Final Energy:  -387.27247012098206
    Total Energy =                       -387.2724701209817795
    Molecular point group: c1
  Basis Set: CC-PVTZ
  Basis Set:
  Basis Set: CC-PVTZ
  Basis Set:
  @DF-RHF Final Energy:  -387.27262467021575
    Total Energy =                       -387.2726246702156914
  Basis Set: CC-PVTZ
  Basis Set:
  Basis Set: CC-PVTZ
  Basis Set:
  @DF-RHF Final Energy:  -387.27268962050567
    Total Energy =                       -387.2726896205056164
  Basis Set: CC-PVTZ
  Basis Set:
  Basis Set: CC-PVTZ
  Basis Set:
  @DF-RHF Final Energy:  -387.27266545390216
    Total Energy =                       -387.2726654539021638
  Basis Set: CC-PVTZ
  Basis Set:
  Basis Set: CC-PVTZ
  Basis Set:
  @DF-RHF Final Energy:  -387.27269026045201
    Total Energy =                       -387.2726902604525776
  Basis Set: CC-PVTZ
  Basis Set:
  Charge       = 0
  Multiplicity = 1
  Basis Set: CC-PVTZ
  Basis Set:

    Orbital Energies (a.u.)
    -----------------------

    Doubly Occupied:

       1A    -20.538868     2A    -11.320502     3A    -11.230166
       4A    -11.226584     5A    -11.215056     6A    -11.214407
       7A    -11.213925     8A    -11.211811     9A    -11.206997
      10A     -1.398910    11A     -1.095089    12A     -1.056997
      13A     -1.014711    14A     -0.968383    15A     -0.895481
      16A     -0.822627    17A     -0.782038    18A     -0.730687
      19A     -0.659597    20A     -0.655269    21A     -0.627554
      22A     -0.621201    23A     -0.612045    24A     -0.590258
      25A     -0.568511    26A     -0.557725    27A     -0.540515
      28A     -0.521880    29A     -0.516223    30A     -0.495433
      31A     -0.489674    32A     -0.477661    33A     -0.463225
      34A     -0.456592    35A     -0.452274    36A     -0.401424

  @DF-RHF Final Energy:  -387.27269125419224

   => Energetics <=

    Nuclear Repulsion Energy =            442.8793492562427332
    One-Electron Energy =               -1402.6034696993824582
    Two-Electron Energy =                 572.4514291889472588
    DFT Exchange-Correlation Energy =       0.0000000000000000
    Empirical Dispersion Energy =           0.0000000000000000
    PCM Polarization Energy =               0.0000000000000000
    EFP Energy =                            0.0000000000000000
    Total Energy =                       -387.2726912541925230
    Molecular point group: c1
  Basis Set: CC-PVTZ
  Basis Set:

  -Total Gradient:
     Atom            X                  Y                   Z
    ------   -----------------  -----------------  -----------------
       1        0.000004382891    -0.000004807019     0.000008911122
       2       -0.000010712183     0.000012826835    -0.000007534252
       3        0.000007601764     0.000011332460    -0.000002777899
       4        0.000002976466    -0.000002687788    -0.000004001550
       5        0.000006615232    -0.000009968965    -0.000003343613
       6       -0.000000027156     0.000000385475    -0.000002957386
       7        0.000000720891     0.000000879180     0.000003673376
       8        0.000007418273    -0.000034056036     0.000009908213
       9       -0.000000910910    -0.000003811675     0.000001832590
      10       -0.000001812914     0.000002557184    -0.000001053652
      11        0.000564777057    -0.000848209957     0.001011438284
      12       -0.000003520118    -0.000004410107     0.000005816135
      13       -0.000000461310     0.000001928764    -0.000013417914
      14        0.000700628210    -0.001041947334     0.000691755535
      15       -0.000602773217     0.000891182855    -0.000939414537
      16       -0.000001927259     0.000007083811    -0.000008080161
      17        0.000003164165    -0.000001339239     0.000010781988
      18       -0.000672290169     0.001015237106    -0.000756636921
      19        0.000003542935     0.000000872502    -0.000002876145
      20        0.000009159451     0.000002598380    -0.000000023284
      21       -0.000010618947    -0.000003694477     0.000005221080
      22       -0.000005178330     0.000007559235    -0.000004092024
      23        0.000000084056     0.000000442725    -0.000001006637
      24       -0.000000747096    -0.000001314970     0.000000966091
      25       -0.000000091783     0.000001361055    -0.000003088438

  **** Optimization is complete! (in 6 steps) ****
    Final optimized geometry and variables:
    Molecular point group: c1

    Geometry (in Angstrom), charge = 0, multiplicity = 1:

    O            2.705568308526     1.618475463307    -0.222932596445
    C            2.005202435878     1.496081030213    -1.173973465295
    C            0.732833910791     0.673719366721    -1.143252509773
    C            2.341017102888     2.159502062055    -2.490624287894
    C            0.434957463253     0.022804246559     0.200044629514
    H           -0.084462750265     1.324357492272    -1.446174653802
    H            0.809143274904    -0.076744979879    -1.926835265543
    C           -0.854476930225    -0.793970546705     0.183581172498
    H            0.374194448576     0.791725778141     0.961789370981
    H            1.268843511307    -0.610356028151     0.480983534407
    C           -1.153474517907    -1.456172050964     1.527894819652
    H           -1.681059257636    -0.150380123842    -0.103740126945
    H           -0.786278002892    -1.562757566047    -0.583131115006
    C           -2.432896879395    -2.296438735639     1.546847780894
    H           -1.220413794209    -0.685548998392     2.291975893707
    H           -0.311326183259    -2.086240073884     1.797867247221
    C           -3.720999960080    -1.476049914053     1.573969688689
    H           -2.447181175851    -2.947804384613     0.676990418578
    H           -2.415568235547    -2.944385796418     2.417116104147
    H           -3.819527356113    -0.847734466184     0.696477940370
    H           -4.590327937303    -2.122790705915     1.609779291835
    H           -3.752943887275    -0.832018667928     2.446664460109
    H            1.539516871699     2.826531249261    -2.788438136280
    H            3.260731955991     2.716010905027    -2.396338784436
    H            2.444672082996     1.412405796433    -3.269822208528

  Mulliken Charges: (a.u.)
   Center  Symbol    Alpha    Beta     Spin     Total
       1     O     4.17083  4.17083  0.00000 -0.34166
       2     C     2.86218  2.86218  0.00000  0.27564
       3     C     3.11324  3.11324  0.00000 -0.22647
       4     C     3.15127  3.15127  0.00000 -0.30255
       5     C     3.08222  3.08222  0.00000 -0.16444
       6     H     0.44579  0.44579  0.00000  0.10841
       7     H     0.44563  0.44563  0.00000  0.10873
       8     C     3.09234  3.09234  0.00000 -0.18469
       9     H     0.44590  0.44590  0.00000  0.10820
      10     H     0.44578  0.44578  0.00000  0.10845
      11     C     3.09432  3.09432  0.00000 -0.18863
      12     H     0.45483  0.45483  0.00000  0.09033
      13     H     0.45614  0.45614  0.00000  0.08773
      14     C     3.09068  3.09068  0.00000 -0.18136
      15     H     0.45386  0.45386  0.00000  0.09228
      16     H     0.44783  0.44783  0.00000  0.10434
      17     C     3.15026  3.15026  0.00000 -0.30053
      18     H     0.45612  0.45612  0.00000  0.08777
      19     H     0.44742  0.44742  0.00000  0.10517
      20     H     0.45555  0.45555  0.00000  0.08890
      21     H     0.44705  0.44705  0.00000  0.10590
      22     H     0.45463  0.45463  0.00000  0.09073
      23     H     0.45039  0.45039  0.00000  0.09922
      24     H     0.43536  0.43536  0.00000  0.12929
      25     H     0.45038  0.45038  0.00000  0.09923

   Total alpha = 36.00000, Total beta = 36.00000, Total charge = -0.00000

*** Psi4 exiting successfully. Buy a developer a beer!
