                              Psi4 1.0.54 Driver

  ==> Input File <==

--------------------------------------------------------------------------
set {
	reference rhf
	basis cc-pvtz
}

set_num_threads( 4 )
memory 2 gb

molecule MOL {
0 1

H	 -2.362939	 -1.309000	 -0.383250
C	 -1.359344	 -1.272457	 0.020748
C	 -0.684082	 0.000127	 -0.464918
H	 -0.825835	 -2.151141	 -0.318537
H	 -1.416276	 -1.292399	 1.099455
C	 -1.359089	 1.272668	 0.021259
N	 0.742439	 -0.000109	 0.007333
H	 -0.596914	 0.000345	 -1.538146
H	 -2.362696	 1.309620	 -0.382686
H	 -0.825392	 2.151374	 -0.317674
H	 -1.415983	 1.292181	 1.099973
O	 0.972684	 -0.526514	 1.043446
O	 1.547929	 0.525983	 -0.685994

	symmetry c1
}
set optking {
	frozen_dihedral = ("
		12 7 3 8
	")
}

ee,wfn = optimize('scf', return_wfn=True)
oeprop( wfn, 'DIPOLE', 'QUADRUPOLE', 'MULLIKEN_CHARGES')
f=open( 'psi4out.xyz', 'w' )
f.write( "13  " )
f.write( str(ee) + "\n" )
f.write( MOL.save_string_xyz() )
f.close()
--------------------------------------------------------------------------

    Molecular point group: c1
  Charge       = 0
  Multiplicity = 1
  Basis Set: CC-PVTZ
  Basis Set:
  @DF-RHF Final Energy:  -321.86367959764561
    Total Energy =                       -321.8636795976455005
    Molecular point group: c1
  Basis Set: CC-PVTZ
  Basis Set:
  Basis Set: CC-PVTZ
  Basis Set:
  @DF-RHF Final Energy:  -321.86061542145262
    Total Energy =                       -321.8606154214526214
  Basis Set: CC-PVTZ
  Basis Set:
  Basis Set: CC-PVTZ
  Basis Set:
  @DF-RHF Final Energy:  -321.86083744998473
    Total Energy =                       -321.8608374499847287
  Basis Set: CC-PVTZ
  Basis Set:
  Basis Set: CC-PVTZ
  Basis Set:
  @DF-RHF Final Energy:  -321.86400094490330
    Total Energy =                       -321.8640009449034096
  Basis Set: CC-PVTZ
  Basis Set:
  Basis Set: CC-PVTZ
  Basis Set:
  @DF-RHF Final Energy:  -321.86416404169904
    Total Energy =                       -321.8641640416989276
  Basis Set: CC-PVTZ
  Basis Set:
  Basis Set: CC-PVTZ
  Basis Set:
  @DF-RHF Final Energy:  -321.86417989856778
    Total Energy =                       -321.8641798985676701
  Basis Set: CC-PVTZ
  Basis Set:
  Charge       = 0
  Multiplicity = 1
  Basis Set: CC-PVTZ
  Basis Set:

    Orbital Energies (a.u.)
    -----------------------

    Doubly Occupied:

       1A    -20.589843     2A    -20.587793     3A    -15.832879
       4A    -11.304761     5A    -11.245374     6A    -11.239176
       7A     -1.633954     8A     -1.418259     9A     -1.142191
      10A     -0.972955    11A     -0.957335    12A     -0.816219
      13A     -0.755414    14A     -0.731661    15A     -0.726133
      16A     -0.648233    17A     -0.594247    18A     -0.587635
      19A     -0.571367    20A     -0.529520    21A     -0.521976
      22A     -0.485072    23A     -0.470741    24A     -0.451842

  @DF-RHF Final Energy:  -321.86418139864759

   => Energetics <=

    Nuclear Repulsion Energy =            257.3774033131226133
    One-Electron Energy =                -948.8540088840286444
    Two-Electron Energy =                 369.6124241722583861
    DFT Exchange-Correlation Energy =       0.0000000000000000
    Empirical Dispersion Energy =           0.0000000000000000
    PCM Polarization Energy =               0.0000000000000000
    EFP Energy =                            0.0000000000000000
    Total Energy =                       -321.8641813986476450
    Molecular point group: c1
  Basis Set: CC-PVTZ
  Basis Set:

  -Total Gradient:
     Atom            X                  Y                   Z
    ------   -----------------  -----------------  -----------------
       1       -0.000004174828    -0.000003984334    -0.000001747683
       2        0.000030724021    -0.000013478509     0.000011445329
       3       -0.000105105634     0.000624256021    -0.000102425892
       4        0.000006273244    -0.000031861012     0.000002454943
       5        0.000000957641     0.000005367816    -0.000005678309
       6        0.000010397550     0.000035905467    -0.000018272025
       7       -0.000218989549     0.000846429172     0.000451504201
       8        0.000198929954    -0.000755098885     0.000011789936
       9       -0.000028688734     0.000013255955     0.000003952471
      10       -0.000008841281     0.000022147823     0.000007426761
      11        0.000000842756    -0.000005141247    -0.000005162556
      12        0.000173837995    -0.000778585248    -0.000233472047
      13       -0.000056163133     0.000040786980    -0.000121815130

  **** Optimization is complete! (in 7 steps) ****
    Final optimized geometry and variables:
    Molecular point group: c1

    Geometry (in Angstrom), charge = 0, multiplicity = 1:

    H           -2.076837583164    -1.757950049750    -0.362699023713
    C           -1.106978737544    -1.530639978482     0.062458088958
    C           -0.669348504264    -0.172448210298    -0.450120500134
    H           -0.414552285986    -2.305967860203    -0.236584722742
    H           -1.187463145005    -1.539257764397     1.139073888252
    C           -1.560972134151     0.973216209389     0.012227323914
    N            0.731152070158     0.144099986363    -0.000933091644
    H           -0.592632777229    -0.173939001370    -1.525238141836
    H           -2.566588790951     0.804308801381    -0.349885538163
    H           -1.209893993393     1.918779349703    -0.376459950812
    H           -1.589674760876     1.022854446566     1.093167643300
    O            1.099532499189    -0.291017660814     1.037382509905
    O            1.371394986775     0.840422721941    -0.715920724482

  Mulliken Charges: (a.u.)
   Center  Symbol    Alpha    Beta     Spin     Total
       1     H     0.45014  0.45014  0.00000  0.09972
       2     C     3.14390  3.14390  0.00000 -0.28780
       3     C     3.00771  3.00771  0.00000 -0.01542
       4     H     0.44058  0.44058  0.00000  0.11884
       5     H     0.43914  0.43914  0.00000  0.12171
       6     C     3.14295  3.14295  0.00000 -0.28589
       7     N     3.27414  3.27414  0.00000  0.45172
       8     H     0.42609  0.42609  0.00000  0.14783
       9     H     0.44844  0.44844  0.00000  0.10311
      10     H     0.43601  0.43601  0.00000  0.12798
      11     H     0.44303  0.44303  0.00000  0.11393
      12     O     4.17384  4.17384  0.00000 -0.34768
      13     O     4.17402  4.17402  0.00000 -0.34805

   Total alpha = 24.00000, Total beta = 24.00000, Total charge = -0.00000

*** Psi4 exiting successfully. Buy a developer a beer!
