  ==> Input File <==

--------------------------------------------------------------------------
set {
	reference rhf
	basis 6-31G*
}

set_num_threads( 1 )
memory 2 gb

molecule MOL {
0 1

H	 -3.793768	 0.404102	 -1.001490
O	 -3.517110	 -0.026191	 -0.205115
C	 -2.306886	 0.532354	 0.237577
C	 -1.177863	 -0.397191	 -0.171080
H	 -2.156308	 1.517575	 -0.201710
H	 -2.315015	 0.655684	 1.319734
C	 0.198102	 0.111031	 0.262842
H	 -1.208843	 -0.518759	 -1.250427
H	 -1.368741	 -1.376554	 0.258909
C	 1.331804	 -0.827780	 -0.158768
H	 0.361943	 1.100838	 -0.156218
H	 0.217265	 0.229072	 1.345532
C	 2.723619	 -0.410569	 0.329459
H	 1.342964	 -0.912588	 -1.244120
H	 1.116806	 -1.824343	 0.220779
C	 3.243875	 0.895854	 -0.272975
H	 3.424222	 -1.207124	 0.091250
H	 2.714788	 -0.329854	 1.414619
H	 3.251977	 0.848779	 -1.358681
H	 2.637085	 1.747371	 0.016682
H	 4.259473	 1.094070	 0.055697

	symmetry c1
}
set optking {
	frozen_dihedral = ("
		2 3 4 8,
		8 4 7 10,
		4 7 10 14,
		16 13 10 14
	")
}

ee = energy('scf')
oeprop('DIPOLE', 'QUADRUPOLE', 'MULLIKEN_CHARGES')
f=open( 'psi4out.xyz', 'w' )
f.write( "21  " )
f.write( str(ee) + "\n" )
f.write( MOL.save_string_xyz() )
f.close()
--------------------------------------------------------------------------

    Molecular point group: c1

    Geometry (in Angstrom), charge = 0, multiplicity = 1:

       Center              X                  Y                   Z               Mass
    ------------   -----------------  -----------------  -----------------  -----------------
           H         -3.798137762133     0.405425052405    -0.991212184760     1.007825032070
           O         -3.521479762133    -0.024867947595    -0.194837184760    15.994914619560
           C         -2.311255762133     0.533677052405     0.247854815240    12.000000000000
           C         -1.182232762133    -0.395867947595    -0.160802184760    12.000000000000
           H         -2.160677762133     1.518898052405    -0.191432184760     1.007825032070
           H         -2.319384762133     0.657007052405     1.330011815240     1.007825032070
           C          0.193732237867     0.112354052405     0.273119815240    12.000000000000
           H         -1.213212762133    -0.517435947595    -1.240149184760     1.007825032070
           H         -1.373110762133    -1.375230947595     0.269186815240     1.007825032070
           C          1.327434237867    -0.826456947595    -0.148490184760    12.000000000000
           H          0.357573237867     1.102161052405    -0.145940184760     1.007825032070
           H          0.212895237867     0.230395052405     1.355809815240     1.007825032070
           C          2.719249237867    -0.409245947595     0.339736815240    12.000000000000
           H          1.338594237867    -0.911264947595    -1.233842184760     1.007825032070
           H          1.112436237867    -1.823019947595     0.231056815240     1.007825032070
           C          3.239505237867     0.897177052405    -0.262697184760    12.000000000000
           H          3.419852237867    -1.205800947595     0.101527815240     1.007825032070
           H          2.710418237867    -0.328530947595     1.424896815240     1.007825032070
           H          3.247607237867     0.850102052405    -1.348403184760     1.007825032070
           H          2.632715237867     1.748694052405     0.026959815240     1.007825032070
           H          4.255103237867     1.095393052405     0.065974815240     1.007825032070

  Charge       = 0
  Multiplicity = 1
  Basis Set: 6-31G*
  Basis Set:

    Orbital Energies (a.u.)
    -----------------------

    Doubly Occupied:

       1A    -20.551314     2A    -11.267944     3A    -11.215531
       4A    -11.215346     5A    -11.214032     6A    -11.209409
       7A    -11.208868     8A     -1.359395     9A     -1.086474
      10A     -1.033166    11A     -0.954438    12A     -0.876950
      13A     -0.811433    14A     -0.779065    15A     -0.700707
      16A     -0.646901    17A     -0.623625    18A     -0.603242
      19A     -0.593210    20A     -0.569171    21A     -0.543451
      22A     -0.520888    23A     -0.507079    24A     -0.492866
      25A     -0.471220    26A     -0.468543    27A     -0.460790
      28A     -0.455801    29A     -0.417023

  @DF-RHF Final Energy:  -310.21037769142532

   => Energetics <=

    Nuclear Repulsion Energy =            312.7685618808462209
    One-Electron Energy =               -1040.2421534359432371
    Two-Electron Energy =                 417.2632138636714103
    DFT Exchange-Correlation Energy =       0.0000000000000000
    Empirical Dispersion Energy =           0.0000000000000000
    PCM Polarization Energy =               0.0000000000000000
    EFP Energy =                            0.0000000000000000
    Total Energy =                       -310.2103776914256628

  Mulliken Charges: (a.u.)
   Center  Symbol    Alpha    Beta     Spin     Total
       1     H     0.28004  0.28004  0.00000  0.43991
       2     O     4.37119  4.37119  0.00000 -0.74239
       3     C     2.99656  2.99656  0.00000  0.00689
       4     C     3.15489  3.15489  0.00000 -0.30978
       5     H     0.43224  0.43224  0.00000  0.13552
       6     H     0.41979  0.41979  0.00000  0.16041
       7     C     3.16322  3.16322  0.00000 -0.32643
       8     H     0.42503  0.42503  0.00000  0.14993
       9     H     0.41440  0.41440  0.00000  0.17120
      10     C     3.15132  3.15132  0.00000 -0.30264
      11     H     0.42311  0.42311  0.00000  0.15379
      12     H     0.42343  0.42343  0.00000  0.15314
      13     C     3.15241  3.15241  0.00000 -0.30481
      14     H     0.42415  0.42415  0.00000  0.15171
      15     H     0.42087  0.42087  0.00000  0.15825
      16     C     3.24115  3.24115  0.00000 -0.48230
      17     H     0.42076  0.42076  0.00000  0.15847
      18     H     0.42324  0.42324  0.00000  0.15351
      19     H     0.42249  0.42249  0.00000  0.15502
      20     H     0.42064  0.42064  0.00000  0.15872
      21     H     0.41906  0.41906  0.00000  0.16187

   Total alpha = 29.00000, Total beta = 29.00000, Total charge = -0.00000
