  ==> Input File <==

--------------------------------------------------------------------------
set {
	reference rhf
	basis 6-31G*
}

set_num_threads( 1 )
memory 2 gb

molecule MOL {
0 1

O	 -2.042549	 -1.228399	 -0.269030
C	 -1.653912	 -0.146171	 0.050137
C	 -0.332303	 0.024011	 0.778412
C	 -2.438579	 1.106236	 -0.272369
C	 0.557229	 -1.216331	 0.599097
H	 0.188874	 0.907675	 0.420788
H	 -0.552335	 0.163437	 1.831061
C	 1.888142	 -1.099075	 1.343377
H	 0.751756	 -1.379740	 -0.459458
H	 0.013085	 -2.086678	 0.953420
C	 2.770969	 -2.334867	 1.174137
H	 2.423700	 -0.220449	 0.990361
H	 1.693487	 -0.935335	 2.400669
H	 3.011430	 -2.505616	 0.128634
H	 2.274349	 -3.225108	 1.548681
H	 3.705766	 -2.224965	 1.714603
H	 -3.277823	 0.863061	 -0.908988
H	 -1.806773	 1.843019	 -0.759671
H	 -2.802853	 1.554979	 0.648059

	symmetry c1
}
set optking {
	frozen_dihedral = ("
		11 8 5 9,
		9 5 3 2
	")
}

ee = energy('scf')
oeprop('DIPOLE', 'QUADRUPOLE', 'MULLIKEN_CHARGES')
f=open( 'psi4out.xyz', 'w' )
f.write( "19  " )
f.write( str(ee) + "\n" )
f.write( MOL.save_string_xyz() )
f.close()
--------------------------------------------------------------------------

    Molecular point group: c1

    Geometry (in Angstrom), charge = 0, multiplicity = 1:

       Center              X                  Y                   Z               Mass
    ------------   -----------------  -----------------  -----------------  -----------------
           O         -1.867652490913    -0.519579347055    -0.752052161216    15.994914619560
           C         -1.479015490913     0.562648652945    -0.432885161216    12.000000000000
           C         -0.157406490913     0.732830652945     0.295389838784    12.000000000000
           C         -2.263682490913     1.815055652945    -0.755391161216    12.000000000000
           C          0.732125509087    -0.507511347055     0.116074838784    12.000000000000
           H          0.363770509087     1.616494652945    -0.062234161216     1.007825032070
           H         -0.377438490913     0.872256652945     1.348038838784     1.007825032070
           C          2.063038509087    -0.390255347055     0.860354838784    12.000000000000
           H          0.926652509087    -0.670920347055    -0.942480161216     1.007825032070
           H          0.187981509087    -1.377858347055     0.470397838784     1.007825032070
           C          2.945865509087    -1.626047347055     0.691114838784    12.000000000000
           H          2.598596509087     0.488370652945     0.507338838784     1.007825032070
           H          1.868383509087    -0.226515347055     1.917646838784     1.007825032070
           H          3.186326509087    -1.796796347055    -0.354388161216     1.007825032070
           H          2.449245509087    -2.516288347055     1.065658838784     1.007825032070
           H          3.880662509087    -1.516145347055     1.231580838784     1.007825032070
           H         -3.102926490913     1.571880652945    -1.392010161216     1.007825032070
           H         -1.631876490913     2.551838652945    -1.242693161216     1.007825032070
           H         -2.627956490913     2.263798652945     0.165036838784     1.007825032070

  Charge       = 0
  Multiplicity = 1
  Basis Set: 6-31G*
  Basis Set:

    Orbital Energies (a.u.)
    -----------------------

    Doubly Occupied:

       1A    -20.549875     2A    -11.326337     3A    -11.231140
       4A    -11.229052     5A    -11.217858     6A    -11.216555
       7A    -11.209290     8A     -1.395987     9A     -1.083653
      10A     -1.028478    11A     -0.983831    12A     -0.884906
      13A     -0.798908    14A     -0.731142    15A     -0.658675
      16A     -0.650303    17A     -0.624617    18A     -0.611231
      19A     -0.579304    20A     -0.571797    21A     -0.553935
      22A     -0.529098    23A     -0.511690    24A     -0.488398
      25A     -0.472993    26A     -0.469104    27A     -0.467986
      28A     -0.400380

  @DF-RHF Final Energy:  -309.06557502713844

   => Energetics <=

    Nuclear Repulsion Energy =            301.5060731573532280
    One-Electron Energy =               -1016.1902708463815088
    Two-Electron Energy =                 405.6186226618900719
    DFT Exchange-Correlation Energy =       0.0000000000000000
    Empirical Dispersion Energy =           0.0000000000000000
    PCM Polarization Energy =               0.0000000000000000
    EFP Energy =                            0.0000000000000000
    Total Energy =                       -309.0655750271381521

  Mulliken Charges: (a.u.)
   Center  Symbol    Alpha    Beta     Spin     Total
       1     O     4.26144  4.26144  0.00000 -0.52288
       2     C     2.73664  2.73664  0.00000  0.52673
       3     C     3.21038  3.21038  0.00000 -0.42077
       4     C     3.28612  3.28612  0.00000 -0.57224
       5     C     3.14921  3.14921  0.00000 -0.29843
       6     H     0.41245  0.41245  0.00000  0.17510
       7     H     0.40523  0.40523  0.00000  0.18954
       8     C     3.15282  3.15282  0.00000 -0.30565
       9     H     0.41751  0.41751  0.00000  0.16499
      10     H     0.40680  0.40680  0.00000  0.18641
      11     C     3.23921  3.23921  0.00000 -0.47842
      12     H     0.42500  0.42500  0.00000  0.14999
      13     H     0.42410  0.42410  0.00000  0.15180
      14     H     0.42070  0.42070  0.00000  0.15861
      15     H     0.41962  0.41962  0.00000  0.16075
      16     H     0.41943  0.41943  0.00000  0.16113
      17     H     0.39654  0.39654  0.00000  0.20692
      18     H     0.40954  0.40954  0.00000  0.18091
      19     H     0.40725  0.40725  0.00000  0.18550

   Total alpha = 28.00000, Total beta = 28.00000, Total charge =  0.00000
