                              Psi4 1.0.54 Driver

  ==> Input File <==

--------------------------------------------------------------------------
set {
	reference rhf
	basis cc-pvtz
}

set_num_threads( 4 )
memory 2 gb

molecule MOL {
0 1

H	 -1.752232	 -2.214755	 -0.011938
C	 -1.343852	 -1.221619	 -0.018179
N	 -0.058800	 -1.097635	 -0.261688
C	 -2.148159	 -0.124236	 0.219734
C	 0.449026	 0.119242	 -0.273393
H	 -3.196988	 -0.237571	 0.417076
N	 -1.655094	 1.094230	 0.209506
C	 -0.370318	 1.215445	 -0.035100
C	 1.924033	 0.265863	 -0.538106
H	 0.033214	 2.210441	 -0.046812
C	 2.479924	 -0.857408	 -1.414859
H	 2.086104	 1.218408	 -1.028160
H	 2.457259	 0.294554	 0.404795
H	 3.533700	 -0.699186	 -1.610962
H	 1.959066	 -0.894064	 -2.362668
H	 2.369252	 -1.821317	 -0.930941

	symmetry c1
}
set optking {
	frozen_dihedral = ("
		12 9 5 3
	")
}

ee,wfn = optimize('scf', return_wfn=True)
oeprop( wfn, 'DIPOLE', 'QUADRUPOLE', 'MULLIKEN_CHARGES')
f=open( 'psi4out.xyz', 'w' )
f.write( "16  " )
f.write( str(ee) + "\n" )
f.write( MOL.save_string_xyz() )
f.close()
--------------------------------------------------------------------------

    Molecular point group: c1
  Charge       = 0
  Multiplicity = 1
  Basis Set: CC-PVTZ
  Basis Set:
  @DF-RHF Final Energy:  -340.87076266352000
    Total Energy =                       -340.8707626635199404
    Molecular point group: c1
  Basis Set: CC-PVTZ
  Basis Set:
  Basis Set: CC-PVTZ
  Basis Set:
  @DF-RHF Final Energy:  -340.87114184103325
    Total Energy =                       -340.8711418410334204
  Basis Set: CC-PVTZ
  Basis Set:
  Basis Set: CC-PVTZ
  Basis Set:
  @DF-RHF Final Energy:  -340.87121080343053
    Total Energy =                       -340.8712108034306993
  Basis Set: CC-PVTZ
  Basis Set:
  Basis Set: CC-PVTZ
  Basis Set:
  @DF-RHF Final Energy:  -340.87122781780005
    Total Energy =                       -340.8712278177994222
  Basis Set: CC-PVTZ
  Basis Set:
  Basis Set: CC-PVTZ
  Basis Set:
  @DF-RHF Final Energy:  -340.87123782751104
    Total Energy =                       -340.8712378275109813
  Basis Set: CC-PVTZ
  Basis Set:
  Basis Set: CC-PVTZ
  Basis Set:
  @DF-RHF Final Energy:  -340.87123962512760
    Total Energy =                       -340.8712396251273162
  Basis Set: CC-PVTZ
  Basis Set:
  Charge       = 0
  Multiplicity = 1
  Basis Set: CC-PVTZ
  Basis Set:

    Orbital Energies (a.u.)
    -----------------------

    Doubly Occupied:

       1A    -15.580463     2A    -15.575240     3A    -11.279999
       4A    -11.271440     5A    -11.268876     6A    -11.266704
       7A    -11.233203     8A    -11.211536     9A     -1.315990
      10A     -1.224049    11A     -1.084921    12A     -1.015052
      13A     -0.911338    14A     -0.891254    15A     -0.825887
      16A     -0.720393    17A     -0.709351    18A     -0.658583
      19A     -0.627194    20A     -0.603952    21A     -0.572071
      22A     -0.561157    23A     -0.523079    24A     -0.504255
      25A     -0.502182    26A     -0.487640    27A     -0.434474
      28A     -0.397216    29A     -0.346080

  @DF-RHF Final Energy:  -340.87124012367099

   => Energetics <=

    Nuclear Repulsion Energy =            350.4099531082026715
    One-Electron Energy =               -1155.3552244650306875
    Two-Electron Energy =                 464.0740312331571999
    DFT Exchange-Correlation Energy =       0.0000000000000000
    Empirical Dispersion Energy =           0.0000000000000000
    PCM Polarization Energy =               0.0000000000000000
    EFP Energy =                            0.0000000000000000
    Total Energy =                       -340.8712401236708160
    Molecular point group: c1
  Basis Set: CC-PVTZ
  Basis Set:

  -Total Gradient:
     Atom            X                  Y                   Z
    ------   -----------------  -----------------  -----------------
       1        0.000017984105    -0.000005928110     0.000029144455
       2       -0.000036125021     0.000013388604    -0.000086205944
       3       -0.000127972055     0.000023731257    -0.000548645646
       4        0.000035684919    -0.000016082726    -0.000014619818
       5        0.000146274905    -0.000148674544     0.000764571622
       6        0.000001193581     0.000007026986     0.000015579172
       7        0.000049353940     0.000022494465    -0.000013636951
       8       -0.000054868169    -0.000016512333     0.000032820992
       9        0.000080597862     0.000349519556     0.000424858282
      10       -0.000007296877     0.000013526443    -0.000017020766
      11       -0.000015622398     0.000003204133    -0.000004554515
      12       -0.000073614646    -0.000234840464    -0.000582958108
      13       -0.000022293822     0.000008706474    -0.000006634394
      14        0.000002859924    -0.000000429214     0.000011880789
      15       -0.000001145486     0.000000955358    -0.000000413613
      16        0.000004989235    -0.000020085884    -0.000004165558

  **** Optimization is complete! (in 7 steps) ****
    Final optimized geometry and variables:
    Molecular point group: c1

    Geometry (in Angstrom), charge = 0, multiplicity = 1:

    H           -1.858346529984    -2.022774677599     0.259841569731
    C           -1.387883447470    -1.057790363587     0.259711877992
    N           -0.095616439505    -1.016083527232    -0.000722623489
    C           -2.112362981162     0.082286591150     0.520092005221
    C            0.490778791536     0.158635464715    -0.004321155906
    H           -3.163381598766     0.038363273365     0.731332981002
    N           -1.537736933107     1.270056048605     0.514425324916
    C           -0.256237977852     1.307816290152     0.254141315059
    C            1.974947858671     0.247690238334    -0.270530841536
    H            0.213438627660     2.273898889107     0.242994005059
    C            2.533734367893    -0.887797334241    -1.120237827322
    H            2.181634700354     1.198594213981    -0.748896011784
    H            2.490102989194     0.271032589217     0.685964292138
    H            3.595149455901    -0.740941010630    -1.280801960192
    H            2.047433046689    -0.926297541657    -2.087710120098
    H            2.388443607644    -1.844646895503    -0.640202825609

  Mulliken Charges: (a.u.)
   Center  Symbol    Alpha    Beta     Spin     Total
       1     H     0.41459  0.41459  0.00000  0.17081
       2     C     3.04525  3.04525  0.00000 -0.09049
       3     N     3.59058  3.59058  0.00000 -0.18116
       4     C     3.04742  3.04742  0.00000 -0.09484
       5     C     2.94474  2.94474  0.00000  0.11052
       6     H     0.41367  0.41367  0.00000  0.17266
       7     N     3.58677  3.58677  0.00000 -0.17355
       8     C     3.07583  3.07583  0.00000 -0.15167
       9     C     3.07822  3.07822  0.00000 -0.15645
      10     H     0.41660  0.41660  0.00000  0.16679
      11     C     3.14445  3.14445  0.00000 -0.28890
      12     H     0.44838  0.44838  0.00000  0.10324
      13     H     0.44661  0.44661  0.00000  0.10678
      14     H     0.45027  0.45027  0.00000  0.09945
      15     H     0.45246  0.45246  0.00000  0.09508
      16     H     0.44414  0.44414  0.00000  0.11173

   Total alpha = 29.00000, Total beta = 29.00000, Total charge =  0.00000

*** Psi4 exiting successfully. Buy a developer a beer!
