  ==> Input File <==

--------------------------------------------------------------------------
set {
	reference rhf
	basis 6-31G*
}

set_num_threads( 4 )
memory 2 gb

molecule MOL {
0 1

H	 -3.269016	 -0.876744	 0.468090
C	 -2.809304	 0.000122	 0.025886
N	 -1.391456	 0.000019	 0.300661
H	 -3.037557	 -0.000063	 -1.044252
H	 -3.269223	 0.876956	 0.468000
C	 -0.599993	 -0.233214	 -0.891386
C	 -1.033668	 -0.937504	 1.347011
H	 -0.806384	 -1.216532	 -1.324972
H	 -0.858537	 0.514780	 -1.633829
C	 0.883445	 -0.132531	 -0.572259
H	 -1.608526	 -0.703156	 2.237054
H	 -1.268765	 -1.967445	 1.061601
C	 0.449771	 -0.836820	 1.666138
H	 1.458303	 -0.366878	 -1.462302
H	 1.118542	 0.897410	 -0.286849
N	 1.241234	 -1.070053	 0.474091
H	 0.708315	 -1.584815	 2.408581
H	 0.656161	 0.146497	 2.099723
C	 2.659081	 -1.070157	 0.748865
H	 3.208170	 -1.309747	 -0.154944
H	 2.889678	 -1.827263	 1.490110
H	 3.022509	 -0.107820	 1.121858

	symmetry c1
}
set optking {
	frozen_dihedral = ("
		6 3 2 4
	")
}

ee = optimize('scf')
oeprop('DIPOLE', 'QUADRUPOLE', 'MULLIKEN_CHARGES')
f=open( 'psi4out.xyz', 'w' )
f.write( "22  " )
f.write( str(ee) + "\n" )
f.write( MOL.save_string_xyz() )
f.close()
--------------------------------------------------------------------------

    Molecular point group: c1
  Charge       = 0
  Multiplicity = 1
  Basis Set: 6-31G*
  Basis Set:
  @DF-RHF Final Energy:  -344.22405705689965
    Total Energy =                       -344.2240570568994826
    Molecular point group: c1
  Basis Set: 6-31G*
  Basis Set:
  Basis Set: 6-31G*
  Basis Set:
  @DF-RHF Final Energy:  -344.22499850786647
    Total Energy =                       -344.2249985078659620
  Basis Set: 6-31G*
  Basis Set:
  Basis Set: 6-31G*
  Basis Set:
  @DF-RHF Final Energy:  -344.22516995789567
    Total Energy =                       -344.2251699578959006
  Basis Set: 6-31G*
  Basis Set:
  Basis Set: 6-31G*
  Basis Set:
  @DF-RHF Final Energy:  -344.22518397076379
    Total Energy =                       -344.2251839707636236
  Basis Set: 6-31G*
  Basis Set:
  Charge       = 0
  Multiplicity = 1
  Basis Set: 6-31G*
  Basis Set:

    Orbital Energies (a.u.)
    -----------------------

    Doubly Occupied:

       1A    -15.541340     2A    -15.537602     3A    -11.238555
       4A    -11.238342     5A    -11.237427     6A    -11.237406
       7A    -11.235840     8A    -11.235447     9A     -1.252715
      10A     -1.200857    11A     -1.024393    12A     -0.990578
      13A     -0.911850    14A     -0.866609    15A     -0.835342
      16A     -0.753215    17A     -0.664384    18A     -0.634820
      19A     -0.629485    20A     -0.624408    21A     -0.618962
      22A     -0.578925    23A     -0.551861    24A     -0.548363
      25A     -0.542462    26A     -0.519265    27A     -0.496756
      28A     -0.487493    29A     -0.465151    30A     -0.455302
      31A     -0.348366    32A     -0.337313

  @DF-RHF Final Energy:  -344.22518516309060

   => Energetics <=

    Nuclear Repulsion Energy =            420.8355633749664548
    One-Electron Energy =               -1300.4398248259549291
    Two-Electron Energy =                 535.3790762878975329
    DFT Exchange-Correlation Energy =       0.0000000000000000
    Empirical Dispersion Energy =           0.0000000000000000
    PCM Polarization Energy =               0.0000000000000000
    EFP Energy =                            0.0000000000000000
    Total Energy =                       -344.2251851630909414
    Molecular point group: c1
  Basis Set: 6-31G*
  Basis Set:

  -Total Gradient:
     Atom            X                  Y                   Z
    ------   -----------------  -----------------  -----------------
       1       -0.000015853445    -0.000003783884    -0.000004004168
       2        0.000190760355     0.005626323016     0.000039419441
       3       -0.000232756067    -0.004708879591     0.000432206922
       4       -0.000153836372    -0.003538514939    -0.000176481984
       5        0.000038169074    -0.000050962148     0.000002350465
       6        0.000167648682     0.002661163438    -0.000361665756
       7        0.000003021274     0.000039395014     0.000027861905
       8       -0.000018497288     0.000001190008     0.000008342741
       9        0.000002655470    -0.000001450287     0.000004961928
      10        0.000020061545     0.000019766679     0.000015613466
      11       -0.000002057134    -0.000005521015     0.000000641304
      12        0.000012009119     0.000007665798     0.000005606996
      13       -0.000007313099    -0.000060278513     0.000023616786
      14        0.000000252679     0.000001764283     0.000001577217
      15        0.000002560952     0.000011101109    -0.000003646767
      16       -0.000024864160     0.000017242637    -0.000008977229
      17        0.000024101839    -0.000001288719     0.000010237216
      18       -0.000020798238    -0.000009048476    -0.000006179823
      19        0.000005652014    -0.000009812351    -0.000012219821
      20        0.000006684572     0.000001184913     0.000002765841
      21        0.000003724163     0.000001863552    -0.000000809874
      22       -0.000001325942     0.000000879476    -0.000001216806

  **** Optimization is complete! (in 5 steps) ****
    Final optimized geometry and variables:
    Molecular point group: c1

    Geometry (in Angstrom), charge = 0, multiplicity = 1:

    H           -3.267028486168    -0.323162235940     0.020474464599
    C           -2.750009176417     0.564784608982    -0.343027866980
    N           -1.319642811187     0.491858055764    -0.106004921012
    H           -2.960942338198     0.622560767669    -1.404716839987
    H           -3.186365466104     1.429158699300     0.147699054786
    C           -0.519682607693     0.282664419059    -1.294632566393
    C           -0.955032889638    -0.411703464598     0.963207735306
    H           -0.702911026695    -0.697413425640    -1.746419916038
    H           -0.779443164654     1.038019066057    -2.028159908993
    C            0.959207586290     0.402781864464    -0.960874856094
    H           -1.530684835914    -0.157095296062     1.847383882128
    H           -1.183716803162    -1.451231371998     0.708155135519
    C            0.527145995788    -0.291826753665     1.280695544953
    H            1.545673842239     0.175333374437    -1.845199045593
    H            1.177627860453     1.436065787754    -0.673855675167
    N            1.320657089791    -0.528195818163     0.090376574874
    H            0.794494711718    -1.029310943850     2.030612064169
    H            0.723634370998     0.698205369454     1.703609159566
    C            2.738169806964    -0.517867575164     0.366788493153
    H            3.290184765270    -0.759413097585    -0.534738043668
    H            2.972542359008    -1.269011044218     1.112892599371
    H            3.095238131525     0.448873178215     0.734663612936

  Mulliken Charges: (a.u.)
   Center  Symbol    Alpha    Beta     Spin     Total
       1     H     0.42715  0.42715  0.00000  0.14570
       2     C     3.13816  3.13816  0.00000 -0.27631
       3     N     3.79417  3.79417  0.00000 -0.58834
       4     H     0.42034  0.42034  0.00000  0.15931
       5     H     0.41620  0.41620  0.00000  0.16760
       6     C     3.05312  3.05312  0.00000 -0.10624
       7     C     3.05374  3.05374  0.00000 -0.10748
       8     H     0.42962  0.42962  0.00000  0.14076
       9     H     0.41791  0.41791  0.00000  0.16418
      10     C     3.05689  3.05689  0.00000 -0.11379
      11     H     0.41780  0.41780  0.00000  0.16439
      12     H     0.42912  0.42912  0.00000  0.14175
      13     C     3.05654  3.05654  0.00000 -0.11308
      14     H     0.41838  0.41838  0.00000  0.16325
      15     H     0.42895  0.42895  0.00000  0.14209
      16     N     3.78718  3.78718  0.00000 -0.57435
      17     H     0.41832  0.41832  0.00000  0.16337
      18     H     0.42900  0.42900  0.00000  0.14200
      19     C     3.14009  3.14009  0.00000 -0.28018
      20     H     0.41686  0.41686  0.00000  0.16628
      21     H     0.41686  0.41686  0.00000  0.16628
      22     H     0.43359  0.43359  0.00000  0.13282

   Total alpha = 32.00000, Total beta = 32.00000, Total charge = -0.00000
