  ==> Input File <==

--------------------------------------------------------------------------
set {
	reference rhf
	basis 6-31G*
}

set_num_threads( 4 )
memory 2 gb

molecule MOL {
0 1

O	 -2.821601	 1.309235	 -0.001213
C	 -2.668563	 0.129746	 -0.000350
C	 -3.801572	 -0.864014	 -0.000442
O	 -1.481751	 -0.454642	 0.000584
H	 -4.417280	 -0.689587	 -0.874708
H	 -3.443784	 -1.883046	 -0.000565
H	 -4.417179	 -0.689832	 0.873954
C	 -0.334255	 0.388708	 0.000906
C	 0.891947	 -0.504646	 0.000751
H	 -0.365390	 1.025305	 -0.873475
H	 -0.365484	 1.024911	 0.875569
C	 1.335016	 -0.874737	 1.417506
H	 1.697750	 0.005196	 -0.520000
H	 0.670972	 -1.404186	 -0.567105
C	 2.571383	 -1.775435	 1.439062
H	 1.543336	 0.032379	 1.982156
H	 0.518513	 -1.375468	 1.934878
C	 3.014674	 -2.143954	 2.854177
H	 3.388398	 -1.276430	 0.922770
H	 2.364191	 -2.683428	 0.877199
H	 3.261705	 -1.257383	 3.431224
H	 3.892515	 -2.782174	 2.836672
H	 2.229957	 -2.675237	 3.385183

	symmetry c1
}
set optking {
	frozen_dihedral = ("
		13 9 8 10
	")
}

ee = optimize('scf')
oeprop('DIPOLE', 'QUADRUPOLE', 'MULLIKEN_CHARGES')
f=open( 'psi4out.xyz', 'w' )
f.write( "23  " )
f.write( str(ee) + "\n" )
f.write( MOL.save_string_xyz() )
f.close()
--------------------------------------------------------------------------

    Molecular point group: c1
  Charge       = 0
  Multiplicity = 1
  Basis Set: 6-31G*
  Basis Set:
  @DF-RHF Final Energy:  -422.97695418835576
    Total Energy =                       -422.9769541883553075
    Molecular point group: c1
  Basis Set: 6-31G*
  Basis Set:
  Basis Set: 6-31G*
  Basis Set:
  @DF-RHF Final Energy:  -422.97732375492279
    Total Energy =                       -422.9773237549225087
  Basis Set: 6-31G*
  Basis Set:
  Basis Set: 6-31G*
  Basis Set:
  @DF-RHF Final Energy:  -422.97738562790829
    Total Energy =                       -422.9773856279085749
  Basis Set: 6-31G*
  Basis Set:
  Basis Set: 6-31G*
  Basis Set:
  @DF-RHF Final Energy:  -422.97717565154187
    Total Energy =                       -422.9771756515418701
  Basis Set: 6-31G*
  Basis Set:
  Basis Set: 6-31G*
  Basis Set:
  @DF-RHF Final Energy:  -422.97743272382473
    Total Energy =                       -422.9774327238252454
  Basis Set: 6-31G*
  Basis Set:
  Basis Set: 6-31G*
  Basis Set:
  @DF-RHF Final Energy:  -422.97743053502796
    Total Energy =                       -422.9774305350279064
  Basis Set: 6-31G*
  Basis Set:
  Basis Set: 6-31G*
  Basis Set:
  @DF-RHF Final Energy:  -422.97743426765135
    Total Energy =                       -422.9774342676512333
  Basis Set: 6-31G*
  Basis Set:
  Charge       = 0
  Multiplicity = 1
  Basis Set: 6-31G*
  Basis Set:

    Orbital Energies (a.u.)
    -----------------------

    Doubly Occupied:

       1A    -20.604047     2A    -20.541168     3A    -11.374652
       4A    -11.281696     5A    -11.232952     6A    -11.224539
       7A    -11.220337     8A    -11.219663     9A    -11.211868
      10A     -1.468613    11A     -1.361442    12A     -1.091851
      13A     -1.041444    14A     -1.002894    15A     -0.930892
      16A     -0.842848    17A     -0.799791    18A     -0.781063
      19A     -0.688367    20A     -0.680892    21A     -0.667187
      22A     -0.643504    23A     -0.607983    24A     -0.583604
      25A     -0.577435    26A     -0.574214    27A     -0.558978
      28A     -0.534139    29A     -0.528568    30A     -0.504979
      31A     -0.496939    32A     -0.474100    33A     -0.469977
      34A     -0.462568    35A     -0.445331    36A     -0.436999

  @DF-RHF Final Energy:  -422.97743431546661

   => Energetics <=

    Nuclear Repulsion Energy =            455.8594430047912169
    One-Electron Energy =               -1479.3387070520434463
    Two-Electron Energy =                 600.5018297317847100
    DFT Exchange-Correlation Energy =       0.0000000000000000
    Empirical Dispersion Energy =           0.0000000000000000
    PCM Polarization Energy =               0.0000000000000000
    EFP Energy =                            0.0000000000000000
    Total Energy =                       -422.9774343154674625
    Molecular point group: c1
  Basis Set: 6-31G*
  Basis Set:

  -Total Gradient:
     Atom            X                  Y                   Z
    ------   -----------------  -----------------  -----------------
       1       -0.000002702879     0.000001336780    -0.000001880425
       2       -0.000003166054    -0.000012943577    -0.000004324721
       3       -0.000001693552     0.000004032899     0.000003863581
       4       -0.000014297154     0.000022529671    -0.000006420178
       5        0.000000551501     0.000000227683     0.000000064070
       6        0.000000382788    -0.000000286626     0.000000008343
       7       -0.000000740436    -0.000000546621     0.000000109490
       8       -0.003082027882    -0.004707691042    -0.003699466042
       9        0.002063292487     0.003301872504     0.005323007653
      10        0.002221367623     0.003359593840     0.002239702243
      11       -0.000001060561    -0.000014980830    -0.000006415731
      12       -0.000007191324     0.000010921974    -0.000023937186
      13       -0.001189899953    -0.001960386635    -0.003851622222
      14       -0.000000811962    -0.000002372878     0.000006230086
      15        0.000015052822     0.000009922626     0.000010686449
      16        0.000000095819    -0.000001498540    -0.000006585656
      17        0.000001382122     0.000000965945     0.000013039059
      18       -0.000001660110    -0.000018393166    -0.000000717171
      19        0.000000212137     0.000004890833     0.000005473888
      20        0.000003818639     0.000005373100    -0.000002848556
      21        0.000003651256    -0.000000038574    -0.000005380504
      22       -0.000002875003    -0.000005572077     0.000002989475
      23       -0.000001680323     0.000003042712     0.000004424059

  **** Optimization is complete! (in 8 steps) ****
    Final optimized geometry and variables:
    Molecular point group: c1

    Geometry (in Angstrom), charge = 0, multiplicity = 1:

    O           -2.449284373809     1.824048325840    -0.660086133439
    C           -2.279345678257     0.647258369398    -0.634795538552
    C           -3.397830239437    -0.361921533947    -0.592460537211
    O           -1.084261928667     0.079307032866    -0.642148464246
    H           -4.030884910521    -0.216240996710    -1.459544663231
    H           -3.025731353336    -1.375696371318    -0.575708674259
    H           -4.000713215709    -0.176220663571     0.288405340303
    C            0.050921535833     0.937648940235    -0.677307018853
    C            1.302734169676     0.072717718610    -0.629371963742
    H            0.018685354791     1.555743200356    -1.564197734412
    H            0.002498530578     1.609656323232     0.170050924586
    C            1.724633922572    -0.327653251934     0.783855041442
    H            2.106038247300     0.593766790168    -1.144413079255
    H            1.112381322745    -0.818680037187    -1.221291535991
    C            2.942229956292    -1.252523093866     0.807380863347
    H            1.942274703541     0.568675373986     1.362135061686
    H            0.888479842268    -0.817350044222     1.278121548304
    C            3.364766123316    -1.645377304395     2.222443511762
    H            3.774781420212    -0.765024213406     0.304258573490
    H            2.722544935546    -2.150309191472     0.233819109040
    H            3.626230883836    -0.770484979309     2.810890481676
    H            4.228220476014    -2.303028810109     2.206403448784
    H            2.563309804579    -2.164041962578     2.740782440952

  Mulliken Charges: (a.u.)
   Center  Symbol    Alpha    Beta     Spin     Total
       1     O     4.28364  4.28364  0.00000 -0.56728
       2     C     2.61480  2.61480  0.00000  0.77039
       3     C     3.28767  3.28767  0.00000 -0.57535
       4     O     4.30984  4.30984  0.00000 -0.61967
       5     H     0.39729  0.39729  0.00000  0.20542
       6     H     0.40014  0.40014  0.00000  0.19973
       7     H     0.39741  0.39741  0.00000  0.20519
       8     C     3.00512  3.00512  0.00000 -0.01024
       9     C     3.16754  3.16754  0.00000 -0.33507
      10     H     0.40799  0.40799  0.00000  0.18402
      11     H     0.40986  0.40986  0.00000  0.18028
      12     C     3.15490  3.15490  0.00000 -0.30981
      13     H     0.41705  0.41705  0.00000  0.16591
      14     H     0.41087  0.41087  0.00000  0.17825
      15     C     3.15266  3.15266  0.00000 -0.30532
      16     H     0.42250  0.42250  0.00000  0.15501
      17     H     0.41643  0.41643  0.00000  0.16713
      18     C     3.23955  3.23955  0.00000 -0.47910
      19     H     0.42264  0.42264  0.00000  0.15472
      20     H     0.42151  0.42151  0.00000  0.15699
      21     H     0.42115  0.42115  0.00000  0.15771
      22     H     0.41848  0.41848  0.00000  0.16304
      23     H     0.42097  0.42097  0.00000  0.15806

   Total alpha = 36.00000, Total beta = 36.00000, Total charge = -0.00000
