  ==> Input File <==

--------------------------------------------------------------------------
set {
	reference rhf
	basis 6-31G*
}

set_num_threads( 4 )
memory 2 gb

molecule MOL {
0 1

H	 -2.357793	 -0.169329	 -0.871994
N	 -1.852125	 0.165761	 -0.074816
C	 -0.563778	 -0.502042	 0.037919
H	 -2.418891	 -0.026193	 0.729352
C	 0.575259	 0.508231	 -0.048326
H	 -0.482092	 -1.204004	 -0.786564
H	 -0.460411	 -1.085169	 0.956626
C	 1.954651	 -0.143624	 0.035137
H	 0.475158	 1.060484	 -0.977307
H	 0.469181	 1.234488	 0.755973
H	 2.103292	 -0.853109	 -0.774172
H	 2.742821	 0.599562	 -0.030094
H	 2.083613	 -0.679371	 0.971560

	symmetry c1
}
set optking {
	frozen_dihedral = ("
		1 2 3 6
	")
}

ee = optimize('scf')
oeprop('DIPOLE', 'QUADRUPOLE', 'MULLIKEN_CHARGES')
f=open( 'psi4out.xyz', 'w' )
f.write( "13  " )
f.write( str(ee) + "\n" )
f.write( MOL.save_string_xyz() )
f.close()
--------------------------------------------------------------------------

    Molecular point group: c1
  Charge       = 0
  Multiplicity = 1
  Basis Set: 6-31G*
  Basis Set:
  @DF-RHF Final Energy:  -173.27838349007342
    Total Energy =                       -173.2783834900734234
    Molecular point group: c1
  Basis Set: 6-31G*
  Basis Set:
  Basis Set: 6-31G*
  Basis Set:
  @DF-RHF Final Energy:  -173.27899773702018
    Total Energy =                       -173.2789977370202052
  Basis Set: 6-31G*
  Basis Set:
  Basis Set: 6-31G*
  Basis Set:
  @DF-RHF Final Energy:  -173.27919358584506
    Total Energy =                       -173.2791935858450643
  Basis Set: 6-31G*
  Basis Set:
  Basis Set: 6-31G*
  Basis Set:
  @DF-RHF Final Energy:  -173.27919560812077
    Total Energy =                       -173.2791956081208014
  Basis Set: 6-31G*
  Basis Set:
  Basis Set: 6-31G*
  Basis Set:
  @DF-RHF Final Energy:  -173.27919812241021
    Total Energy =                       -173.2791981224102642
  Basis Set: 6-31G*
  Basis Set:
  Charge       = 0
  Multiplicity = 1
  Basis Set: 6-31G*
  Basis Set:

    Orbital Energies (a.u.)
    -----------------------

    Doubly Occupied:

       1A    -15.530796     2A    -11.240815     3A    -11.205763
       4A    -11.204629     5A     -1.172733     6A     -1.031964
       7A     -0.897993     8A     -0.793775     9A     -0.674491
      10A     -0.611383    11A     -0.601252    12A     -0.573309
      13A     -0.516776    14A     -0.489836    15A     -0.484811
      16A     -0.462472    17A     -0.376699

  @DF-RHF Final Energy:  -173.27919824179466

   => Energetics <=

    Nuclear Repulsion Energy =            131.3788724785533475
    One-Electron Energy =                -493.5771494203403904
    Two-Electron Energy =                 188.9190786999924399
    DFT Exchange-Correlation Energy =       0.0000000000000000
    Empirical Dispersion Energy =           0.0000000000000000
    PCM Polarization Energy =               0.0000000000000000
    EFP Energy =                            0.0000000000000000
    Total Energy =                       -173.2791982417946315
    Molecular point group: c1
  Basis Set: 6-31G*
  Basis Set:

  -Total Gradient:
     Atom            X                  Y                   Z
    ------   -----------------  -----------------  -----------------
       1        0.000121595206     0.000191736812    -0.000167707125
       2       -0.000172169739    -0.000271568468     0.000245573218
       3        0.000181009445     0.000254612694    -0.000220534239
       4       -0.000004623802    -0.000006449046     0.000004816634
       5       -0.000009131336    -0.000000710007    -0.000020413920
       6       -0.000110605948    -0.000175382538     0.000145659722
       7       -0.000007800007     0.000000469267     0.000003677495
       8       -0.000002731346     0.000006180353     0.000012982247
       9       -0.000001218465     0.000003415808    -0.000001672579
      10        0.000005221629    -0.000001397944    -0.000001540516
      11       -0.000004479535     0.000004240007    -0.000002447475
      12        0.000001485720    -0.000001910536     0.000002192809
      13        0.000003448177    -0.000003236401    -0.000000586272

  **** Optimization is complete! (in 6 steps) ****
    Final optimized geometry and variables:
    Molecular point group: c1

    Geometry (in Angstrom), charge = 0, multiplicity = 1:

    H           -2.394868761654    -0.172571807493    -0.830861349600
    N           -1.861295807644     0.163440279078    -0.055841435563
    C           -0.557320515889    -0.492368228985     0.031824278545
    H           -2.407061687868     0.017880577569     0.768353010185
    C            0.583516026384     0.519598857252    -0.035105161083
    H           -0.444049044494    -1.214288489969    -0.773795648919
    H           -0.477461580698    -1.060615784191     0.956317162845
    C            1.962365909967    -0.132762415377     0.054775187761
    H            0.494569463217     1.080720844565    -0.961102672719
    H            0.457150926485     1.238143204857     0.770073464708
    H            2.121129783747    -0.835847123402    -0.758853749613
    H            2.752225750642     0.609974362512     0.005044690079
    H            2.082400894558    -0.677743360110     0.987571687756

  Mulliken Charges: (a.u.)
   Center  Symbol    Alpha    Beta     Spin     Total
       1     H     0.33092  0.33092  0.00000  0.33816
       2     N     3.92808  3.92808  0.00000 -0.85617
       3     C     3.06605  3.06605  0.00000 -0.13210
       4     H     0.33103  0.33103  0.00000  0.33793
       5     C     3.13857  3.13857  0.00000 -0.27714
       6     H     0.42626  0.42626  0.00000  0.14748
       7     H     0.42686  0.42686  0.00000  0.14628
       8     C     3.24634  3.24634  0.00000 -0.49268
       9     H     0.42023  0.42023  0.00000  0.15955
      10     H     0.42083  0.42083  0.00000  0.15834
      11     H     0.42342  0.42342  0.00000  0.15315
      12     H     0.41794  0.41794  0.00000  0.16412
      13     H     0.42346  0.42346  0.00000  0.15308

   Total alpha = 17.00000, Total beta = 17.00000, Total charge = -0.00000
