  ==> Input File <==

--------------------------------------------------------------------------
set {
	reference rhf
	basis 6-31G*
}

set_num_threads( 4 )
memory 2 gb

molecule MOL {
0 1

O	 3.790459	 0.216449	 2.068143
C	 3.002712	 -0.345745	 1.377887
C	 1.507734	 -0.367817	 1.586077
O	 3.347903	 -1.046386	 0.304773
C	 1.059781	 0.436719	 2.804345
H	 1.053421	 -0.005515	 0.669819
H	 1.209138	 -1.409376	 1.673776
C	 -0.442567	 0.338565	 3.090369
H	 1.341571	 1.476829	 2.670610
H	 1.609965	 0.086771	 3.671095
C	 -1.344730	 0.970111	 2.026244
H	 -0.636455	 0.825204	 4.043424
H	 -0.718695	 -0.706387	 3.223927
C	 -2.825618	 0.943949	 2.410022
H	 -1.034566	 2.000663	 1.860174
H	 -1.219280	 0.456395	 1.075807
C	 -3.737153	 1.567731	 1.351660
H	 -2.961817	 1.468124	 3.354440
H	 -3.133697	 -0.085408	 2.586688
C	 -5.213914	 1.541072	 1.744301
H	 -3.430050	 2.596066	 1.173172
H	 -3.605640	 1.042323	 0.408034
H	 -5.834181	 1.989858	 0.974583
H	 -5.384150	 2.088571	 2.667047
H	 -5.560824	 0.522869	 1.896587
C	 4.728119	 -1.109107	 -0.004993
H	 4.882018	 -1.033965	 -1.071845
H	 5.068212	 -2.067527	 0.355250
H	 5.265056	 -0.311663	 0.488280

	symmetry c1
}
set optking {
	frozen_dihedral = ("
		2 4 26 27
	")
}

ee = optimize('scf')
oeprop('DIPOLE', 'QUADRUPOLE', 'MULLIKEN_CHARGES')
f=open( 'psi4out.xyz', 'w' )
f.write( "29  " )
f.write( str(ee) + "\n" )
f.write( MOL.save_string_xyz() )
f.close()
--------------------------------------------------------------------------

    Molecular point group: c1
  Charge       = 0
  Multiplicity = 1
  Basis Set: 6-31G*
  Basis Set:
  @DF-RHF Final Energy:  -501.04113751744296
    Total Energy =                       -501.0411375174426212
    Molecular point group: c1
  Basis Set: 6-31G*
  Basis Set:
  Basis Set: 6-31G*
  Basis Set:
  @DF-RHF Final Energy:  -501.04193792807712
    Total Energy =                       -501.0419379280774592
  Basis Set: 6-31G*
  Basis Set:
  Basis Set: 6-31G*
  Basis Set:
  @DF-RHF Final Energy:  -501.04220173203885
    Total Energy =                       -501.0422017320386203
  Basis Set: 6-31G*
  Basis Set:
  Basis Set: 6-31G*
  Basis Set:
  @DF-RHF Final Energy:  -501.04229319253568
    Total Energy =                       -501.0422931925356806
  Basis Set: 6-31G*
  Basis Set:
  Basis Set: 6-31G*
  Basis Set:
  @DF-RHF Final Energy:  -501.04240146096481
    Total Energy =                       -501.0424014609652659
  Basis Set: 6-31G*
  Basis Set:
  Basis Set: 6-31G*
  Basis Set:
  @DF-RHF Final Energy:  -501.04241867363510
    Total Energy =                       -501.0424186736343017
  Basis Set: 6-31G*
  Basis Set:
  Charge       = 0
  Multiplicity = 1
  Basis Set: 6-31G*
  Basis Set:

    Orbital Energies (a.u.)
    -----------------------

    Doubly Occupied:

       1A    -20.602472     2A    -20.544576     3A    -11.373145
       4A    -11.279491     5A    -11.234182     6A    -11.218636
       7A    -11.217345     8A    -11.215817     9A    -11.215704
      10A    -11.214299    11A    -11.208977    12A     -1.466703
      13A     -1.362914    14A     -1.097761    15A     -1.066555
      16A     -1.019550    17A     -0.977726    18A     -0.928455
      19A     -0.861324    20A     -0.798986    21A     -0.790237
      22A     -0.763060    23A     -0.701347    24A     -0.680717
      25A     -0.671987    26A     -0.650682    27A     -0.628851
      28A     -0.604732    29A     -0.595361    30A     -0.580407
      31A     -0.567882    32A     -0.550037    33A     -0.533814
      34A     -0.526908    35A     -0.515420    36A     -0.511431
      37A     -0.496230    38A     -0.477620    39A     -0.469894
      40A     -0.462198    41A     -0.458558    42A     -0.452804
      43A     -0.441284    44A     -0.435114

  @DF-RHF Final Energy:  -501.04241880447285

   => Energetics <=

    Nuclear Repulsion Energy =            609.7943213071482660
    One-Electron Energy =               -1890.7310900436459633
    Two-Electron Energy =                 779.8943499320255341
    DFT Exchange-Correlation Energy =       0.0000000000000000
    Empirical Dispersion Energy =           0.0000000000000000
    PCM Polarization Energy =               0.0000000000000000
    EFP Energy =                            0.0000000000000000
    Total Energy =                       -501.0424188044721632
    Molecular point group: c1
  Basis Set: 6-31G*
  Basis Set:

  -Total Gradient:
     Atom            X                  Y                   Z
    ------   -----------------  -----------------  -----------------
       1        0.000001443720    -0.000006504600    -0.000009477766
       2       -0.000127027396     0.000938621031    -0.000626744246
       3       -0.000004068367     0.000012869293    -0.000005310180
       4        0.000233613516    -0.001094441233     0.000972390269
       5       -0.000004363275     0.000006230248    -0.000004038214
       6       -0.000012295711    -0.000003535390     0.000002615833
       7        0.000002408124    -0.000001127956     0.000001852795
       8       -0.000000870379    -0.000002854590    -0.000003086071
       9        0.000001610952     0.000002590532     0.000001661694
      10       -0.000001714783    -0.000001867840    -0.000008244361
      11        0.000000798664    -0.000007750573    -0.000001856670
      12       -0.000001356420     0.000000304501    -0.000000956006
      13       -0.000000610304    -0.000001435881    -0.000000090903
      14        0.000000244262     0.000004540733     0.000003941021
      15        0.000000427369    -0.000002122707     0.000002417029
      16        0.000001630639     0.000001011151    -0.000002089392
      17        0.000000547641     0.000003547356     0.000001937093
      18        0.000000323683     0.000003159949    -0.000000255627
      19       -0.000000997840     0.000001897650     0.000002656813
      20       -0.000000785530    -0.000006142270    -0.000003151507
      21       -0.000001502323     0.000000895181     0.000002838553
      22        0.000001898880     0.000002519592    -0.000001073462
      23       -0.000000387128    -0.000002017745    -0.000001067585
      24        0.000001417787     0.000001028369    -0.000001632428
      25       -0.000001273234    -0.000000418728     0.000001910821
      26       -0.000153637448    -0.001133387039    -0.000404456515
      27        0.000079826345     0.001297250232     0.000078399904
      28       -0.000010882099    -0.000007479425     0.000004349270
      29       -0.000004419352    -0.000005379843    -0.000003440154

  **** Optimization is complete! (in 7 steps) ****
    Final optimized geometry and variables:
    Molecular point group: c1

    Geometry (in Angstrom), charge = 0, multiplicity = 1:

    O            3.397147918658    -0.048898726136     0.411760222744
    C            2.618754622556    -0.615153690873    -0.285264723160
    C            1.122236400206    -0.639175989757    -0.085641523143
    O            2.961294739702    -1.321059085764    -1.357047274781
    C            0.665447522653     0.163293713775     1.130613452078
    H            0.672829613916    -0.276977403421    -1.004300681325
    H            0.824897147960    -1.681293747480    -0.000734714725
    C           -0.838699807528     0.063100584391     1.406389695475
    H            0.946966121707     1.203890399206     1.000264812678
    H            1.210109047375    -0.187274859300     2.000574989969
    C           -1.734401142175     0.695562942755     0.337347042498
    H           -1.039529301427     0.547930340614     2.358938875035
    H           -1.114693777776    -0.982352834278     1.536306269705
    C           -3.217747030016     0.667758912936     0.711421523813
    H           -1.423929043444     1.726592458031     0.174857309685
    H           -1.602358812367     0.183378569578    -0.613013916681
    C           -4.122929237497     1.291648988746    -0.352309071350
    H           -3.360601113586     1.190949476424     1.655401150824
    H           -3.526035621104    -0.362031698133     0.885148060132
    C           -5.602382374346     1.261677638743     0.029839106288
    H           -3.816440625405     2.320825154041    -0.526965979222
    H           -3.983817665628     0.768020031189    -1.295836053520
    H           -6.218060835382     1.710216951857    -0.743706656313
    H           -5.780184603235     1.807713247560     0.952022861991
    H           -5.948398802734     0.242626857509     0.178442610971
    C            4.328491507918    -1.394704729313    -1.723105732814
    H            4.367595123599    -1.328549016336    -2.800326687987
    H            4.733541911640    -2.343043538099    -1.396719291375
    H            4.887950416090    -0.587297490529    -1.280494435343

  Mulliken Charges: (a.u.)
   Center  Symbol    Alpha    Beta     Spin     Total
       1     O     4.28547  4.28547  0.00000 -0.57093
       2     C     2.60457  2.60457  0.00000  0.79087
       3     C     3.21006  3.21006  0.00000 -0.42013
       4     O     4.30925  4.30925  0.00000 -0.61851
       5     C     3.15375  3.15375  0.00000 -0.30749
       6     H     0.39901  0.39901  0.00000  0.20198
       7     H     0.40125  0.40125  0.00000  0.19750
       8     C     3.15659  3.15659  0.00000 -0.31318
       9     H     0.41318  0.41318  0.00000  0.17365
      10     H     0.40882  0.40882  0.00000  0.18236
      11     C     3.15503  3.15503  0.00000 -0.31006
      12     H     0.41831  0.41831  0.00000  0.16338
      13     H     0.42390  0.42390  0.00000  0.15219
      14     C     3.15028  3.15028  0.00000 -0.30057
      15     H     0.42266  0.42266  0.00000  0.15469
      16     H     0.42362  0.42362  0.00000  0.15277
      17     C     3.15145  3.15145  0.00000 -0.30289
      18     H     0.42334  0.42334  0.00000  0.15333
      19     H     0.42399  0.42399  0.00000  0.15203
      20     C     3.23934  3.23934  0.00000 -0.47869
      21     H     0.42282  0.42282  0.00000  0.15436
      22     H     0.42345  0.42345  0.00000  0.15309
      23     H     0.41926  0.41926  0.00000  0.16149
      24     H     0.42155  0.42155  0.00000  0.15690
      25     H     0.42183  0.42183  0.00000  0.15633
      26     C     3.09697  3.09697  0.00000 -0.19395
      27     H     0.41072  0.41072  0.00000  0.17856
      28     H     0.41319  0.41319  0.00000  0.17361
      29     H     0.39634  0.39634  0.00000  0.20733

   Total alpha = 44.00000, Total beta = 44.00000, Total charge = -0.00000
