  ==> Input File <==

--------------------------------------------------------------------------
set {
	reference rhf
	basis 6-31G*
}

set_num_threads( 1 )
memory 2 gb

molecule MOL {
0 1

H	 -3.647435	 -1.980093	 1.121239
O	 -3.164432	 -1.532802	 0.441133
C	 -1.923729	 -1.108292	 0.944162
C	 -1.177863	 -0.397191	 -0.171080
H	 -2.062935	 -0.434457	 1.788481
H	 -1.342550	 -1.958743	 1.298144
C	 0.198102	 0.111031	 0.262842
H	 -1.790295	 0.430469	 -0.518405
H	 -1.077627	 -1.083668	 -1.007249
C	 1.331804	 -0.827780	 -0.158768
H	 0.361943	 1.100838	 -0.156218
H	 0.217265	 0.229072	 1.345532
C	 2.723619	 -0.410569	 0.329459
H	 1.342964	 -0.912588	 -1.244120
H	 1.116806	 -1.824343	 0.220779
C	 3.243875	 0.895854	 -0.272975
H	 3.424222	 -1.207124	 0.091250
H	 2.714788	 -0.329854	 1.414619
H	 3.251977	 0.848779	 -1.358681
H	 2.637085	 1.747371	 0.016682
H	 4.259473	 1.094070	 0.055697

	symmetry c1
}
set optking {
	frozen_dihedral = ("
		2 3 4 8,
		4 7 10 14,
		16 13 10 14,
		1 2 3 5
	")
}

ee = energy('scf')
oeprop('DIPOLE', 'QUADRUPOLE', 'MULLIKEN_CHARGES')
f=open( 'psi4out.xyz', 'w' )
f.write( "21  " )
f.write( str(ee) + "\n" )
f.write( MOL.save_string_xyz() )
f.close()
--------------------------------------------------------------------------

    Molecular point group: c1

    Geometry (in Angstrom), charge = 0, multiplicity = 1:

       Center              X                  Y                   Z               Mass
    ------------   -----------------  -----------------  -----------------  -----------------
           H         -3.761182788486    -1.493589639513     0.912126500378     1.007825032070
           O         -3.278179788486    -1.046298639513     0.232020500378    15.994914619560
           C         -2.037476788486    -0.621788639513     0.735049500378    12.000000000000
           C         -1.291610788486     0.089312360487    -0.380192499622    12.000000000000
           H         -2.176682788486     0.052046360487     1.579368500378     1.007825032070
           H         -1.456297788486    -1.472239639513     1.089031500378     1.007825032070
           C          0.084354211514     0.597534360487     0.053729500378    12.000000000000
           H         -1.904042788486     0.916972360487    -0.727517499622     1.007825032070
           H         -1.191374788486    -0.597164639513    -1.216361499622     1.007825032070
           C          1.218056211514    -0.341276639513    -0.367880499622    12.000000000000
           H          0.248195211514     1.587341360487    -0.365330499622     1.007825032070
           H          0.103517211514     0.715575360487     1.136419500378     1.007825032070
           C          2.609871211514     0.075934360487     0.120346500378    12.000000000000
           H          1.229216211514    -0.426084639513    -1.453232499622     1.007825032070
           H          1.003058211514    -1.337839639513     0.011666500378     1.007825032070
           C          3.130127211514     1.382357360487    -0.482087499622    12.000000000000
           H          3.310474211514    -0.720620639513    -0.117862499622     1.007825032070
           H          2.601040211514     0.156649360487     1.205506500378     1.007825032070
           H          3.138229211514     1.335282360487    -1.567793499622     1.007825032070
           H          2.523337211514     2.233874360487    -0.192430499622     1.007825032070
           H          4.145725211514     1.580573360487    -0.153415499622     1.007825032070

  Charge       = 0
  Multiplicity = 1
  Basis Set: 6-31G*
  Basis Set:

    Orbital Energies (a.u.)
    -----------------------

    Doubly Occupied:

       1A    -20.551822     2A    -11.267434     3A    -11.215276
       4A    -11.214788     5A    -11.213958     6A    -11.209480
       7A    -11.208174     8A     -1.358682     9A     -1.087068
      10A     -1.032812    11A     -0.952486    12A     -0.878959
      13A     -0.808480    14A     -0.777895    15A     -0.694072
      16A     -0.650527    17A     -0.629608    18A     -0.609147
      19A     -0.588927    20A     -0.560346    21A     -0.545844
      22A     -0.517117    23A     -0.509808    24A     -0.494555
      25A     -0.475019    26A     -0.460868    27A     -0.452208
      28A     -0.446364    29A     -0.430411

  @DF-RHF Final Energy:  -310.20882440939221

   => Energetics <=

    Nuclear Repulsion Energy =            314.6404509541548009
    One-Electron Energy =               -1044.0143534377652941
    Two-Electron Energy =                 419.1650780742188545
    DFT Exchange-Correlation Energy =       0.0000000000000000
    Empirical Dispersion Energy =           0.0000000000000000
    PCM Polarization Energy =               0.0000000000000000
    EFP Energy =                            0.0000000000000000
    Total Energy =                       -310.2088244093915819

  Mulliken Charges: (a.u.)
   Center  Symbol    Alpha    Beta     Spin     Total
       1     H     0.28130  0.28130  0.00000  0.43741
       2     O     4.37158  4.37158  0.00000 -0.74316
       3     C     2.99232  2.99232  0.00000  0.01536
       4     C     3.16122  3.16122  0.00000 -0.32243
       5     H     0.43219  0.43219  0.00000  0.13562
       6     H     0.43280  0.43280  0.00000  0.13440
       7     C     3.16504  3.16504  0.00000 -0.33008
       8     H     0.41257  0.41257  0.00000  0.17485
       9     H     0.41268  0.41268  0.00000  0.17465
      10     C     3.15360  3.15360  0.00000 -0.30721
      11     H     0.41605  0.41605  0.00000  0.16790
      12     H     0.42400  0.42400  0.00000  0.15200
      13     C     3.15264  3.15264  0.00000 -0.30529
      14     H     0.42196  0.42196  0.00000  0.15608
      15     H     0.42263  0.42263  0.00000  0.15475
      16     C     3.24119  3.24119  0.00000 -0.48239
      17     H     0.42098  0.42098  0.00000  0.15804
      18     H     0.42403  0.42403  0.00000  0.15193
      19     H     0.42185  0.42185  0.00000  0.15631
      20     H     0.42013  0.42013  0.00000  0.15974
      21     H     0.41923  0.41923  0.00000  0.16154

   Total alpha = 29.00000, Total beta = 29.00000, Total charge =  0.00000
