  ==> Input File <==

--------------------------------------------------------------------------
set {
	reference rhf
	basis 6-31G*
}

set_num_threads( 1 )
memory 2 gb

molecule MOL {
0 1

H	 -3.892951	 0.981613	 -0.358725
C	 -3.196921	 0.361773	 0.172313
C	 -2.076860	 -0.007332	 -0.404944
H	 -3.439953	 0.057760	 1.173024
O	 -0.873386	 0.113817	 0.214598
H	 -2.045808	 -0.442843	 -1.388083
C	 0.273449	 -0.132320	 -0.524345
C	 0.741000	 1.103348	 -1.259746
H	 0.133548	 -0.924927	 -1.250911
H	 1.053124	 -0.422629	 0.164359
F	 1.856678	 0.827967	 -1.919468
F	 -0.154321	 1.518383	 -2.140641
F	 0.990681	 2.102815	 -0.439310

	symmetry c1
}
set optking {
	frozen_dihedral = ("
		11 8 7 9,
		3 5 7 9,
		6 3 5 7
	")
}

ee = energy('scf')
oeprop('DIPOLE', 'QUADRUPOLE', 'MULLIKEN_CHARGES')
f=open( 'psi4out.xyz', 'w' )
f.write( "13  " )
f.write( str(ee) + "\n" )
f.write( MOL.save_string_xyz() )
f.close()
--------------------------------------------------------------------------

    Molecular point group: c1

    Geometry (in Angstrom), charge = 0, multiplicity = 1:

       Center              X                  Y                   Z               Mass
    ------------   -----------------  -----------------  -----------------  -----------------
           H         -3.717004227719     0.176274163847     0.497610274549     1.007825032070
           C         -3.020974227719    -0.443565836153     1.028648274549    12.000000000000
           C         -1.900913227719    -0.812670836153     0.451391274549    12.000000000000
           H         -3.264006227719    -0.747578836153     2.029359274549     1.007825032070
           O         -0.697439227719    -0.691521836153     1.070933274549    15.994914619560
           H         -1.869861227719    -1.248181836153    -0.531747725451     1.007825032070
           C          0.449395772281    -0.937658836153     0.331990274549    12.000000000000
           C          0.916946772281     0.298009163847    -0.403410725451    12.000000000000
           H          0.309494772281    -1.730265836153    -0.394575725451     1.007825032070
           H          1.229070772281    -1.227967836153     1.020694274549     1.007825032070
           F          2.032624772281     0.022628163847    -1.063132725451    18.998403224000
           F          0.021625772281     0.713044163847    -1.284305725451    18.998403224000
           F          1.166627772281     1.297476163847     0.417025274549    18.998403224000

  Charge       = 0
  Multiplicity = 1
  Basis Set: 6-31G*
  Basis Set:

    Orbital Energies (a.u.)
    -----------------------

    Doubly Occupied:

       1A    -26.346284     2A    -26.344173     3A    -26.341503
       4A    -20.613000     5A    -11.505121     6A    -11.321121
       7A    -11.310304     8A    -11.205948     9A     -1.742793
      10A     -1.641025    11A     -1.639085    12A     -1.442450
      13A     -1.085930    14A     -1.016880    15A     -0.926552
      16A     -0.837818    17A     -0.831997    18A     -0.822950
      19A     -0.792872    20A     -0.722364    21A     -0.711996
      22A     -0.696367    23A     -0.676276    24A     -0.660722
      25A     -0.655428    26A     -0.644032    27A     -0.636738
      28A     -0.587165    29A     -0.575665    30A     -0.527127
      31A     -0.509390    32A     -0.315632

  @DF-RHF Final Energy:  -527.48047007782498

   => Energetics <=

    Nuclear Repulsion Energy =            413.4843466421339713
    One-Electron Energy =               -1550.5563468619648120
    Two-Electron Energy =                 609.5915301420059222
    DFT Exchange-Correlation Energy =       0.0000000000000000
    Empirical Dispersion Energy =           0.0000000000000000
    PCM Polarization Energy =               0.0000000000000000
    EFP Energy =                            0.0000000000000000
    Total Energy =                       -527.4804700778249753

  Mulliken Charges: (a.u.)
   Center  Symbol    Alpha    Beta     Spin     Total
       1     H     0.40258  0.40258  0.00000  0.19483
       2     C     3.25656  3.25656  0.00000 -0.51312
       3     C     2.89016  2.89016  0.00000  0.21969
       4     H     0.40418  0.40418  0.00000  0.19164
       5     O     4.29092  4.29092  0.00000 -0.58184
       6     H     0.40544  0.40544  0.00000  0.18913
       7     C     3.06628  3.06628  0.00000 -0.13256
       8     C     2.45416  2.45416  0.00000  1.09169
       9     H     0.40483  0.40483  0.00000  0.19035
      10     H     0.38917  0.38917  0.00000  0.22165
      11     F     4.68249  4.68249  0.00000 -0.36499
      12     F     4.67916  4.67916  0.00000 -0.35832
      13     F     4.67407  4.67407  0.00000 -0.34814

   Total alpha = 32.00000, Total beta = 32.00000, Total charge =  0.00000
