  ==> Input File <==

--------------------------------------------------------------------------
set {
	reference rhf
	basis 6-31G*
}

set_num_threads( 1 )
memory 2 gb

molecule MOL {
0 1

H	 -3.335488	 0.466474	 1.308409
C	 -3.342011	 0.174933	 0.250778
C	 -2.555994	 1.079012	 -0.664334
O	 -3.940020	 -0.790380	 -0.098945
C	 -1.117786	 1.303352	 -0.177010
H	 -2.577395	 0.657554	 -1.662644
H	 -3.077175	 2.035112	 -0.694303
C	 -0.252658	 0.041456	 -0.226725
H	 -0.663708	 2.076407	 -0.789778
H	 -1.137524	 1.695165	 0.838790
C	 1.180775	 0.282413	 0.250794
H	 -0.236837	 -0.339266	 -1.245866
H	 -0.705710	 -0.740738	 0.379457
C	 2.148627	 -0.814315	 -0.201312
H	 1.516199	 1.249228	 -0.115937
H	 1.192670	 0.346017	 1.338083
C	 3.580890	 -0.659131	 0.322722
H	 2.166869	 -0.852443	 -1.289387
H	 1.762857	 -1.776509	 0.128956
C	 4.324889	 0.564933	 -0.213704
H	 4.142010	 -1.551473	 0.056605
H	 3.564836	 -0.624694	 1.410140
H	 4.342616	 0.565491	 -1.300421
H	 3.866655	 1.493402	 0.110242
H	 5.353900	 0.572371	 0.132816

	symmetry c1
}
set optking {
	frozen_dihedral = ("
		6 3 5 8,
		6 3 2 4,
		3 5 8 12,
		8 11 14 18,
		20 17 14 18
	")
}

ee = energy('scf')
oeprop('DIPOLE', 'QUADRUPOLE', 'MULLIKEN_CHARGES')
f=open( 'psi4out.xyz', 'w' )
f.write( "25  " )
f.write( str(ee) + "\n" )
f.write( MOL.save_string_xyz() )
f.close()
--------------------------------------------------------------------------

    Molecular point group: c1

    Geometry (in Angstrom), charge = 0, multiplicity = 1:

       Center              X                  Y                   Z               Mass
    ------------   -----------------  -----------------  -----------------  -----------------
           H         -3.342370944437     0.338913017855     1.393437502104     1.007825032070
           C         -3.348893944437     0.047372017855     0.335806502104    12.000000000000
           C         -2.562876944437     0.951451017855    -0.579305497896    12.000000000000
           O         -3.946902944437    -0.917940982145    -0.013916497896    15.994914619560
           C         -1.124668944437     1.175791017855    -0.091981497896    12.000000000000
           H         -2.584277944437     0.529993017855    -1.577615497896     1.007825032070
           H         -3.084057944437     1.907551017855    -0.609274497896     1.007825032070
           C         -0.259540944437    -0.086104982145    -0.141696497896    12.000000000000
           H         -0.670590944437     1.948846017855    -0.704749497896     1.007825032070
           H         -1.144406944437     1.567604017855     0.923818502104     1.007825032070
           C          1.173892055563     0.154852017855     0.335822502104    12.000000000000
           H         -0.243719944437    -0.466826982145    -1.160837497896     1.007825032070
           H         -0.712592944437    -0.868298982145     0.464485502104     1.007825032070
           C          2.141744055563    -0.941875982145    -0.116283497896    12.000000000000
           H          1.509316055563     1.121667017855    -0.030908497896     1.007825032070
           H          1.185787055563     0.218456017855     1.423111502104     1.007825032070
           C          3.574007055563    -0.786691982145     0.407750502104    12.000000000000
           H          2.159986055563    -0.980003982145    -1.204358497896     1.007825032070
           H          1.755974055563    -1.904069982145     0.213984502104     1.007825032070
           C          4.318006055563     0.437372017855    -0.128675497896    12.000000000000
           H          4.135127055563    -1.679033982145     0.141633502104     1.007825032070
           H          3.557953055563    -0.752254982145     1.495168502104     1.007825032070
           H          4.335733055563     0.437930017855    -1.215392497896     1.007825032070
           H          3.859772055563     1.365841017855     0.195270502104     1.007825032070
           H          5.347017055563     0.444810017855     0.217844502104     1.007825032070

  Charge       = 0
  Multiplicity = 1
  Basis Set: 6-31G*
  Basis Set:

    Orbital Energies (a.u.)
    -----------------------

    Doubly Occupied:

       1A    -20.561983     2A    -11.326137     3A    -11.235396
       4A    -11.234575     5A    -11.223657     6A    -11.219560
       7A    -11.217998     8A    -11.217154     9A    -11.210835
      10A     -1.401969    11A     -1.104070    12A     -1.069729
      13A     -1.013397    14A     -0.942458    15A     -0.875316
      16A     -0.820885    17A     -0.788177    18A     -0.781455
      19A     -0.665248    20A     -0.659535    21A     -0.633696
      22A     -0.625557    23A     -0.603294    24A     -0.595830
      25A     -0.571912    26A     -0.553388    27A     -0.532602
      28A     -0.524665    29A     -0.510988    30A     -0.496247
      31A     -0.490679    32A     -0.478447    33A     -0.464610
      34A     -0.458576    35A     -0.440941    36A     -0.409570

  @DF-RHF Final Energy:  -387.12092971102351

   => Energetics <=

    Nuclear Repulsion Energy =            439.1921166586320737
    One-Electron Energy =               -1394.7048777302140934
    Two-Electron Energy =                 568.3918313605545336
    DFT Exchange-Correlation Energy =       0.0000000000000000
    Empirical Dispersion Energy =           0.0000000000000000
    PCM Polarization Energy =               0.0000000000000000
    EFP Energy =                            0.0000000000000000
    Total Energy =                       -387.1209297110274292

  Mulliken Charges: (a.u.)
   Center  Symbol    Alpha    Beta     Spin     Total
       1     H     0.43260  0.43260  0.00000  0.13479
       2     C     2.83092  2.83092  0.00000  0.33816
       3     C     3.20821  3.20821  0.00000 -0.41641
       4     O     4.23776  4.23776  0.00000 -0.47553
       5     C     3.16733  3.16733  0.00000 -0.33466
       6     H     0.39966  0.39966  0.00000  0.20068
       7     H     0.40672  0.40672  0.00000  0.18655
       8     C     3.15513  3.15513  0.00000 -0.31025
       9     H     0.41267  0.41267  0.00000  0.17465
      10     H     0.41953  0.41953  0.00000  0.16093
      11     C     3.15469  3.15469  0.00000 -0.30938
      12     H     0.41785  0.41785  0.00000  0.16430
      13     H     0.41741  0.41741  0.00000  0.16518
      14     C     3.15371  3.15371  0.00000 -0.30743
      15     H     0.42124  0.42124  0.00000  0.15753
      16     H     0.42233  0.42233  0.00000  0.15534
      17     C     3.15295  3.15295  0.00000 -0.30589
      18     H     0.42321  0.42321  0.00000  0.15358
      19     H     0.42035  0.42035  0.00000  0.15931
      20     C     3.24131  3.24131  0.00000 -0.48262
      21     H     0.42002  0.42002  0.00000  0.15996
      22     H     0.42307  0.42307  0.00000  0.15385
      23     H     0.42207  0.42207  0.00000  0.15586
      24     H     0.42063  0.42063  0.00000  0.15873
      25     H     0.41861  0.41861  0.00000  0.16278

   Total alpha = 36.00000, Total beta = 36.00000, Total charge = -0.00000
