                              Psi4 1.0.54 Driver

  ==> Input File <==

--------------------------------------------------------------------------
set {
	reference rhf
	basis cc-pvtz
}

set_num_threads( 4 )
memory 2 gb

molecule MOL {
0 1

H	 -2.683713	 -1.222164	 1.287648
O	 -1.858056	 -0.910199	 0.966703
C	 -2.021813	 0.336996	 0.342658
C	 -0.669613	 0.837286	 -0.127252
H	 -2.691871	 0.247059	 -0.508610
H	 -2.461899	 1.052877	 1.034195
C	 0.490865	 -0.082543	 0.241244
H	 -0.708709	 0.967192	 -1.204587
H	 -0.507562	 1.822272	 0.303070
C	 1.839800	 0.429565	 -0.255472
H	 0.305636	 -1.070211	 -0.165276
H	 0.527397	 -0.195943	 1.322876
C	 3.001144	 -0.485193	 0.119072
H	 1.804373	 0.541073	 -1.335756
H	 2.020437	 1.423114	 0.146921
H	 2.866892	 -1.477297	 -0.298806
H	 3.943543	 -0.095749	 -0.249061
H	 3.085064	 -0.590459	 1.195790

	symmetry c1
}
set optking {
	frozen_dihedral = ("
		2 3 4 8
	")
}

ee,wfn = optimize('scf', return_wfn=True)
oeprop( wfn, 'DIPOLE', 'QUADRUPOLE', 'MULLIKEN_CHARGES')
f=open( 'psi4out.xyz', 'w' )
f.write( "18  " )
f.write( str(ee) + "\n" )
f.write( MOL.save_string_xyz() )
f.close()
--------------------------------------------------------------------------

    Molecular point group: c1
  Charge       = 0
  Multiplicity = 1
  Basis Set: CC-PVTZ
  Basis Set:
  @DF-RHF Final Energy:  -271.27674677018047
    Total Energy =                       -271.2767467701803525
    Molecular point group: c1
  Basis Set: CC-PVTZ
  Basis Set:
  Basis Set: CC-PVTZ
  Basis Set:
  @DF-RHF Final Energy:  -271.27712738895934
    Total Energy =                       -271.2771273889593999
  Basis Set: CC-PVTZ
  Basis Set:
  Basis Set: CC-PVTZ
  Basis Set:
  @DF-RHF Final Energy:  -271.27814846059272
    Total Energy =                       -271.2781484605927176
  Basis Set: CC-PVTZ
  Basis Set:
  Basis Set: CC-PVTZ
  Basis Set:
  @DF-RHF Final Energy:  -271.27817687933896
    Total Energy =                       -271.2781768793390142
  Basis Set: CC-PVTZ
  Basis Set:
  Basis Set: CC-PVTZ
  Basis Set:
  @DF-RHF Final Energy:  -271.27817788343862
    Total Energy =                       -271.2781778834383886
  Basis Set: CC-PVTZ
  Basis Set:
  Charge       = 0
  Multiplicity = 1
  Basis Set: CC-PVTZ
  Basis Set:

    Orbital Energies (a.u.)
    -----------------------

    Doubly Occupied:

       1A    -20.545745     2A    -11.266835     3A    -11.211126
       4A    -11.206992     5A    -11.202015     6A    -11.200864
       7A     -1.363689     8A     -1.072571     9A     -1.005178
      10A     -0.914191    11A     -0.818094    12A     -0.782539
      13A     -0.697868    14A     -0.658198    15A     -0.617580
      16A     -0.583030    17A     -0.573287    18A     -0.552601
      19A     -0.516762    20A     -0.501023    21A     -0.495830
      22A     -0.462837    23A     -0.460751    24A     -0.444168
      25A     -0.424818

  @DF-RHF Final Energy:  -271.27817809498993

   => Energetics <=

    Nuclear Repulsion Energy =            249.9855330655384762
    One-Electron Energy =                -863.3702404395139638
    Two-Electron Energy =                 342.1065292789856471
    DFT Exchange-Correlation Energy =       0.0000000000000000
    Empirical Dispersion Energy =           0.0000000000000000
    PCM Polarization Energy =               0.0000000000000000
    EFP Energy =                            0.0000000000000000
    Total Energy =                       -271.2781780949898689
    Molecular point group: c1
  Basis Set: CC-PVTZ
  Basis Set:

  -Total Gradient:
     Atom            X                  Y                   Z
    ------   -----------------  -----------------  -----------------
       1        0.000014548214     0.000008580879    -0.000002107612
       2        0.000127454758     0.000263739580     0.000671344384
       3       -0.000204237081    -0.000239157120    -0.000850160136
       4        0.000319074516    -0.000984883960     0.000067609177
       5        0.000019109717     0.000034582027    -0.000021746645
       6        0.000023533456     0.000035383040    -0.000026926006
       7        0.000007930779    -0.000000006965     0.000045801747
       8       -0.000292770200     0.000898224910     0.000120112274
       9       -0.000017283840     0.000003099124     0.000012821745
      10        0.000006856402    -0.000007813527    -0.000001155899
      11        0.000001537066    -0.000011099230     0.000003376812
      12        0.000009830449     0.000004655180    -0.000010185244
      13       -0.000007222981    -0.000006372692    -0.000009903350
      14        0.000001210518     0.000002648007    -0.000003217016
      15       -0.000004046597    -0.000002434529     0.000007206837
      16        0.000001311578    -0.000004956909     0.000000231653
      17       -0.000005131055     0.000001249763    -0.000004384629
      18       -0.000001705701     0.000004562425     0.000001281907

  **** Optimization is complete! (in 6 steps) ****
    Final optimized geometry and variables:
    Molecular point group: c1

    Geometry (in Angstrom), charge = 0, multiplicity = 1:

    H           -2.896146334027    -1.172981330688     1.014320598490
    O           -2.039191174869    -0.903855187224     0.740236856675
    C           -2.117785599766     0.351549466316     0.113964294216
    C           -0.726619906428     0.822283790402    -0.355117275724
    H           -2.790943102485     0.297264205939    -0.736386142003
    H           -2.533314755355     1.078048586192     0.806111356278
    C            0.439243477360    -0.097458592674     0.004084444600
    H           -0.746148183745     0.961783946102    -1.431020412233
    H           -0.534478266788     1.804413332570     0.064762894963
    C            1.776037157234     0.449670593903    -0.488949657772
    H            0.272333453906    -1.081508357634    -0.418206220909
    H            0.478396420967    -0.235036877515     1.078841476102
    C            2.953092415639    -0.456157441724    -0.142402520875
    H            1.735484306928     0.588480549064    -1.566292289882
    H            1.944197967551     1.435205018122    -0.062303217172
    H            2.832249683131    -1.439827826911    -0.583742006072
    H            3.887793512405    -0.043347931047    -0.504926827232
    H            3.042935633913    -0.586626519925     0.930881383077

  Mulliken Charges: (a.u.)
   Center  Symbol    Alpha    Beta     Spin     Total
       1     H     0.40087  0.40087  0.00000  0.19825
       2     O     4.18744  4.18744  0.00000 -0.37488
       3     C     2.96577  2.96577  0.00000  0.06847
       4     C     3.10816  3.10816  0.00000 -0.21633
       5     H     0.47163  0.47163  0.00000  0.05673
       6     H     0.47224  0.47224  0.00000  0.05553
       7     C     3.07854  3.07854  0.00000 -0.15708
       8     H     0.45361  0.45361  0.00000  0.09278
       9     H     0.45407  0.45407  0.00000  0.09187
      10     C     3.08543  3.08543  0.00000 -0.17086
      11     H     0.44860  0.44860  0.00000  0.10280
      12     H     0.44974  0.44974  0.00000  0.10052
      13     C     3.14984  3.14984  0.00000 -0.29969
      14     H     0.45689  0.45689  0.00000  0.08623
      15     H     0.45698  0.45698  0.00000  0.08605
      16     H     0.45505  0.45505  0.00000  0.08990
      17     H     0.44999  0.44999  0.00000  0.10001
      18     H     0.45515  0.45515  0.00000  0.08970

   Total alpha = 25.00000, Total beta = 25.00000, Total charge =  0.00000

*** Psi4 exiting successfully. Buy a developer a beer!
