  ==> Input File <==

--------------------------------------------------------------------------
set {
	reference rhf
	basis 6-31G*
}

set_num_threads( 1 )
memory 2 gb

molecule MOL {
0 1

H	 -0.677946	 -1.400689	 -0.668964
N	 -0.626943	 -0.667432	 -0.000092
C	 -1.726641	 -0.507348	 0.923896
C	 0.469286	 0.129090	 0.000148
H	 -2.652994	 -0.310112	 0.394770
H	 -1.506660	 0.328484	 1.567885
H	 -1.855881	 -1.396216	 1.532372
C	 1.788933	 -0.616240	 -0.000037
O	 0.411098	 1.327768	 -0.000049
H	 1.872803	 -1.245775	 -0.880381
H	 2.595421	 0.101576	 0.003713
H	 1.870096	 -1.252171	 0.875943

	symmetry c1
}
set optking {
	frozen_dihedral = ("
		4 2 3 5
	")
}

ee = energy('scf')
oeprop('DIPOLE', 'QUADRUPOLE', 'MULLIKEN_CHARGES')
f=open( 'psi4out.xyz', 'w' )
f.write( "12  " )
f.write( str(ee) + "\n" )
f.write( MOL.save_string_xyz() )
f.close()
--------------------------------------------------------------------------

    Molecular point group: c1

    Geometry (in Angstrom), charge = 0, multiplicity = 1:

       Center              X                  Y                   Z               Mass
    ------------   -----------------  -----------------  -----------------  -----------------
           H         -0.730200614845    -1.328714492815    -0.859695432909     1.007825032070
           N         -0.679197614845    -0.595457492815    -0.190823432909    14.003074004780
           C         -1.778895614845    -0.435373492815     0.733164567091    12.000000000000
           C          0.417031385155     0.201064507185    -0.190583432909    12.000000000000
           H         -2.705248614845    -0.238137492815     0.204038567091     1.007825032070
           H         -1.558914614845     0.400458507185     1.377153567091     1.007825032070
           H         -1.908135614845    -1.324241492815     1.341640567091     1.007825032070
           C          1.736678385155    -0.544265492815    -0.190768432909    12.000000000000
           O          0.358843385155     1.399742507185    -0.190780432909    15.994914619560
           H          1.820548385155    -1.173800492815    -1.071112432909     1.007825032070
           H          2.543166385155     0.173550507185    -0.187018432909     1.007825032070
           H          1.817841385155    -1.180196492815     0.685211567091     1.007825032070

  Charge       = 0
  Multiplicity = 1
  Basis Set: 6-31G*
  Basis Set:

    Orbital Energies (a.u.)
    -----------------------

    Doubly Occupied:

       1A    -20.531783     2A    -15.562450     3A    -11.345330
       4A    -11.258093     5A    -11.226486     6A     -1.390623
       7A     -1.223520     8A     -1.010655     9A     -0.933535
      10A     -0.784194    11A     -0.686288    12A     -0.647029
      13A     -0.637039    14A     -0.585697    15A     -0.582704
      16A     -0.559991    17A     -0.548560    18A     -0.494409
      19A     -0.419523    20A     -0.375545

  @DF-RHF Final Energy:  -246.98198242395222

   => Energetics <=

    Nuclear Repulsion Energy =            180.9680376200624323
    One-Electron Energy =                -694.2929132647692541
    Two-Electron Energy =                 266.3428932207548883
    DFT Exchange-Correlation Energy =       0.0000000000000000
    Empirical Dispersion Energy =           0.0000000000000000
    PCM Polarization Energy =               0.0000000000000000
    EFP Energy =                            0.0000000000000000
    Total Energy =                       -246.9819824239519335

  Mulliken Charges: (a.u.)
   Center  Symbol    Alpha    Beta     Spin     Total
       1     H     0.31136  0.31136  0.00000  0.37729
       2     N     3.89589  3.89589  0.00000 -0.79178
       3     C     3.13485  3.13485  0.00000 -0.26970
       4     C     2.64930  2.64930  0.00000  0.70140
       5     H     0.41500  0.41500  0.00000  0.16999
       6     H     0.39969  0.39969  0.00000  0.20061
       7     H     0.41865  0.41865  0.00000  0.16269
       8     C     3.28325  3.28325  0.00000 -0.56650
       9     O     4.27496  4.27496  0.00000 -0.54991
      10     H     0.41304  0.41304  0.00000  0.17392
      11     H     0.39800  0.39800  0.00000  0.20401
      12     H     0.40601  0.40601  0.00000  0.18799

   Total alpha = 20.00000, Total beta = 20.00000, Total charge = -0.00000
