  ==> Input File <==

--------------------------------------------------------------------------
set {
	reference rhf
	basis 6-31G*
}

set_num_threads( 1 )
memory 2 gb

molecule MOL {
0 1

O	 0.074228	 1.262779	 -0.000085
C	 0.028650	 0.075053	 -0.000277
C	 -1.233602	 -0.752807	 0.000328
O	 1.109162	 -0.694619	 -0.000298
C	 -2.501530	 0.091881	 0.000126
H	 -1.193807	 -1.406641	 -0.865785
H	 -1.193516	 -1.405779	 0.867015
H	 -2.545121	 0.729328	 -0.874513
H	 -3.377167	 -0.548497	 0.000561
H	 -2.544818	 0.730135	 0.874258
C	 1.505736	 -1.245517	 1.242613
H	 1.730816	 -0.461361	 1.951028
H	 2.389352	 -1.829626	 1.037910
H	 0.725441	 -1.875092	 1.645413

	symmetry c1
}
set optking {
	frozen_dihedral = ("
		4 2 3 6
	")
}

ee = energy('scf')
oeprop('DIPOLE', 'QUADRUPOLE', 'MULLIKEN_CHARGES')
f=open( 'psi4out.xyz', 'w' )
f.write( "14  " )
f.write( str(ee) + "\n" )
f.write( MOL.save_string_xyz() )
f.close()
--------------------------------------------------------------------------

    Molecular point group: c1

    Geometry (in Angstrom), charge = 0, multiplicity = 1:

       Center              X                  Y                   Z               Mass
    ------------   -----------------  -----------------  -----------------  -----------------
           O          0.227961057397     1.478605196493    -0.222447029353    15.994914619560
           C          0.182383057397     0.290879196493    -0.222639029353    12.000000000000
           C         -1.079868942603    -0.536980803507    -0.222034029353    12.000000000000
           O          1.262895057397    -0.478792803507    -0.222660029353    15.994914619560
           C         -2.347796942603     0.307707196493    -0.222236029353    12.000000000000
           H         -1.040073942603    -1.190814803507    -1.088147029353     1.007825032070
           H         -1.039782942603    -1.189952803507     0.644652970647     1.007825032070
           H         -2.391387942603     0.945154196493    -1.096875029353     1.007825032070
           H         -3.223433942603    -0.332670803507    -0.221801029353     1.007825032070
           H         -2.391084942603     0.945961196493     0.651895970647     1.007825032070
           C          1.659469057397    -1.029690803507     1.020250970647    12.000000000000
           H          1.884549057397    -0.245534803507     1.728665970647     1.007825032070
           H          2.543085057397    -1.613799803507     0.815547970647     1.007825032070
           H          0.879174057397    -1.659265803507     1.423050970647     1.007825032070

  Charge       = 0
  Multiplicity = 1
  Basis Set: 6-31G*
  Basis Set:

    Orbital Energies (a.u.)
    -----------------------

    Doubly Occupied:

       1A    -20.589175     2A    -20.555939     3A    -11.374508
       4A    -11.297264     5A    -11.240787     6A    -11.218000
       7A     -1.465078     8A     -1.369152     9A     -1.061894
      10A     -0.984532    11A     -0.893844    12A     -0.769974
      13A     -0.699876    14A     -0.681900    15A     -0.676568
      16A     -0.627163    17A     -0.612922    18A     -0.561228
      19A     -0.545772    20A     -0.524098    21A     -0.510464
      22A     -0.486766    23A     -0.459146    24A     -0.436199

  @DF-RHF Final Energy:  -305.84907977999046

   => Energetics <=

    Nuclear Repulsion Energy =            248.0220161712763627
    One-Electron Energy =                -908.4577508663985554
    Two-Electron Energy =                 354.5866549151320442
    DFT Exchange-Correlation Energy =       0.0000000000000000
    Empirical Dispersion Energy =           0.0000000000000000
    PCM Polarization Energy =               0.0000000000000000
    EFP Energy =                            0.0000000000000000
    Total Energy =                       -305.8490797799901202

  Mulliken Charges: (a.u.)
   Center  Symbol    Alpha    Beta     Spin     Total
       1     O     4.25689  4.25689  0.00000 -0.51378
       2     C     2.61764  2.61764  0.00000  0.76472
       3     C     3.21190  3.21190  0.00000 -0.42380
       4     O     4.30760  4.30760  0.00000 -0.61521
       5     C     3.23897  3.23897  0.00000 -0.47794
       6     H     0.39813  0.39813  0.00000  0.20374
       7     H     0.40801  0.40801  0.00000  0.18398
       8     H     0.40818  0.40818  0.00000  0.18363
       9     H     0.41881  0.41881  0.00000  0.16239
      10     H     0.41101  0.41101  0.00000  0.17797
      11     C     3.09410  3.09410  0.00000 -0.18820
      12     H     0.40843  0.40843  0.00000  0.18315
      13     H     0.39978  0.39978  0.00000  0.20044
      14     H     0.42055  0.42055  0.00000  0.15891

   Total alpha = 24.00000, Total beta = 24.00000, Total charge =  0.00000
