  ==> Input File <==

--------------------------------------------------------------------------
set {
	reference rhf
	basis 6-31G*
}

set_num_threads( 4 )
memory 2 gb

molecule MOL {
0 1

O	 0.567091	 -0.227663	 0.003382
C	 1.705091	 0.115954	 0.001797
C	 2.191205	 1.544778	 0.006498
O	 2.721346	 -0.737485	 -0.000216
C	 1.061040	 2.569644	 0.011103
H	 2.835811	 1.665554	 0.872876
H	 2.834358	 1.671748	 -0.860077
C	 1.581623	 4.007706	 0.016734
H	 0.430079	 2.402248	 0.878315
H	 0.429276	 2.409251	 -0.856916
C	 0.461132	 5.049017	 0.022291
H	 2.217297	 4.161168	 0.887576
H	 2.215518	 4.168576	 -0.854001
C	 0.981896	 6.485692	 0.026684
H	 -0.171534	 4.891285	 0.892920
H	 -0.174222	 4.897575	 -0.847495
H	 1.593427	 6.678713	 0.903603
H	 0.164429	 7.199965	 0.030306
H	 1.591144	 6.684915	 -0.850492
C	 4.024888	 -0.184556	 -0.001949
H	 4.179030	 0.422472	 -0.882452
H	 4.701782	 -1.024608	 -0.003642
H	 4.181981	 0.421185	 0.878906

	symmetry c1
}
set optking {
	frozen_dihedral = ("
		1 2 4 20
	")
}

ee = optimize('scf')
oeprop('DIPOLE', 'QUADRUPOLE', 'MULLIKEN_CHARGES')
f=open( 'psi4out.xyz', 'w' )
f.write( "23  " )
f.write( str(ee) + "\n" )
f.write( MOL.save_string_xyz() )
f.close()
--------------------------------------------------------------------------

    Molecular point group: c1
  Charge       = 0
  Multiplicity = 1
  Basis Set: 6-31G*
  Basis Set:
  @DF-RHF Final Energy:  -422.94815901011697
    Total Energy =                       -422.9481590101171378
    Molecular point group: c1
  Basis Set: 6-31G*
  Basis Set:
  Basis Set: 6-31G*
  Basis Set:
  @DF-RHF Final Energy:  -422.94558836612561
    Total Energy =                       -422.9455883661257758
  Basis Set: 6-31G*
  Basis Set:
  Basis Set: 6-31G*
  Basis Set:
  @DF-RHF Final Energy:  -422.95680969451013
    Total Energy =                       -422.9568096945101843
  Basis Set: 6-31G*
  Basis Set:
  Basis Set: 6-31G*
  Basis Set:
  @DF-RHF Final Energy:  -422.95995050503825
    Total Energy =                       -422.9599505050387052
  Basis Set: 6-31G*
  Basis Set:
  @DF-RHF Final Energy:  -422.96017313035202
    Total Energy =                       -422.9601731303525867
  @DF-RHF Final Energy:  -422.96099172637622
    Total Energy =                       -422.9609917263760508
  Basis Set: 6-31G*
  Basis Set:
  @DF-RHF Final Energy:  -422.96067047280877
    Total Energy =                       -422.9606704728089426
  Basis Set: 6-31G*
  Basis Set:
  Basis Set: 6-31G*
  Basis Set:
  @DF-RHF Final Energy:  -422.96115723139428
    Total Energy =                       -422.9611572313935994
  Basis Set: 6-31G*
  Basis Set:
  Basis Set: 6-31G*
  Basis Set:
  @DF-RHF Final Energy:  -422.96115906764521
    Total Energy =                       -422.9611590676455535
  Basis Set: 6-31G*
  Basis Set:
  Charge       = 0
  Multiplicity = 1
  Basis Set: 6-31G*
  Basis Set:

    Orbital Energies (a.u.)
    -----------------------

    Doubly Occupied:

       1A    -20.602353     2A    -20.538444     3A    -11.373699
       4A    -11.296548     5A    -11.245919     6A    -11.223472
       7A    -11.221914     8A    -11.219300     9A    -11.212195
      10A     -1.463020    11A     -1.364317    12A     -1.096587
      13A     -1.041930    14A     -0.987747    15A     -0.952806
      16A     -0.854471    17A     -0.799405    18A     -0.766887
      19A     -0.700826    20A     -0.690225    21A     -0.672000
      22A     -0.655361    23A     -0.612887    24A     -0.602038
      25A     -0.579628    26A     -0.566720    27A     -0.563237
      28A     -0.536552    29A     -0.522045    30A     -0.510704
      31A     -0.490457    32A     -0.472693    33A     -0.469231
      34A     -0.463340    35A     -0.445845    36A     -0.429246

  @DF-RHF Final Energy:  -422.96115909118777

   => Energetics <=

    Nuclear Repulsion Energy =            454.8358414384353523
    One-Electron Energy =               -1477.1059012945729592
    Two-Electron Energy =                 599.3089007649499536
    DFT Exchange-Correlation Energy =       0.0000000000000000
    Empirical Dispersion Energy =           0.0000000000000000
    PCM Polarization Energy =               0.0000000000000000
    EFP Energy =                            0.0000000000000000
    Total Energy =                       -422.9611590911875965
    Molecular point group: c1
  Basis Set: 6-31G*
  Basis Set:

  -Total Gradient:
     Atom            X                  Y                   Z
    ------   -----------------  -----------------  -----------------
       1       -0.000018993319    -0.000000941482    -0.000012743961
       2        0.000052956635    -0.000027503571     0.000045287265
       3       -0.000012420658     0.000019316366    -0.000023505595
       4       -0.000022658020     0.000007006428     0.000007149011
       5        0.000002114654    -0.000004227004     0.000009564468
       6        0.000010349381    -0.000014650397     0.000005744391
       7       -0.000004698204     0.000013250465     0.000003953566
       8        0.000000477071    -0.000002634554    -0.000008999373
       9       -0.000001994965    -0.000000830112    -0.000003193433
      10       -0.000000428446     0.000001853460    -0.000002436932
      11       -0.000000434978     0.000000192921     0.000001456999
      12        0.000001587327    -0.000001629317    -0.000002881095
      13       -0.000000973359     0.000002015050    -0.000002928109
      14       -0.000000111299    -0.000000233567     0.000004887986
      15       -0.000002294765    -0.000000969621    -0.000000949324
      16        0.000002046362     0.000001098530    -0.000000865004
      17        0.000000974841     0.000001039779     0.000000179686
      18        0.000000091942    -0.000000110699     0.000000646235
      19       -0.000000847563    -0.000000876611    -0.000000170129
      20        0.000000703865     0.000010975757    -0.000042182217
      21        0.000021683662    -0.000009004261     0.000007606360
      22       -0.000010439243    -0.000003229057     0.000002592876
      23       -0.000016690918     0.000010091500     0.000011786329

  **** Optimization is complete! (in 10 steps) ****
    Final optimized geometry and variables:
    Molecular point group: c1

    Geometry (in Angstrom), charge = 0, multiplicity = 1:

    O           -1.083205940290    -2.189856284808    -0.006280094275
    C            0.056754384356    -1.869461952032    -0.006752902114
    C            0.513041125886    -0.423164661518    -0.002834781583
    O            0.993467227062    -2.821566009382    -0.011149984601
    C           -0.654009916835     0.561155546294     0.002616078852
    H            1.147679273880    -0.260860312151     0.864633797039
    H            1.144442821627    -0.255025197413    -0.871547752732
    C           -0.183018782943     2.016167891333     0.006507283928
    H           -1.276214358736     0.369831113959     0.870301333027
    H           -1.279518941163     0.375551340746    -0.863937130415
    C           -1.339903473793     3.016983585866     0.013045813078
    H            0.447764629325     2.193566463688     0.876567047080
    H            0.443282026640     2.199728252873    -0.865513153844
    C           -0.870393515275     4.471187249316     0.017851686741
    H           -1.965908539034     2.836239758539     0.883836146985
    H           -1.969714691106     2.843209018500    -0.856416667446
    H           -0.265543804806     4.685574707186     0.894508487308
    H           -1.712779654996     5.155703282496     0.022488547297
    H           -0.269469919453     4.692630268786    -0.859749934878
    C            2.374097806567    -2.548026180297    -0.012084744425
    H            2.674018807817    -1.999452568730    -0.896033457601
    H            2.862068775784    -3.510216458739    -0.014402561164
    H            2.675663609103    -2.002863550850     0.873421633877

  Mulliken Charges: (a.u.)
   Center  Symbol    Alpha    Beta     Spin     Total
       1     O     4.26803  4.26803  0.00000 -0.53607
       2     C     2.59652  2.59652  0.00000  0.80696
       3     C     3.23530  3.23530  0.00000 -0.47060
       4     O     4.30355  4.30355  0.00000 -0.60711
       5     C     3.14848  3.14848  0.00000 -0.29695
       6     H     0.40429  0.40429  0.00000  0.19143
       7     H     0.40426  0.40426  0.00000  0.19147
       8     C     3.15391  3.15391  0.00000 -0.30782
       9     H     0.40867  0.40867  0.00000  0.18265
      10     H     0.40865  0.40865  0.00000  0.18269
      11     C     3.15189  3.15189  0.00000 -0.30378
      12     H     0.42491  0.42491  0.00000  0.15018
      13     H     0.42489  0.42489  0.00000  0.15022
      14     C     3.23970  3.23970  0.00000 -0.47940
      15     H     0.42045  0.42045  0.00000  0.15911
      16     H     0.42044  0.42044  0.00000  0.15911
      17     H     0.42195  0.42195  0.00000  0.15611
      18     H     0.41772  0.41772  0.00000  0.16456
      19     H     0.42194  0.42194  0.00000  0.15611
      20     C     3.09324  3.09324  0.00000 -0.18649
      21     H     0.41676  0.41676  0.00000  0.16648
      22     H     0.39765  0.39765  0.00000  0.20470
      23     H     0.41679  0.41679  0.00000  0.16643

   Total alpha = 36.00000, Total beta = 36.00000, Total charge =  0.00000
