  ==> Input File <==

--------------------------------------------------------------------------
set {
	reference rhf
	basis 6-31G*
}

set_num_threads( 4 )
memory 2 gb

molecule MOL {
0 1

O	 0.625848	 1.349995	 -0.000749
C	 0.486307	 0.169203	 0.000779
C	 1.608116	 -0.841643	 0.000302
O	 -0.698257	 -0.426125	 0.001050
C	 2.990107	 -0.200498	 -0.000684
H	 1.468623	 -1.481519	 -0.865924
H	 1.469683	 -1.481289	 0.866878
H	 3.129736	 0.423364	 -0.875135
H	 3.757882	 -0.966877	 -0.001197
H	 3.130964	 0.423383	 0.873533
C	 -0.727539	 -1.832731	 0.220143
C	 -2.176773	 -2.268757	 0.176410
H	 -0.273488	 -2.049923	 1.177353
H	 -0.139787	 -2.321108	 -0.545119
H	 -2.752964	 -1.766722	 0.945254
H	 -2.245523	 -3.339394	 0.339689
H	 -2.618618	 -2.039489	 -0.786640

	symmetry c1
}
set optking {
	frozen_dihedral = ("
		11 4 2 3
	")
}

ee = optimize('scf')
oeprop('DIPOLE', 'QUADRUPOLE', 'MULLIKEN_CHARGES')
f=open( 'psi4out.xyz', 'w' )
f.write( "17  " )
f.write( str(ee) + "\n" )
f.write( MOL.save_string_xyz() )
f.close()
--------------------------------------------------------------------------

    Molecular point group: c1
  Charge       = 0
  Multiplicity = 1
  Basis Set: 6-31G*
  Basis Set:
  @DF-RHF Final Energy:  -344.88474124353138
    Total Energy =                       -344.8847412435311526
    Molecular point group: c1
  Basis Set: 6-31G*
  Basis Set:
  Basis Set: 6-31G*
  Basis Set:
  @DF-RHF Final Energy:  -344.88270844530763
    Total Energy =                       -344.8827084453077987
  Basis Set: 6-31G*
  Basis Set:
  Basis Set: 6-31G*
  Basis Set:
  @DF-RHF Final Energy:  -344.89325399181871
    Total Energy =                       -344.8932539918183693
  Basis Set: 6-31G*
  Basis Set:
  Basis Set: 6-31G*
  Basis Set:
  @DF-RHF Final Energy:  -344.89599116909829
    Total Energy =                       -344.8959911690981244
  Basis Set: 6-31G*
  Basis Set:
  @DF-RHF Final Energy:  -344.89447732122511
    Total Energy =                       -344.8944773212247696
  @DF-RHF Final Energy:  -344.89668873981395
    Total Energy =                       -344.8966887398142944
  Basis Set: 6-31G*
  Basis Set:
  @DF-RHF Final Energy:  -344.89708105138840
    Total Energy =                       -344.8970810513883976
  Basis Set: 6-31G*
  Basis Set:
  Basis Set: 6-31G*
  Basis Set:
  @DF-RHF Final Energy:  -344.89707883383056
    Total Energy =                       -344.8970788338306193
  Basis Set: 6-31G*
  Basis Set:
  Basis Set: 6-31G*
  Basis Set:
  @DF-RHF Final Energy:  -344.89708689643703
    Total Energy =                       -344.8970868964369743
  Basis Set: 6-31G*
  Basis Set:
  Charge       = 0
  Multiplicity = 1
  Basis Set: 6-31G*
  Basis Set:

    Orbital Energies (a.u.)
    -----------------------

    Doubly Occupied:

       1A    -20.599173     2A    -20.538062     3A    -11.372718
       4A    -11.300231     5A    -11.247409     6A    -11.227751
       7A    -11.219760     8A     -1.461415     9A     -1.363561
      10A     -1.063700    11A     -1.047512    12A     -0.901179
      13A     -0.881847    14A     -0.771212    15A     -0.705414
      16A     -0.696461    17A     -0.654045    18A     -0.634552
      19A     -0.588500    20A     -0.575675    21A     -0.560831
      22A     -0.538450    23A     -0.524354    24A     -0.521718
      25A     -0.507446    26A     -0.498257    27A     -0.443160
      28A     -0.430036

  @DF-RHF Final Energy:  -344.89708793433937

   => Energetics <=

    Nuclear Repulsion Energy =            315.2892165399114788
    One-Electron Energy =               -1094.6237461484920459
    Two-Electron Energy =                 434.4374416742410290
    DFT Exchange-Correlation Energy =       0.0000000000000000
    Empirical Dispersion Energy =           0.0000000000000000
    PCM Polarization Energy =               0.0000000000000000
    EFP Energy =                            0.0000000000000000
    Total Energy =                       -344.8970879343395950
    Molecular point group: c1
  Basis Set: 6-31G*
  Basis Set:

  -Total Gradient:
     Atom            X                  Y                   Z
    ------   -----------------  -----------------  -----------------
       1        0.000040075554    -0.000015824051     0.000010907727
       2       -0.000035399800     0.000081884104     0.001212134644
       3       -0.000008185249     0.000012778858    -0.000554539549
       4        0.000092866534    -0.000203392192    -0.001311731204
       5       -0.000004380724    -0.000001152038     0.000004133933
       6       -0.000003821819     0.000004294474    -0.000004982528
       7       -0.000002866131     0.000015234765    -0.000005139553
       8       -0.000000889505     0.000000532431    -0.000003627480
       9        0.000000005217     0.000002827653     0.000000469036
      10        0.000000374100     0.000000806865     0.000002578874
      11       -0.000059491668     0.000141165914     0.000657660364
      12       -0.000004335780    -0.000022961159    -0.000008424286
      13        0.000002598458    -0.000018372016     0.000001288721
      14       -0.000010776444     0.000004316580     0.000003282149
      15        0.000007612216    -0.000000804024    -0.000001607724
      16       -0.000008226983    -0.000001007981    -0.000001448343
      17       -0.000005157975    -0.000000328185    -0.000000954780

  **** Optimization is complete! (in 10 steps) ****
    Final optimized geometry and variables:
    Molecular point group: c1

    Geometry (in Angstrom), charge = 0, multiplicity = 1:

    O            0.300181570265     1.841955187134    -0.074738369573
    C            0.244552980600     0.659206410098    -0.046099955856
    C            1.476661530305    -0.225559081244    -0.057422646108
    O           -0.951576645849     0.066972264221    -0.035356626230
    C            2.769072465049     0.582567144032    -0.075763781619
    H            1.420804499464    -0.874100265744    -0.927498668517
    H            1.451697172017    -0.880845661516     0.808234560223
    H            2.816214824455     1.218864545661    -0.950078393840
    H            3.623958519982    -0.085202063342    -0.087797513562
    H            2.841376215596     1.218374343164     0.797513178387
    C           -1.140177531279    -1.320692856011     0.170495977379
    C           -2.631541636337    -1.581288517149     0.114945526708
    H           -0.739447969899    -1.609600897324     1.135386871162
    H           -0.626623948450    -1.889100132969    -0.595758083682
    H           -3.143823547750    -1.012955138185     0.881793990690
    H           -2.831245213845    -2.636492881539     0.271243724067
    H           -3.030661787801    -1.291502356776    -0.849723021288

  Mulliken Charges: (a.u.)
   Center  Symbol    Alpha    Beta     Spin     Total
       1     O     4.26842  4.26842  0.00000 -0.53683
       2     C     2.59974  2.59974  0.00000  0.80052
       3     C     3.23080  3.23080  0.00000 -0.46160
       4     O     4.30799  4.30799  0.00000 -0.61597
       5     C     3.23420  3.23420  0.00000 -0.46840
       6     H     0.40275  0.40275  0.00000  0.19450
       7     H     0.40482  0.40482  0.00000  0.19036
       8     H     0.40664  0.40664  0.00000  0.18673
       9     H     0.41941  0.41941  0.00000  0.16118
      10     H     0.40778  0.40778  0.00000  0.18443
      11     C     3.00366  3.00366  0.00000 -0.00732
      12     C     3.24471  3.24471  0.00000 -0.48941
      13     H     0.41810  0.41810  0.00000  0.16379
      14     H     0.41901  0.41901  0.00000  0.16198
      15     H     0.40654  0.40654  0.00000  0.18692
      16     H     0.41789  0.41789  0.00000  0.16421
      17     H     0.40754  0.40754  0.00000  0.18491

   Total alpha = 28.00000, Total beta = 28.00000, Total charge = -0.00000
