                              Psi4 1.0.54 Driver

  ==> Input File <==

--------------------------------------------------------------------------
set {
	reference rhf
	basis cc-pvtz
}

set_num_threads( 4 )
memory 2 gb

molecule MOL {
0 1

O	 -0.850968	 -0.721466	 -2.180959
C	 -0.296054	 -0.924218	 -1.154893
C	 0.939117	 -1.772906	 -0.987742
O	 -0.695554	 -0.422406	 0.000602
C	 1.440369	 -2.374296	 -2.290834
H	 0.703215	 -2.543500	 -0.262148
H	 1.695842	 -1.150355	 -0.523269
H	 0.688404	 -3.007564	 -2.742206
H	 2.325833	 -2.971039	 -2.108623
H	 1.690054	 -1.601758	 -3.005724
C	 -1.852370	 0.402254	 0.000718
C	 -3.063338	 -0.501097	 -0.000437
H	 -1.831732	 1.039442	 -0.872158
H	 -1.832493	 1.038301	 0.874430
H	 -3.071944	 -1.133732	 -0.879113
H	 -3.966302	 0.097976	 -0.000483
H	 -3.072764	 -1.134834	 0.877435

	symmetry c1
}
set optking {
	frozen_dihedral = ("
		2 4 11 13
	")
}

ee,wfn = optimize('scf', return_wfn=True)
oeprop( wfn, 'DIPOLE', 'QUADRUPOLE', 'MULLIKEN_CHARGES')
f=open( 'psi4out.xyz', 'w' )
f.write( "17  " )
f.write( str(ee) + "\n" )
f.write( MOL.save_string_xyz() )
f.close()
--------------------------------------------------------------------------

    Molecular point group: c1
  Charge       = 0
  Multiplicity = 1
  Basis Set: CC-PVTZ
  Basis Set:
  @DF-RHF Final Energy:  -345.03777073994740
    Total Energy =                       -345.0377707399476321
    Molecular point group: c1
  Basis Set: CC-PVTZ
  Basis Set:
  Basis Set: CC-PVTZ
  Basis Set:
  @DF-RHF Final Energy:  -345.03928482464784
    Total Energy =                       -345.0392848246478934
  Basis Set: CC-PVTZ
  Basis Set:
  Basis Set: CC-PVTZ
  Basis Set:
  @DF-RHF Final Energy:  -345.03743538905360
    Total Energy =                       -345.0374353890534280
  Basis Set: CC-PVTZ
  Basis Set:
  Basis Set: CC-PVTZ
  Basis Set:
  @DF-RHF Final Energy:  -345.03958412347947
    Total Energy =                       -345.0395841234791305
  Basis Set: CC-PVTZ
  Basis Set:
  Basis Set: CC-PVTZ
  Basis Set:
  @DF-RHF Final Energy:  -345.03960110656141
    Total Energy =                       -345.0396011065614061
  Basis Set: CC-PVTZ
  Basis Set:
  Charge       = 0
  Multiplicity = 1
  Basis Set: CC-PVTZ
  Basis Set:

    Orbital Energies (a.u.)
    -----------------------

    Doubly Occupied:

       1A    -20.592837     2A    -20.532850     3A    -11.364439
       4A    -11.282542     5A    -11.235672     6A    -11.216265
       7A    -11.213782     8A     -1.469409     9A     -1.364918
      10A     -1.069732    11A     -1.029006    12A     -0.916636
      13A     -0.854236    14A     -0.761104    15A     -0.704613
      16A     -0.683215    17A     -0.662812    18A     -0.621563
      19A     -0.611035    20A     -0.570170    21A     -0.548673
      22A     -0.533807    23A     -0.521652    24A     -0.516350
      25A     -0.497589    26A     -0.491663    27A     -0.453427
      28A     -0.439037

  @DF-RHF Final Energy:  -345.03960175639651

   => Energetics <=

    Nuclear Repulsion Energy =            318.9362642869669457
    One-Electron Energy =               -1102.4336666423575934
    Two-Electron Energy =                 438.4578005989941403
    DFT Exchange-Correlation Energy =       0.0000000000000000
    Empirical Dispersion Energy =           0.0000000000000000
    PCM Polarization Energy =               0.0000000000000000
    EFP Energy =                            0.0000000000000000
    Total Energy =                       -345.0396017563965643
    Molecular point group: c1
  Basis Set: CC-PVTZ
  Basis Set:

  -Total Gradient:
     Atom            X                  Y                   Z
    ------   -----------------  -----------------  -----------------
       1       -0.000010396052    -0.000002619241    -0.000022413121
       2       -0.000130255426    -0.000204879788     0.000055777271
       3       -0.000040765181    -0.000017919950     0.000000698482
       4        0.000301551692     0.000260044358     0.000029490979
       5        0.000017825001     0.000009361794    -0.000014458286
       6        0.000008425870     0.000013549383     0.000003213359
       7        0.000005406947     0.000007668286    -0.000005804607
       8       -0.000000523079     0.000001795849     0.000003264597
       9        0.000005576791    -0.000005783916    -0.000003118723
      10       -0.000002958802    -0.000008661128     0.000002078719
      11       -0.000310581573    -0.000205320226    -0.000195704389
      12        0.000068580201    -0.000022335498    -0.000026179446
      13        0.000104276241     0.000181383069     0.000161489315
      14       -0.000010530734    -0.000027284158    -0.000002616874
      15        0.000002690169     0.000003732728     0.000003350687
      16        0.000005771100     0.000018316206     0.000011059192
      17       -0.000014093163    -0.000001047769    -0.000000127156

  **** Optimization is complete! (in 6 steps) ****
    Final optimized geometry and variables:
    Molecular point group: c1

    Geometry (in Angstrom), charge = 0, multiplicity = 1:

    O           -0.149097903195     0.210808699646    -1.255355739310
    C            0.361267559358    -0.025852947224    -0.213218945541
    C            1.599448160181    -0.866334116734    -0.026499311961
    O           -0.089161001297     0.424829238735     0.944955114235
    C            2.165193695016    -1.408788825662    -1.329082240344
    H            1.342291453166    -1.668185913621     0.656731578782
    H            2.326629423537    -0.254381254530     0.495546301299
    H            1.442569422210    -2.032595738396    -1.837935611945
    H            3.050065697296    -2.001594278777    -1.131708758276
    H            2.435131122947    -0.605260574536    -2.001120903729
    C           -1.257222711930     1.236688475918     0.957235852925
    C           -2.522395360057     0.404151725137     0.941707363841
    H           -1.227003173444     1.916516320316     0.119913205375
    H           -1.183913219913     1.805226644338     1.872210882926
    H           -2.605138725061    -0.157889411136     0.021784754352
    H           -3.385727341080     1.055048860546     1.022249234179
    H           -2.536794635766    -0.284797455661     1.777659693828

  Mulliken Charges: (a.u.)
   Center  Symbol    Alpha    Beta     Spin     Total
       1     O     4.19925  4.19925  0.00000 -0.39849
       2     C     2.80201  2.80201  0.00000  0.39599
       3     C     3.09399  3.09399  0.00000 -0.18798
       4     O     4.15676  4.15676  0.00000 -0.31353
       5     C     3.13984  3.13984  0.00000 -0.27969
       6     H     0.44209  0.44209  0.00000  0.11583
       7     H     0.44150  0.44150  0.00000  0.11699
       8     H     0.44870  0.44870  0.00000  0.10260
       9     H     0.45055  0.45055  0.00000  0.09891
      10     H     0.44846  0.44846  0.00000  0.10308
      11     C     2.98775  2.98775  0.00000  0.02449
      12     C     3.14937  3.14937  0.00000 -0.29874
      13     H     0.44952  0.44952  0.00000  0.10097
      14     H     0.44471  0.44471  0.00000  0.11057
      15     H     0.44198  0.44198  0.00000  0.11605
      16     H     0.45122  0.45122  0.00000  0.09756
      17     H     0.45230  0.45230  0.00000  0.09539

   Total alpha = 28.00000, Total beta = 28.00000, Total charge = -0.00000

*** Psi4 exiting successfully. Buy a developer a beer!
