  ==> Input File <==

--------------------------------------------------------------------------
set {
	reference rhf
	basis 6-31G*
}

set_num_threads( 1 )
memory 2 gb

molecule MOL {
0 1

O	 2.114881	 -0.184456	 -0.577727
C	 1.122059	 0.121804	 -0.000188
C	 -0.170150	 -0.657997	 -0.000612
O	 1.020850	 1.219276	 0.738924
C	 -1.412532	 0.227344	 -0.000452
H	 -0.153702	 -1.313099	 -0.867402
H	 -0.153924	 -1.313811	 0.865644
C	 -2.706999	 -0.587347	 -0.000541
H	 -1.388000	 0.879466	 -0.868000
H	 -1.387972	 0.879138	 0.867341
C	 -3.956778	 0.291888	 0.000910
H	 -2.726114	 -1.239230	 -0.871609
H	 -2.725217	 -1.240844	 0.869333
H	 -3.985213	 0.933254	 -0.875158
H	 -4.860123	 -0.309979	 0.000519
H	 -3.984618	 0.931166	 0.878514
C	 2.168273	 2.044671	 0.824269
H	 2.995597	 1.501660	 1.258045
H	 1.890236	 2.871876	 1.458600
H	 2.452624	 2.402565	 -0.154794

	symmetry c1
}
set optking {
	frozen_dihedral = ("
		9 5 8 12,
		9 5 3 6,
		1 2 4 17
	")
}

ee = energy('scf')
oeprop('DIPOLE', 'QUADRUPOLE', 'MULLIKEN_CHARGES')
f=open( 'psi4out.xyz', 'w' )
f.write( "20  " )
f.write( str(ee) + "\n" )
f.write( MOL.save_string_xyz() )
f.close()
--------------------------------------------------------------------------

    Molecular point group: c1

    Geometry (in Angstrom), charge = 0, multiplicity = 1:

       Center              X                  Y                   Z               Mass
    ------------   -----------------  -----------------  -----------------  -----------------
           O          2.316924453414    -0.519191636509    -0.707288976222    15.994914619560
           C          1.324102453414    -0.212931636509    -0.129749976222    12.000000000000
           C          0.031893453414    -0.992732636509    -0.130173976222    12.000000000000
           O          1.222893453414     0.884540363491     0.609362023778    15.994914619560
           C         -1.210488546586    -0.107391636509    -0.130013976222    12.000000000000
           H          0.048341453414    -1.647834636509    -0.996963976222     1.007825032070
           H          0.048119453414    -1.648546636509     0.736082023778     1.007825032070
           C         -2.504955546586    -0.922082636509    -0.130102976222    12.000000000000
           H         -1.185956546586     0.544730363491    -0.997561976222     1.007825032070
           H         -1.185928546586     0.544402363491     0.737779023778     1.007825032070
           C         -3.754734546586    -0.042847636509    -0.128651976222    12.000000000000
           H         -2.524070546586    -1.573965636509    -1.001170976222     1.007825032070
           H         -2.523173546586    -1.575579636509     0.739771023778     1.007825032070
           H         -3.783169546586     0.598518363491    -1.004719976222     1.007825032070
           H         -4.658079546586    -0.644714636509    -0.129042976222     1.007825032070
           H         -3.782574546586     0.596430363491     0.748952023778     1.007825032070
           C          2.370316453414     1.709935363491     0.694707023778    12.000000000000
           H          3.197640453414     1.166924363491     1.128483023778     1.007825032070
           H          2.092279453414     2.537140363491     1.329038023778     1.007825032070
           H          2.654667453414     2.067829363491    -0.284355976222     1.007825032070

  Charge       = 0
  Multiplicity = 1
  Basis Set: 6-31G*
  Basis Set:

    Orbital Energies (a.u.)
    -----------------------

    Doubly Occupied:

       1A    -20.604977     2A    -20.543846     3A    -11.372148
       4A    -11.281371     5A    -11.235007     6A    -11.223955
       7A    -11.222420     8A    -11.213285     9A     -1.469873
      10A     -1.362158    11A     -1.092810    12A     -1.025144
      13A     -0.965708    14A     -0.891323    15A     -0.806488
      16A     -0.774727    17A     -0.694328    18A     -0.682689
      19A     -0.672533    20A     -0.646462    21A     -0.595422
      22A     -0.591417    23A     -0.578309    24A     -0.546187
      25A     -0.531888    26A     -0.525037    27A     -0.504121
      28A     -0.490315    29A     -0.481234    30A     -0.471101
      31A     -0.455069    32A     -0.428258

  @DF-RHF Final Energy:  -383.93905913430075

   => Energetics <=

    Nuclear Repulsion Energy =            385.0468708185081255
    One-Electron Energy =               -1286.0126736450279168
    Two-Electron Energy =                 517.0267436922184743
    DFT Exchange-Correlation Energy =       0.0000000000000000
    Empirical Dispersion Energy =           0.0000000000000000
    PCM Polarization Energy =               0.0000000000000000
    EFP Energy =                            0.0000000000000000
    Total Energy =                       -383.9390591343013739

  Mulliken Charges: (a.u.)
   Center  Symbol    Alpha    Beta     Spin     Total
       1     O     4.28749  4.28749  0.00000 -0.57498
       2     C     2.60718  2.60718  0.00000  0.78565
       3     C     3.20695  3.20695  0.00000 -0.41390
       4     O     4.30288  4.30288  0.00000 -0.60576
       5     C     3.15709  3.15709  0.00000 -0.31417
       6     H     0.39862  0.39862  0.00000  0.20276
       7     H     0.40128  0.40128  0.00000  0.19743
       8     C     3.15399  3.15399  0.00000 -0.30798
       9     H     0.41771  0.41771  0.00000  0.16458
      10     H     0.40658  0.40658  0.00000  0.18684
      11     C     3.23963  3.23963  0.00000 -0.47926
      12     H     0.42131  0.42131  0.00000  0.15738
      13     H     0.42179  0.42179  0.00000  0.15642
      14     H     0.42054  0.42054  0.00000  0.15893
      15     H     0.41788  0.41788  0.00000  0.16423
      16     H     0.42050  0.42050  0.00000  0.15901
      17     C     3.09235  3.09235  0.00000 -0.18470
      18     H     0.40878  0.40878  0.00000  0.18244
      19     H     0.40885  0.40885  0.00000  0.18229
      20     H     0.40861  0.40861  0.00000  0.18278

   Total alpha = 32.00000, Total beta = 32.00000, Total charge = -0.00000
