  ==> Input File <==

--------------------------------------------------------------------------
set {
	reference rhf
	basis 6-31G*
}

set_num_threads( 1 )
memory 2 gb

molecule MOL {
0 1

H	 -2.344435	 1.232776	 -1.523953
N	 -1.356901	 1.187448	 -1.363650
C	 -0.784922	 0.015460	 -2.002704
H	 -1.217413	 1.129723	 -0.373539
C	 0.700512	 -0.055929	 -1.717176
H	 -1.241315	 -0.923571	 -1.686590
H	 -0.926650	 0.101443	 -3.075691
O	 0.874168	 -0.245412	 -0.342030
H	 1.150765	 -0.881086	 -2.268561
H	 1.178646	 0.868314	 -2.034031
C	 2.202317	 -0.244239	 0.074611
H	 2.711377	 -1.041390	 -0.449894
H	 2.692099	 0.699270	 -0.159667
H	 2.283185	 -0.418429	 1.145558

	symmetry c1
}
set optking {
	frozen_dihedral = ("
		8 5 3 6,
		6 3 2 4,
		11 8 5 3
	")
}

ee = energy('scf')
oeprop('DIPOLE', 'QUADRUPOLE', 'MULLIKEN_CHARGES')
f=open( 'psi4out.xyz', 'w' )
f.write( "14  " )
f.write( str(ee) + "\n" )
f.write( MOL.save_string_xyz() )
f.close()
--------------------------------------------------------------------------

    Molecular point group: c1

    Geometry (in Angstrom), charge = 0, multiplicity = 1:

       Center              X                  Y                   Z               Mass
    ------------   -----------------  -----------------  -----------------  -----------------
           H         -2.673683204788     1.098776440122    -0.474014536277     1.007825032070
           N         -1.686149204788     1.053448440122    -0.313711536277    14.003074004780
           C         -1.114170204788    -0.118539559878    -0.952765536277    12.000000000000
           H         -1.546661204788     0.995723440122     0.676399463723     1.007825032070
           C          0.371263795212    -0.189928559878    -0.667237536277    12.000000000000
           H         -1.570563204788    -1.057570559878    -0.636651536277     1.007825032070
           H         -1.255898204788    -0.032556559878    -2.025752536277     1.007825032070
           O          0.544919795212    -0.379411559878     0.707908463723    15.994914619560
           H          0.821516795212    -1.015085559878    -1.218622536277     1.007825032070
           H          0.849397795212     0.734314440122    -0.984092536277     1.007825032070
           C          1.873068795212    -0.378238559878     1.124549463723    12.000000000000
           H          2.382128795212    -1.175389559878     0.600044463723     1.007825032070
           H          2.362850795212     0.565270440122     0.890271463723     1.007825032070
           H          1.953936795212    -0.552428559878     2.195496463723     1.007825032070

  Charge       = 0
  Multiplicity = 1
  Basis Set: 6-31G*
  Basis Set:

    Orbital Energies (a.u.)
    -----------------------

    Doubly Occupied:

       1A    -20.556436     2A    -15.528404     3A    -11.266565
       4A    -11.266208     5A    -11.241035     6A     -1.381150
       7A     -1.173630     8A     -0.998643     9A     -0.907323
      10A     -0.815446    11A     -0.684911    12A     -0.673912
      13A     -0.643086    14A     -0.612864    15A     -0.605398
      16A     -0.539941    17A     -0.529920    18A     -0.498514
      19A     -0.471056    20A     -0.416925    21A     -0.380097

  @DF-RHF Final Energy:  -248.12416328940270

   => Energetics <=

    Nuclear Repulsion Energy =            194.7143518164551210
    One-Electron Energy =                -723.2940542458865139
    Two-Electron Energy =                 280.4555391400286339
    DFT Exchange-Correlation Energy =       0.0000000000000000
    Empirical Dispersion Energy =           0.0000000000000000
    PCM Polarization Energy =               0.0000000000000000
    EFP Energy =                            0.0000000000000000
    Total Energy =                       -248.1241632894027020

  Mulliken Charges: (a.u.)
   Center  Symbol    Alpha    Beta     Spin     Total
       1     H     0.33286  0.33286  0.00000  0.33427
       2     N     3.92525  3.92525  0.00000 -0.85050
       3     C     3.06876  3.06876  0.00000 -0.13751
       4     H     0.32361  0.32361  0.00000  0.35279
       5     C     2.99002  2.99002  0.00000  0.01996
       6     H     0.42651  0.42651  0.00000  0.14697
       7     H     0.42040  0.42040  0.00000  0.15920
       8     O     4.31055  4.31055  0.00000 -0.62110
       9     H     0.43113  0.43113  0.00000  0.13775
      10     H     0.42235  0.42235  0.00000  0.15530
      11     C     3.07867  3.07867  0.00000 -0.15735
      12     H     0.42977  0.42977  0.00000  0.14046
      13     H     0.42768  0.42768  0.00000  0.14464
      14     H     0.41243  0.41243  0.00000  0.17513

   Total alpha = 21.00000, Total beta = 21.00000, Total charge =  0.00000
