  ==> Input File <==

--------------------------------------------------------------------------
set {
	reference rhf
	basis 6-31G*
}

set_num_threads( 4 )
memory 2 gb

molecule MOL {
0 1

H	 -2.646374	 -0.642757	 1.268656
C	 -2.083525	 -0.384536	 0.393091
O	 -0.807605	 -0.127164	 0.768327
F	 -2.118945	 -1.383102	 -0.486752
F	 -2.621877	 0.670592	 -0.209486
C	 0.084052	 0.273579	 -0.209957
C	 -0.619116	 0.101262	 -1.550114
Cl	 1.563504	 -0.698582	 -0.152165
H	 0.367893	 1.306364	 -0.107173
F	 0.169176	 0.477841	 -2.534453
F	 -1.691311	 0.867749	 -1.568379
F	 -0.991275	 -1.138230	 -1.757790

	symmetry c1
}
set optking {
	frozen_dihedral = ("
		9 6 3 2
	")
}

ee = optimize('scf')
oeprop('DIPOLE', 'QUADRUPOLE', 'MULLIKEN_CHARGES')
f=open( 'psi4out.xyz', 'w' )
f.write( "12  " )
f.write( str(ee) + "\n" )
f.write( MOL.save_string_xyz() )
f.close()
--------------------------------------------------------------------------

    Molecular point group: c1
  Charge       = 0
  Multiplicity = 1
  Basis Set: 6-31G*
  Basis Set:
  @DF-RHF Final Energy: -1146.08978657151920
    Total Energy =                      -1146.0897865715191983
    Molecular point group: c1
  Basis Set: 6-31G*
  Basis Set:
  Basis Set: 6-31G*
  Basis Set:
  @DF-RHF Final Energy: -1146.18404656772486
    Total Energy =                      -1146.1840465677244083
  Basis Set: 6-31G*
  Basis Set:
  Basis Set: 6-31G*
  Basis Set:
  @DF-RHF Final Energy: -1146.23631940841642
    Total Energy =                      -1146.2363194084161933
  Basis Set: 6-31G*
  Basis Set:
  Basis Set: 6-31G*
  Basis Set:
  @DF-RHF Final Energy: -1146.26588504335541
    Total Energy =                      -1146.2658850433556381
  Basis Set: 6-31G*
  Basis Set:
  @DF-RHF Final Energy: -1146.28309131765309
    Total Energy =                      -1146.2830913176537706
  @DF-RHF Final Energy: -1146.29268151756673
    Total Energy =                      -1146.2926815175669617
  @DF-RHF Final Energy: -1146.29692181072915
    Total Energy =                      -1146.2969218107291454
  @DF-RHF Final Energy: -1146.29829848067675
    Total Energy =                      -1146.2982984806758395
  @DF-RHF Final Energy: -1146.29876658545913
    Total Energy =                      -1146.2987665854579973
  Basis Set: 6-31G*
  Basis Set:
  @DF-RHF Final Energy: -1146.29886524769563
    Total Energy =                      -1146.2988652476960851
  Basis Set: 6-31G*
  Basis Set:
  Basis Set: 6-31G*
  Basis Set:
  @DF-RHF Final Energy: -1146.29887589674536
    Total Energy =                      -1146.2988758967467220
  Basis Set: 6-31G*
  Basis Set:
  Basis Set: 6-31G*
  Basis Set:
  @DF-RHF Final Energy: -1146.29887717903375
    Total Energy =                      -1146.2988771790335250
  Basis Set: 6-31G*
  Basis Set:
  Charge       = 0
  Multiplicity = 1
  Basis Set: 6-31G*
  Basis Set:

    Orbital Energies (a.u.)
    -----------------------

    Doubly Occupied:

       1A   -104.843619     2A    -26.363314     3A    -26.361083
       4A    -26.359632     5A    -26.342706     6A    -26.336708
       7A    -20.642799     8A    -11.533503     9A    -11.487546
      10A    -11.405989    11A    -10.578460    12A     -8.047820
      13A     -8.044244    14A     -8.044143    15A     -1.765093
      16A     -1.711218    17A     -1.661097    18A     -1.658695
      19A     -1.633520    20A     -1.475040    21A     -1.181370
      22A     -1.043951    23A     -0.997973    24A     -0.917986
      25A     -0.859855    26A     -0.854304    27A     -0.849936
      28A     -0.826100    29A     -0.810723    30A     -0.761019
      31A     -0.731962    32A     -0.729656    33A     -0.707877
      34A     -0.687993    35A     -0.680045    36A     -0.674569
      37A     -0.662383    38A     -0.659512    39A     -0.650333
      40A     -0.643146    41A     -0.584583    42A     -0.552174
      43A     -0.524646    44A     -0.477631    45A     -0.467741

  @DF-RHF Final Energy: -1146.29887778160355

   => Energetics <=

    Nuclear Repulsion Energy =            753.8169733013247651
    One-Electron Energy =               -3090.5643166194404330
    Two-Electron Energy =                1190.4484655365120034
    DFT Exchange-Correlation Energy =       0.0000000000000000
    Empirical Dispersion Energy =           0.0000000000000000
    PCM Polarization Energy =               0.0000000000000000
    EFP Energy =                            0.0000000000000000
    Total Energy =                      -1146.2988777816037782
    Molecular point group: c1
  Basis Set: 6-31G*
  Basis Set:

  -Total Gradient:
     Atom            X                  Y                   Z
    ------   -----------------  -----------------  -----------------
       1       -0.000014010738     0.000008248214     0.000005930832
       2        0.000497762095    -0.002225530529    -0.000426889611
       3       -0.000283067632     0.003400240325     0.000896862313
       4       -0.000127285950    -0.000010340549     0.000125062949
       5        0.000029677455     0.000025814856    -0.000076347343
       6       -0.002010558387    -0.000486693866    -0.001875105425
       7       -0.000036256143     0.000038545396     0.000011042296
       8        0.000012688144    -0.000005327936    -0.000010248154
       9        0.001853652784    -0.000681371936     0.001360667129
      10       -0.000034661510    -0.000000187906     0.000017486781
      11       -0.000036098690    -0.000011360234     0.000110447653
      12        0.000148158512    -0.000052035797    -0.000138909411

  **** Optimization is complete! (in 13 steps) ****
    Final optimized geometry and variables:
    Molecular point group: c1

    Geometry (in Angstrom), charge = 0, multiplicity = 1:

    H           -1.804677553830    -0.543916511943     2.311247641944
    C           -1.499093557152    -0.182380414719     1.348403978134
    O           -0.170647979227     0.074238034118     1.431471648340
    F           -1.774793723516    -1.087797954678     0.420136430191
    F           -2.184577039919     0.915953494532     1.049886376274
    C            0.710053206694     0.415316635027     0.413195850911
    C            0.266233271024     0.260884319750    -1.048082941738
    CL           2.186665666195    -0.540188879485     0.660192411065
    H            0.996212756733     1.444150956394     0.545756283771
    F            1.190977201520     0.821211583210    -1.803671566313
    F           -0.862103932236     0.904444496084    -1.257255457088
    F            0.122454587115    -0.981698851920    -1.431665627673

  Mulliken Charges: (a.u.)
   Center  Symbol    Alpha    Beta     Spin     Total
       1     H     0.40350  0.40350  0.00000  0.19301
       2     C     2.55925  2.55925  0.00000  0.88150
       3     O     4.31944  4.31944  0.00000 -0.63888
       4     F     4.68404  4.68404  0.00000 -0.36809
       5     F     4.68527  4.68527  0.00000 -0.37053
       6     C     3.00529  3.00529  0.00000 -0.01059
       7     C     2.45688  2.45688  0.00000  1.08623
       8    CL     8.50220  8.50220  0.00000 -0.00441
       9     H     0.37095  0.37095  0.00000  0.25811
      10     F     4.67458  4.67458  0.00000 -0.34916
      11     F     4.67365  4.67365  0.00000 -0.34730
      12     F     4.66495  4.66495  0.00000 -0.32990

   Total alpha = 45.00000, Total beta = 45.00000, Total charge =  0.00000
