                              Psi4 1.0.54 Driver

  ==> Input File <==

--------------------------------------------------------------------------
set {
	reference rhf
	basis cc-pvtz
}

set_num_threads( 4 )
memory 2 gb

molecule MOL {
0 1

H	 1.349414	 -1.541395	 -0.305213
O	 1.583947	 -0.677544	 -0.001533
C	 0.489979	 0.078084	 0.002623
C	 -0.763662	 -0.754014	 0.000816
O	 0.539051	 1.259395	 -0.000088
C	 -2.038001	 0.074705	 -0.000833
H	 -0.712945	 -1.405886	 -0.864342
H	 -0.715137	 -1.405770	 0.866182
H	 -2.087267	 0.710831	 -0.874232
H	 -2.903419	 -0.576199	 -0.001922
H	 -2.089467	 0.710909	 0.872389

	symmetry c1
}
set optking {
	frozen_dihedral = ("
		1 2 3 5
	")
}

ee,wfn = optimize('scf', return_wfn=True)
oeprop( wfn, 'DIPOLE', 'QUADRUPOLE', 'MULLIKEN_CHARGES')
f=open( 'psi4out.xyz', 'w' )
f.write( "11  " )
f.write( str(ee) + "\n" )
f.write( MOL.save_string_xyz() )
f.close()
--------------------------------------------------------------------------

    Molecular point group: c1
  Charge       = 0
  Multiplicity = 1
  Basis Set: CC-PVTZ
  Basis Set:
  @DF-RHF Final Energy:  -266.94118009280555
    Total Energy =                       -266.9411800928056095
    Molecular point group: c1
  Basis Set: CC-PVTZ
  Basis Set:
  Basis Set: CC-PVTZ
  Basis Set:
  @DF-RHF Final Energy:  -266.94245414363047
    Total Energy =                       -266.9424541436305844
  Basis Set: CC-PVTZ
  Basis Set:
  Basis Set: CC-PVTZ
  Basis Set:
  @DF-RHF Final Energy:  -266.94252522158314
    Total Energy =                       -266.9425252215831961
  Basis Set: CC-PVTZ
  Basis Set:
  Basis Set: CC-PVTZ
  Basis Set:
  @DF-RHF Final Energy:  -266.94256253421941
    Total Energy =                       -266.9425625342193484
  Basis Set: CC-PVTZ
  Basis Set:
  Basis Set: CC-PVTZ
  Basis Set:
  @DF-RHF Final Energy:  -266.94262151830139
    Total Energy =                       -266.9426215183013369
  Basis Set: CC-PVTZ
  Basis Set:
  Charge       = 0
  Multiplicity = 1
  Basis Set: CC-PVTZ
  Basis Set:

    Orbital Energies (a.u.)
    -----------------------

    Doubly Occupied:

       1A    -20.603679     2A    -20.538835     3A    -11.373751
       4A    -11.253633     5A    -11.224282     6A     -1.471621
       7A     -1.374598     8A     -1.069724     9A     -0.909440
      10A     -0.831078    11A     -0.719939    12A     -0.670179
      13A     -0.662040    14A     -0.614380    15A     -0.594642
      16A     -0.535074    17A     -0.528953    18A     -0.513499
      19A     -0.483642    20A     -0.445913

  @DF-RHF Final Energy:  -266.94262407786914

   => Energetics <=

    Nuclear Repulsion Energy =            180.0236765970064710
    One-Electron Energy =                -721.0947943496769312
    Two-Electron Energy =                 274.1284936748013479
    DFT Exchange-Correlation Energy =       0.0000000000000000
    Empirical Dispersion Energy =           0.0000000000000000
    PCM Polarization Energy =               0.0000000000000000
    EFP Energy =                            0.0000000000000000
    Total Energy =                       -266.9426240778691408
    Molecular point group: c1
  Basis Set: CC-PVTZ
  Basis Set:

  -Total Gradient:
     Atom            X                  Y                   Z
    ------   -----------------  -----------------  -----------------
       1        0.000576093991     0.001282385233    -0.004288187527
       2       -0.000832341646    -0.001591856933     0.003710511468
       3        0.000421528316     0.000344815442     0.004446202657
       4        0.000007565689    -0.000010967970     0.000021557518
       5       -0.000165941825    -0.000031259833    -0.003883900048
       6        0.000003126681     0.000014227908    -0.000003795792
       7        0.000003902855     0.000016884724    -0.000002743581
       8       -0.000011588504    -0.000004564994    -0.000007196466
       9        0.000008790981    -0.000009465562     0.000005823145
      10       -0.000010256831    -0.000006465691     0.000002467505
      11       -0.000000879704    -0.000003732324    -0.000000738879

  **** Optimization is complete! (in 6 steps) ****
    Final optimized geometry and variables:
    Molecular point group: c1

    Geometry (in Angstrom), charge = 0, multiplicity = 1:

    H            1.504414211410    -1.490613754804    -0.346494789557
    O            1.641666934774    -0.603244405575    -0.064326194429
    C            0.498771883169     0.090181039230    -0.017277398174
    C           -0.755727962050    -0.751856904083     0.050467707272
    O            0.517234913369     1.265491317509    -0.031492778314
    C           -2.033783186443     0.070196207627     0.088732837301
    H           -0.754982891141    -1.419004737671    -0.808141941551
    H           -0.673905877376    -1.386571659775     0.927518921842
    H           -2.120935997953     0.690329812194    -0.792770125534
    H           -2.896014960086    -0.583300827332     0.137248698996
    H           -2.046473500128     0.721469042731     0.951637850615

  Mulliken Charges: (a.u.)
   Center  Symbol    Alpha    Beta     Spin     Total
       1     H     0.38798  0.38798  0.00000  0.22404
       2     O     4.14770  4.14770  0.00000 -0.29540
       3     C     2.80565  2.80565  0.00000  0.38870
       4     C     3.11502  3.11502  0.00000 -0.23005
       5     O     4.17366  4.17366  0.00000 -0.34732
       6     C     3.14038  3.14038  0.00000 -0.28077
       7     H     0.45006  0.45006  0.00000  0.09988
       8     H     0.43883  0.43883  0.00000  0.12234
       9     H     0.44578  0.44578  0.00000  0.10844
      10     H     0.45043  0.45043  0.00000  0.09914
      11     H     0.44451  0.44451  0.00000  0.11099

   Total alpha = 20.00000, Total beta = 20.00000, Total charge =  0.00000

*** Psi4 exiting successfully. Buy a developer a beer!
