                              Psi4 1.0.54 Driver

  ==> Input File <==

--------------------------------------------------------------------------
set {
	reference rhf
	basis cc-pvtz
}

set_num_threads( 4 )
memory 2 gb

molecule MOL {
0 1

O	 3.219313	 0.959291	 -0.614106
C	 2.698710	 0.058177	 -0.050237
C	 1.246364	 -0.005813	 0.348416
O	 3.344101	 -1.038700	 0.312317
C	 0.453207	 1.232821	 -0.049003
H	 0.839270	 -0.907818	 -0.092281
H	 1.216683	 -0.160521	 1.422434
C	 -0.998367	 1.217982	 0.432195
H	 0.481498	 1.345443	 -1.127236
H	 0.951413	 2.105557	 0.354893
C	 -1.882951	 0.151251	 -0.211235
H	 -1.429490	 2.193659	 0.228843
H	 -1.019755	 1.099323	 1.513279
C	 -2.216050	 0.452816	 -1.669964
H	 -1.381471	 -0.811877	 -0.149811
H	 -2.809962	 0.048458	 0.345201
C	 -3.104369	 -0.603267	 -2.321387
H	 -1.293000	 0.543200	 -2.237547
H	 -2.706910	 1.421263	 -1.733454
C	 -3.431212	 -0.295930	 -3.778952
H	 -2.615120	 -1.571487	 -2.258901
H	 -4.028588	 -0.692852	 -1.756896
H	 -4.062609	 -1.064010	 -4.210662
H	 -2.528613	 -0.234859	 -4.377863
H	 -3.952329	 0.651173	 -3.871910
C	 4.720529	 -1.114346	 0.001449
H	 4.874321	 -1.055557	 -1.065852
H	 5.057824	 -2.067950	 0.373977
H	 5.264321	 -0.313596	 0.480350

	symmetry c1
}
set optking {
	frozen_dihedral = ("
		15 11 8 5
	")
}

ee,wfn = optimize('scf', return_wfn=True)
oeprop( wfn, 'DIPOLE', 'QUADRUPOLE', 'MULLIKEN_CHARGES')
f=open( 'psi4out.xyz', 'w' )
f.write( "29  " )
f.write( str(ee) + "\n" )
f.write( MOL.save_string_xyz() )
f.close()
--------------------------------------------------------------------------

    Molecular point group: c1
  Charge       = 0
  Multiplicity = 1
  Basis Set: CC-PVTZ
  Basis Set:
  @DF-RHF Final Energy:  -501.22252605685412
    Total Energy =                       -501.2225260568538943
    Molecular point group: c1
  Basis Set: CC-PVTZ
  Basis Set:
  Basis Set: CC-PVTZ
  Basis Set:
  @DF-RHF Final Energy:  -501.22255859265590
    Total Energy =                       -501.2225585926557869
  Basis Set: CC-PVTZ
  Basis Set:
  Basis Set: CC-PVTZ
  Basis Set:
  @DF-RHF Final Energy:  -501.22294839810309
    Total Energy =                       -501.2229483981031990
  Basis Set: CC-PVTZ
  Basis Set:
  Basis Set: CC-PVTZ
  Basis Set:
  @DF-RHF Final Energy:  -501.22273514548772
    Total Energy =                       -501.2227351454885138
  Basis Set: CC-PVTZ
  Basis Set:
  Basis Set: CC-PVTZ
  Basis Set:
  @DF-RHF Final Energy:  -501.22295781270554
    Total Energy =                       -501.2229578127052037
  Basis Set: CC-PVTZ
  Basis Set:
  Charge       = 0
  Multiplicity = 1
  Basis Set: CC-PVTZ
  Basis Set:

    Orbital Energies (a.u.)
    -----------------------

    Doubly Occupied:

       1A    -20.596215     2A    -20.534099     3A    -11.364535
       4A    -11.278446     5A    -11.233175     6A    -11.216775
       7A    -11.215811     8A    -11.213714     9A    -11.213540
      10A    -11.211343    11A    -11.206519    12A     -1.472078
      13A     -1.365701    14A     -1.099128    15A     -1.066735
      16A     -1.019978    17A     -0.977223    18A     -0.928989
      19A     -0.866527    20A     -0.805706    21A     -0.783990
      22A     -0.761886    23A     -0.703577    24A     -0.686019
      25A     -0.675535    26A     -0.649478    27A     -0.631634
      28A     -0.605910    29A     -0.595450    30A     -0.577247
      31A     -0.563926    32A     -0.562402    33A     -0.533608
      34A     -0.528314    35A     -0.524422    36A     -0.510892
      37A     -0.492146    38A     -0.480601    39A     -0.472704
      40A     -0.461000    41A     -0.458843    42A     -0.453391
      43A     -0.442137    44A     -0.439824

  @DF-RHF Final Energy:  -501.22295789448447

   => Energetics <=

    Nuclear Repulsion Energy =            621.2422837822845167
    One-Electron Energy =               -1913.9681402196918043
    Two-Electron Energy =                 791.5028985429229351
    DFT Exchange-Correlation Energy =       0.0000000000000000
    Empirical Dispersion Energy =           0.0000000000000000
    PCM Polarization Energy =               0.0000000000000000
    EFP Energy =                            0.0000000000000000
    Total Energy =                       -501.2229578944844661
    Molecular point group: c1
  Basis Set: CC-PVTZ
  Basis Set:

  -Total Gradient:
     Atom            X                  Y                   Z
    ------   -----------------  -----------------  -----------------
       1       -0.000028710038     0.000064358903    -0.000101700128
       2        0.000037695337     0.000094347849     0.000226561918
       3        0.000006122256    -0.000049364580    -0.000079842050
       4       -0.000006258956    -0.000106958390    -0.000035481802
       5        0.000193877256    -0.000809634670     0.000714191087
       6        0.000018401455     0.000020212095     0.000024032584
       7        0.000022271194    -0.000010411756     0.000019526679
       8       -0.000132025660     0.001099238711    -0.001407959832
       9       -0.000014288729    -0.000004913072    -0.000084565600
      10       -0.000021553240     0.000047331386     0.000017807311
      11       -0.000812987449    -0.000713420436     0.001946250249
      12        0.000027035529    -0.000015462816    -0.000023247450
      13       -0.000019649027    -0.000028848062     0.000007698821
      14        0.000051346848    -0.000023484879     0.000076584606
      15        0.000695385145     0.000423020650    -0.001292737712
      16       -0.000027332679     0.000004384037    -0.000008227542
      17       -0.000035441730     0.000003812176     0.000026829101
      18        0.000059415022     0.000016223329     0.000027647281
      19        0.000015993151     0.000021418197    -0.000009995480
      20       -0.000012666003    -0.000021966124    -0.000019748504
      21        0.000003209922     0.000000505242    -0.000002857746
      22        0.000003720523    -0.000023083703    -0.000006855760
      23       -0.000005218075     0.000012011263    -0.000013453912
      24       -0.000009414412    -0.000000278978     0.000005689110
      25       -0.000003341912     0.000004417964    -0.000005443226
      26       -0.000006986265     0.000020750025    -0.000017312993
      27        0.000001447058    -0.000003548521    -0.000009422904
      28       -0.000002878985    -0.000028542453     0.000013560354
      29        0.000002832457     0.000007886615     0.000012473541

  **** Optimization is complete! (in 6 steps) ****
    Final optimized geometry and variables:
    Molecular point group: c1

    Geometry (in Angstrom), charge = 0, multiplicity = 1:

    O            2.826619576332     0.886902866544     0.227491314695
    C            2.300383170965    -0.046424537434     0.730553582175
    C            0.834915910214    -0.151179421091     1.068163299349
    O            2.949908675704    -1.148905985974     1.068058910239
    C            0.038722777733     1.096171298889     0.705466833491
    H            0.460601841038    -1.035106131298     0.565897058886
    H            0.766054764082    -0.363248118696     2.130383174924
    C           -1.432400124121     1.029448488901     1.125276837850
    H            0.125339648975     1.279814536011    -0.358404527705
    H            0.499223622149     1.949368391152     1.188586511301
    C           -2.306035469545     0.017194102218     0.376972980004
    H           -1.867828467741     2.017035196334     1.007121185009
    H           -1.476239384139     0.809588121768     2.188915695960
    C           -2.639322989270     0.417824943855    -1.059596906766
    H           -1.826410925495    -0.957034348070     0.366394862928
    H           -3.234236412609    -0.108859455248     0.926374934698
    C           -3.541322343169    -0.588522619850    -1.769356979082
    H           -1.725377209138     0.538176050744    -1.634041530107
    H           -3.124509391548     1.391112674895    -1.054532218043
    C           -3.883961091842    -0.183249021180    -3.199144069570
    H           -3.056904236305    -1.561328460146    -1.777911734518
    H           -4.458959895157    -0.711639992317    -1.200555735734
    H           -4.524778961120    -0.917860943559    -3.673214022741
    H           -2.988456643800    -0.086345688593    -3.803933656411
    H           -4.401010290582     0.770300298562    -3.222219111319
    C            4.338276757153    -1.189658068064     0.807744510499
    H            4.531623128692    -1.080084809121    -0.249086231352
    H            4.677043899106    -2.154094305322     1.149942427067
    H            4.849933609813    -0.403457293722     1.342897118332

  Mulliken Charges: (a.u.)
   Center  Symbol    Alpha    Beta     Spin     Total
       1     O     4.19678  4.19678  0.00000 -0.39356
       2     C     2.80442  2.80442  0.00000  0.39117
       3     C     3.10129  3.10129  0.00000 -0.20259
       4     O     4.14723  4.14723  0.00000 -0.29446
       5     C     3.09553  3.09553  0.00000 -0.19106
       6     H     0.43970  0.43970  0.00000  0.12060
       7     H     0.43948  0.43948  0.00000  0.12103
       8     C     3.11225  3.11225  0.00000 -0.22449
       9     H     0.44434  0.44434  0.00000  0.11133
      10     H     0.43843  0.43843  0.00000  0.12314
      11     C     3.10275  3.10275  0.00000 -0.20550
      12     H     0.44461  0.44461  0.00000  0.11078
      13     H     0.44742  0.44742  0.00000  0.10515
      14     C     3.08666  3.08666  0.00000 -0.17331
      15     H     0.45351  0.45351  0.00000  0.09298
      16     H     0.44521  0.44521  0.00000  0.10959
      17     C     3.08397  3.08397  0.00000 -0.16794
      18     H     0.45315  0.45315  0.00000  0.09370
      19     H     0.45418  0.45418  0.00000  0.09163
      20     C     3.14973  3.14973  0.00000 -0.29946
      21     H     0.45485  0.45485  0.00000  0.09030
      22     H     0.45428  0.45428  0.00000  0.09145
      23     H     0.44849  0.44849  0.00000  0.10302
      24     H     0.45493  0.45493  0.00000  0.09014
      25     H     0.45491  0.45491  0.00000  0.09018
      26     C     3.03809  3.03809  0.00000 -0.07619
      27     H     0.45437  0.45437  0.00000  0.09125
      28     H     0.44523  0.44523  0.00000  0.10954
      29     H     0.45420  0.45420  0.00000  0.09159

   Total alpha = 44.00000, Total beta = 44.00000, Total charge = -0.00000

*** Psi4 exiting successfully. Buy a developer a beer!
