                              Psi4 1.0.54 Driver

  ==> Input File <==

--------------------------------------------------------------------------
set {
	reference rhf
	basis cc-pvtz
}

set_num_threads( 4 )
memory 2 gb

molecule MOL {
0 1

H	 -3.982879	 0.333323	 1.183421
O	 -3.272469	 -0.221240	 0.918897
C	 -2.302264	 0.528872	 0.237390
C	 -1.175688	 -0.398187	 -0.171891
H	 -2.734069	 0.998811	 -0.643788
H	 -1.916467	 1.321416	 0.875249
C	 0.196029	 0.106276	 0.266738
H	 -1.201873	 -0.515469	 -1.250677
H	 -1.365975	 -1.378728	 0.252664
C	 1.330220	 -0.826136	 -0.155230
H	 0.359542	 1.097229	 -0.145561
H	 0.212134	 0.218135	 1.348778
C	 2.719700	 -0.407669	 0.328325
H	 1.339388	 -0.911200	 -1.239363
H	 1.119001	 -1.821953	 0.224128
C	 3.241564	 0.893452	 -0.276737
H	 3.418299	 -1.204729	 0.093035
H	 2.711776	 -0.323368	 1.411960
H	 3.254204	 0.841071	 -1.360784
H	 2.634460	 1.745075	 0.005842
H	 4.254264	 1.092401	 0.054971

	symmetry c1
}
set optking {
	frozen_dihedral = ("
		2 3 4 8
	")
}

ee,wfn = optimize('scf', return_wfn=True)
oeprop( wfn, 'DIPOLE', 'QUADRUPOLE', 'MULLIKEN_CHARGES')
f=open( 'psi4out.xyz', 'w' )
f.write( "21  " )
f.write( str(ee) + "\n" )
f.write( MOL.save_string_xyz() )
f.close()
--------------------------------------------------------------------------

    Molecular point group: c1
  Charge       = 0
  Multiplicity = 1
  Basis Set: CC-PVTZ
  Basis Set:
  @DF-RHF Final Energy:  -310.32713643867817
    Total Energy =                       -310.3271364386779965
    Molecular point group: c1
  Basis Set: CC-PVTZ
  Basis Set:
  Basis Set: CC-PVTZ
  Basis Set:
  @DF-RHF Final Energy:  -310.32747100219774
    Total Energy =                       -310.3274710021976261
  Basis Set: CC-PVTZ
  Basis Set:
  Basis Set: CC-PVTZ
  Basis Set:
  @DF-RHF Final Energy:  -310.32757636186710
    Total Energy =                       -310.3275763618672158
  Basis Set: CC-PVTZ
  Basis Set:
  Charge       = 0
  Multiplicity = 1
  Basis Set: CC-PVTZ
  Basis Set:

    Orbital Energies (a.u.)
    -----------------------

    Doubly Occupied:

       1A    -20.545163     2A    -11.265296     3A    -11.212303
       4A    -11.211596     5A    -11.210026     6A    -11.208970
       7A    -11.205578     8A     -1.362210     9A     -1.085694
      10A     -1.032005    11A     -0.954006    12A     -0.876486
      13A     -0.807839    14A     -0.778345    15A     -0.703101
      16A     -0.645734    17A     -0.630495    18A     -0.603105
      19A     -0.586381    20A     -0.573491    21A     -0.536271
      22A     -0.523922    23A     -0.509105    24A     -0.485687
      25A     -0.483233    26A     -0.460418    27A     -0.455045
      28A     -0.447143    29A     -0.428392

  @DF-RHF Final Energy:  -310.32757568107581

   => Energetics <=

    Nuclear Repulsion Energy =            313.1363178573135428
    One-Electron Energy =               -1041.2737078885027131
    Two-Electron Energy =                 417.8098143501136406
    DFT Exchange-Correlation Energy =       0.0000000000000000
    Empirical Dispersion Energy =           0.0000000000000000
    PCM Polarization Energy =               0.0000000000000000
    EFP Energy =                            0.0000000000000000
    Total Energy =                       -310.3275756810755297
    Molecular point group: c1
  Basis Set: CC-PVTZ
  Basis Set:

  -Total Gradient:
     Atom            X                  Y                   Z
    ------   -----------------  -----------------  -----------------
       1       -0.000022044884     0.000010390666     0.000023689795
       2        0.000689051889     0.000288207600     0.001206826322
       3       -0.000684398883    -0.000030425383    -0.001562283746
       4       -0.001135244213    -0.001820407693     0.000591623299
       5       -0.000005649544    -0.000010572580     0.000002339296
       6        0.000015261956     0.000008965275     0.000000308221
       7       -0.000007407354     0.000015991715    -0.000087206115
       8        0.001167909349     0.001513709828    -0.000191126182
       9       -0.000038630272    -0.000010476102    -0.000007422901
      10       -0.000018367185     0.000042039684    -0.000008205423
      11       -0.000031048350    -0.000064498572    -0.000016857340
      12       -0.000004634388     0.000047003573     0.000010075998
      13       -0.000030548082     0.000029159718     0.000082938398
      14       -0.000011245585     0.000039519146    -0.000002725160
      15        0.000013395026    -0.000030637242    -0.000035203683
      16        0.000025866340    -0.000009575279    -0.000011928013
      17        0.000011210467    -0.000003162133     0.000026549878
      18       -0.000004362802     0.000021456501     0.000003273421
      19       -0.000007766362     0.000012807706    -0.000014105495
      20        0.000075000937    -0.000030845190     0.000006357351
      21        0.000003651944    -0.000018651240    -0.000016917920

  **** Optimization is complete! (in 4 steps) ****
    Final optimized geometry and variables:
    Molecular point group: c1

    Geometry (in Angstrom), charge = 0, multiplicity = 1:

    H           -4.048677089055     0.381696085287     0.995692655495
    O           -3.329447824061    -0.172596977646     0.754440933258
    C           -2.354035529034     0.576111382799     0.073155634985
    C           -1.213807810189    -0.356309286269    -0.346411111562
    H           -2.790837646815     1.060855433052    -0.795235876263
    H           -1.972520857383     1.359172000992     0.723360423894
    C            0.166043307974     0.140914048902     0.080619572300
    H           -1.219440482309    -0.484486338130    -1.423883328723
    H           -1.406075056933    -1.327841049090     0.091272626925
    C            1.291923990626    -0.795286037345    -0.352073437487
    H            0.330075623387     1.132878335183    -0.330197069850
    H            0.185125422658     0.250187200397     1.162485659517
    C            2.684875961449    -0.396569928016     0.138620762263
    H            1.302519481397    -0.867304192480    -1.437408105476
    H            1.070520781145    -1.793833489843     0.014410914163
    C            3.224202463578     0.902101600747    -0.456153108629
    H            3.374969501079    -1.200096737826    -0.099750621655
    H            2.674280601668    -0.319357843022     1.222630018915
    H            3.236236731870     0.858189354311    -1.540626798351
    H            2.628626901693     1.759472640433    -0.166685716992
    H            4.239497250406     1.084778119226    -0.123025812199

  Mulliken Charges: (a.u.)
   Center  Symbol    Alpha    Beta     Spin     Total
       1     H     0.39574  0.39574  0.00000  0.20852
       2     O     4.19687  4.19687  0.00000 -0.39374
       3     C     2.96505  2.96505  0.00000  0.06990
       4     C     3.08956  3.08956  0.00000 -0.17912
       5     H     0.47265  0.47265  0.00000  0.05469
       6     H     0.47548  0.47548  0.00000  0.04904
       7     C     3.10091  3.10091  0.00000 -0.20183
       8     H     0.45383  0.45383  0.00000  0.09234
       9     H     0.44384  0.44384  0.00000  0.11233
      10     C     3.09639  3.09639  0.00000 -0.19279
      11     H     0.45360  0.45360  0.00000  0.09279
      12     H     0.45226  0.45226  0.00000  0.09548
      13     C     3.08993  3.08993  0.00000 -0.17987
      14     H     0.45431  0.45431  0.00000  0.09137
      15     H     0.44824  0.44824  0.00000  0.10351
      16     C     3.15225  3.15225  0.00000 -0.30451
      17     H     0.44863  0.44863  0.00000  0.10274
      18     H     0.45451  0.45451  0.00000  0.09099
      19     H     0.45515  0.45515  0.00000  0.08970
      20     H     0.45425  0.45425  0.00000  0.09151
      21     H     0.44655  0.44655  0.00000  0.10691

   Total alpha = 29.00000, Total beta = 29.00000, Total charge = -0.00000

*** Psi4 exiting successfully. Buy a developer a beer!
