  ==> Input File <==

--------------------------------------------------------------------------
set {
	reference rhf
	basis cc-pvtz
}

set_num_threads( 4 )
memory 2 gb

molecule MOL {
0 1

H	 3.273419	 0.176595	 -0.102789
N	 2.433987	 -0.362316	 -0.080024
C	 1.263552	 0.494993	 0.021953
H	 2.497638	 -0.973615	 0.707122
C	 -0.016533	 -0.325589	 -0.026925
H	 1.280915	 1.180773	 -0.818522
H	 1.263064	 1.106893	 0.925038
C	 -1.280353	 0.525521	 0.047747
H	 -0.016686	 -0.912532	 -0.939714
H	 -0.014099	 -1.037598	 0.796369
C	 -1.983559	 0.432330	 1.397861
H	 -1.967133	 0.217647	 -0.736162
H	 -1.031578	 1.563468	 -0.156341
H	 -2.275704	 -0.589225	 1.616508
H	 -2.878226	 1.043977	 1.418092
H	 -1.335285	 0.768005	 2.200508

	symmetry c1
}
set optking {
	frozen_dihedral = ("
		12 8 5 9
	")
}

ee = optimize('scf')
oeprop('DIPOLE', 'QUADRUPOLE', 'MULLIKEN_CHARGES')
f=open( 'psi4out.xyz', 'w' )
f.write( "16  " )
f.write( str(ee) + "\n" )
f.write( MOL.save_string_xyz() )
f.close()
--------------------------------------------------------------------------

    Molecular point group: c1
  Charge       = 0
  Multiplicity = 1
  Basis Set: CC-PVTZ
  Basis Set:
  @DF-RHF Final Energy:  -212.39536003945042
    Total Energy =                       -212.3953600394505088
    Molecular point group: c1
  Basis Set: CC-PVTZ
  Basis Set:
  Basis Set: CC-PVTZ
  Basis Set:
  @DF-RHF Final Energy:  -212.39565217443504
    Total Energy =                       -212.3956521744350425
  Basis Set: CC-PVTZ
  Basis Set:
  Basis Set: CC-PVTZ
  Basis Set:
  @DF-RHF Final Energy:  -212.39571371208461
    Total Energy =                       -212.3957137120842731
  Basis Set: CC-PVTZ
  Basis Set:
  Charge       = 0
  Multiplicity = 1
  Basis Set: CC-PVTZ
  Basis Set:

    Orbital Energies (a.u.)
    -----------------------

    Doubly Occupied:

       1A    -15.526671     2A    -11.238799     3A    -11.212942
       4A    -11.207740     5A    -11.207170     6A     -1.178617
       7A     -1.058720     8A     -0.958797     9A     -0.849409
      10A     -0.790453    11A     -0.661253    12A     -0.637505
      13A     -0.608185    14A     -0.582194    15A     -0.562773
      16A     -0.525464    17A     -0.505980    18A     -0.468831
      19A     -0.461355    20A     -0.460564    21A     -0.383995

  @DF-RHF Final Energy:  -212.39571461026028

   => Energetics <=

    Nuclear Repulsion Energy =            187.6195557317801388
    One-Electron Energy =                -657.8557012383653273
    Two-Electron Energy =                 257.8404308963249605
    DFT Exchange-Correlation Energy =       0.0000000000000000
    Empirical Dispersion Energy =           0.0000000000000000
    PCM Polarization Energy =               0.0000000000000000
    EFP Energy =                            0.0000000000000000
    Total Energy =                       -212.3957146102602564
    Molecular point group: c1
  Basis Set: CC-PVTZ
  Basis Set:

  -Total Gradient:
     Atom            X                  Y                   Z
    ------   -----------------  -----------------  -----------------
       1        0.000051625667    -0.000013063808     0.000011116411
       2        0.000068335238    -0.000026339082    -0.000009085625
       3       -0.000036446597     0.000025509845    -0.000025504013
       4        0.000008482774    -0.000007843091     0.000010985606
       5        0.001587359305     0.002674949342    -0.001782967576
       6       -0.000022423023     0.000006417475     0.000000339366
       7       -0.000016541234    -0.000016075750    -0.000014686656
       8       -0.001494409553    -0.002481870634     0.002110360184
       9       -0.001093191599    -0.001806579090     0.001168840600
      10        0.000002200528     0.000007679491    -0.000006007986
      11       -0.000024028498    -0.000007093923     0.000032221942
      12        0.000953803571     0.001651009055    -0.001469302011
      13        0.000000181790    -0.000014292594     0.000013478403
      14        0.000015126322    -0.000000260691    -0.000007860970
      15       -0.000005932674     0.000005977978    -0.000013028412
      16        0.000005857981     0.000001875478    -0.000018899263

  **** Optimization is complete! (in 4 steps) ****
    Final optimized geometry and variables:
    Molecular point group: c1

    Geometry (in Angstrom), charge = 0, multiplicity = 1:

    H            3.157269502017     0.035718234565    -0.351042586088
    N            2.319687225611    -0.506525367395    -0.340789761549
    C            1.143242025301     0.344647120796    -0.276594053979
    H            2.368039829186    -1.109535006916     0.453782903921
    C           -0.132346458009    -0.481959978591    -0.348698181259
    H            1.175632006856     1.022015625050    -1.123236996481
    H            1.115837079358     0.966684109037     0.619692847076
    C           -1.413954353001     0.364088272981    -0.243185224215
    H           -0.125568035992    -1.060926109885    -1.264257874347
    H           -0.117837158317    -1.213554112328     0.456268225871
    C           -2.092814252687     0.287665374240     1.120750535842
    H           -2.114039636172     0.069115731214    -1.016740618765
    H           -1.174901323131     1.402295190212    -0.457804534960
    H           -2.412939953709    -0.725278511201     1.340058120719
    H           -2.966428858459     0.928348525678     1.162647296603
    H           -1.417677592829     0.597598851349     1.911913229197

  Mulliken Charges: (a.u.)
   Center  Symbol    Alpha    Beta     Spin     Total
       1     H     0.43011  0.43011  0.00000  0.13979
       2     N     3.68999  3.68999  0.00000 -0.37997
       3     C     3.02539  3.02539  0.00000 -0.05077
       4     H     0.43041  0.43041  0.00000  0.13919
       5     C     3.08682  3.08682  0.00000 -0.17363
       6     H     0.45636  0.45636  0.00000  0.08727
       7     H     0.46796  0.46796  0.00000  0.06409
       8     C     3.09622  3.09622  0.00000 -0.19244
       9     H     0.44401  0.44401  0.00000  0.11197
      10     H     0.46163  0.46163  0.00000  0.07673
      11     C     3.14703  3.14703  0.00000 -0.29406
      12     H     0.44746  0.44746  0.00000  0.10507
      13     H     0.45657  0.45657  0.00000  0.08686
      14     H     0.45457  0.45457  0.00000  0.09085
      15     H     0.44940  0.44940  0.00000  0.10119
      16     H     0.45607  0.45607  0.00000  0.08787

   Total alpha = 21.00000, Total beta = 21.00000, Total charge = -0.00000
