  ==> Input File <==

--------------------------------------------------------------------------
set {
	reference rhf
	basis cc-pvtz
}

set_num_threads( 4 )
memory 2 gb

molecule MOL {
0 1

H	 1.128311	 0.207724	 1.465118
C	 1.134565	 0.093781	 0.372499
C	 0.062554	 0.862911	 -0.350953
O	 1.948932	 -0.587720	 -0.146651
C	 0.601512	 1.624539	 -1.565885
H	 -0.419115	 1.528564	 0.353601
H	 -0.674284	 0.135011	 -0.683075
C	 1.546483	 2.764650	 -1.197338
H	 -0.239815	 2.018428	 -2.124091
H	 1.107057	 0.929846	 -2.230921
H	 1.049942	 3.490821	 -0.563557
H	 1.893922	 3.278961	 -2.085264
H	 2.418475	 2.405988	 -0.661588

	symmetry c1
}
set optking {
	frozen_dihedral = ("
		6 3 2 4
	")
}

ee = optimize('scf')
oeprop('DIPOLE', 'QUADRUPOLE', 'MULLIKEN_CHARGES')
f=open( 'psi4out.xyz', 'w' )
f.write( "13  " )
f.write( str(ee) + "\n" )
f.write( MOL.save_string_xyz() )
f.close()
--------------------------------------------------------------------------

    Molecular point group: c1
  Charge       = 0
  Multiplicity = 1
  Basis Set: CC-PVTZ
  Basis Set:
  @DF-RHF Final Energy:  -231.06900618493322
    Total Energy =                       -231.0690061849331585
    Molecular point group: c1
  Basis Set: CC-PVTZ
  Basis Set:
  Basis Set: CC-PVTZ
  Basis Set:
  @DF-RHF Final Energy:  -231.06822369540765
    Total Energy =                       -231.0682236954077382
  Basis Set: CC-PVTZ
  Basis Set:
  Basis Set: CC-PVTZ
  Basis Set:
  @DF-RHF Final Energy:  -231.06934575168296
    Total Energy =                       -231.0693457516828175
  Basis Set: CC-PVTZ
  Basis Set:
  Basis Set: CC-PVTZ
  Basis Set:
  @DF-RHF Final Energy:  -231.06948411090980
    Total Energy =                       -231.0694841109097979
  Basis Set: CC-PVTZ
  Basis Set:
  Basis Set: CC-PVTZ
  Basis Set:
  @DF-RHF Final Energy:  -231.06948624060226
    Total Energy =                       -231.0694862406022594
  Basis Set: CC-PVTZ
  Basis Set:
  Charge       = 0
  Multiplicity = 1
  Basis Set: CC-PVTZ
  Basis Set:

    Orbital Energies (a.u.)
    -----------------------

    Doubly Occupied:

       1A    -20.552748     2A    -11.323309     3A    -11.235251
       4A    -11.227279     5A    -11.214656     6A     -1.408515
       7A     -1.080484     8A     -0.972632     9A     -0.853330
      10A     -0.768689    11A     -0.688808    12A     -0.639634
      13A     -0.628291    14A     -0.592060    15A     -0.560400
      16A     -0.531970    17A     -0.501317    18A     -0.486870
      19A     -0.481178    20A     -0.413085

  @DF-RHF Final Energy:  -231.06948697781783

   => Energetics <=

    Nuclear Repulsion Energy =            175.7518424849155565
    One-Electron Energy =                -661.3216531785706138
    Two-Electron Energy =                 254.5003237158373111
    DFT Exchange-Correlation Energy =       0.0000000000000000
    Empirical Dispersion Energy =           0.0000000000000000
    PCM Polarization Energy =               0.0000000000000000
    EFP Energy =                            0.0000000000000000
    Total Energy =                       -231.0694869778177747
    Molecular point group: c1
  Basis Set: CC-PVTZ
  Basis Set:

  -Total Gradient:
     Atom            X                  Y                   Z
    ------   -----------------  -----------------  -----------------
       1       -0.000001275091    -0.000000977960    -0.000016732972
       2        0.001580382231     0.002163235044     0.000010885006
       3        0.001152953540     0.001071247533    -0.000422499169
       4       -0.001328202545    -0.001743594936     0.000063854335
       5       -0.000005772355     0.000027027969    -0.000020916393
       6       -0.001390718123    -0.001500424768     0.000394940279
       7        0.000001392773    -0.000003014924    -0.000015167868
       8       -0.000019875859    -0.000016523515     0.000014867780
       9        0.000010299681     0.000009494308    -0.000022669448
      10       -0.000012038747    -0.000001357638     0.000013610315
      11        0.000009374758    -0.000007058529     0.000003016883
      12       -0.000002387924    -0.000002873979    -0.000004296018
      13        0.000005867663     0.000004821394     0.000001107271

  **** Optimization is complete! (in 6 steps) ****
    Final optimized geometry and variables:
    Molecular point group: c1

    Geometry (in Angstrom), charge = 0, multiplicity = 1:

    H            0.007503940394    -0.839381499946     2.064968310024
    C            0.053782854463    -0.874945397023     0.970374487579
    C           -1.000877663497    -0.083493770418     0.230836175701
    O            0.868413299324    -1.545928232445     0.436748786626
    C           -0.472979870718     0.670340182340    -0.989443771745
    H           -1.506577446483     0.579127665252     0.925189373760
    H           -1.742276797879    -0.814624944867    -0.083818236981
    C            0.464883379257     1.819944119169    -0.633193090404
    H           -1.320270767367     1.055384558983    -1.546166736373
    H            0.036897543755    -0.031637486421    -1.636717501507
    H           -0.028986202649     2.546605911370     0.003883083602
    H            0.796645433423     2.335796592098    -1.526186834643
    H            1.348014219658     1.464314523612    -0.114822089667

  Mulliken Charges: (a.u.)
   Center  Symbol    Alpha    Beta     Spin     Total
       1     H     0.45464  0.45464  0.00000  0.09071
       2     C     2.91506  2.91506  0.00000  0.16988
       3     C     3.09482  3.09482  0.00000 -0.18964
       4     O     4.16825  4.16825  0.00000 -0.33649
       5     C     3.08701  3.08701  0.00000 -0.17402
       6     H     0.44771  0.44771  0.00000  0.10459
       7     H     0.43944  0.43944  0.00000  0.12112
       8     C     3.15170  3.15170  0.00000 -0.30340
       9     H     0.44703  0.44703  0.00000  0.10594
      10     H     0.44274  0.44274  0.00000  0.11452
      11     H     0.45639  0.45639  0.00000  0.08722
      12     H     0.44582  0.44582  0.00000  0.10836
      13     H     0.44940  0.44940  0.00000  0.10121

   Total alpha = 20.00000, Total beta = 20.00000, Total charge = -0.00000
