                              Psi4 1.0.54 Driver

  ==> Input File <==

--------------------------------------------------------------------------
set {
	reference rhf
	basis cc-pvtz
}

set_num_threads( 4 )
memory 2 gb

molecule MOL {
0 1

O	 -2.440701	 -0.934798	 -0.415053
C	 -1.922978	 0.063265	 -0.045005
C	 -2.632749	 1.372204	 0.158357
O	 -0.637375	 0.157174	 0.243149
H	 -2.187724	 2.129143	 -0.474664
H	 -3.677681	 1.257276	 -0.079438
H	 -2.516788	 1.693160	 1.185542
C	 0.162530	 -1.009518	 0.097799
C	 1.587210	 -0.664190	 0.477086
H	 0.096803	 -1.356267	 -0.924704
H	 -0.233803	 -1.785900	 0.736810
C	 2.512360	 -1.871788	 0.601850
H	 1.549915	 -0.135263	 1.425549
H	 1.986179	 0.033269	 -0.253129
C	 3.929658	 -1.486902	 1.012636
H	 2.099773	 -2.562698	 1.332270
H	 2.540328	 -2.402472	 -0.342838
H	 4.563285	 -2.361928	 1.097676
H	 3.937266	 -0.978845	 1.971392
H	 4.380962	 -0.821907	 0.283853

	symmetry c1
}
set optking {
	frozen_dihedral = ("
		12 9 8 10
	")
}

ee,wfn = optimize('scf', return_wfn=True)
oeprop( wfn, 'DIPOLE', 'QUADRUPOLE', 'MULLIKEN_CHARGES')
f=open( 'psi4out.xyz', 'w' )
f.write( "20  " )
f.write( str(ee) + "\n" )
f.write( MOL.save_string_xyz() )
f.close()
--------------------------------------------------------------------------

    Molecular point group: c1
  Charge       = 0
  Multiplicity = 1
  Basis Set: CC-PVTZ
  Basis Set:
  @DF-RHF Final Energy:  -384.08712551373839
    Total Energy =                       -384.0871255137385560
    Molecular point group: c1
  Basis Set: CC-PVTZ
  Basis Set:
  Basis Set: CC-PVTZ
  Basis Set:
  @DF-RHF Final Energy:  -384.08710446254099
    Total Energy =                       -384.0871044625411628
  Basis Set: CC-PVTZ
  Basis Set:
  Basis Set: CC-PVTZ
  Basis Set:
  @DF-RHF Final Energy:  -384.08737429131628
    Total Energy =                       -384.0873742913158821
  Basis Set: CC-PVTZ
  Basis Set:
  Basis Set: CC-PVTZ
  Basis Set:
  @DF-RHF Final Energy:  -384.08675813862482
    Total Energy =                       -384.0867581386247593
  Basis Set: CC-PVTZ
  Basis Set:
  Basis Set: CC-PVTZ
  Basis Set:
  @DF-RHF Final Energy:  -384.08741680244140
    Total Energy =                       -384.0874168024414530
  Basis Set: CC-PVTZ
  Basis Set:
  Basis Set: CC-PVTZ
  Basis Set:
  @DF-RHF Final Energy:  -384.08741822627678
    Total Energy =                       -384.0874182262770660
  Basis Set: CC-PVTZ
  Basis Set:
  Charge       = 0
  Multiplicity = 1
  Basis Set: CC-PVTZ
  Basis Set:

    Orbital Energies (a.u.)
    -----------------------

    Doubly Occupied:

       1A    -20.593770     2A    -20.532095     3A    -11.366041
       4A    -11.279720     5A    -11.231071     6A    -11.224025
       7A    -11.222332     8A    -11.213783     9A     -1.470435
      10A     -1.364503    11A     -1.089084    12A     -1.030453
      13A     -0.981474    14A     -0.882090    15A     -0.808599
      16A     -0.777063    17A     -0.695031    18A     -0.689123
      19A     -0.671410    20A     -0.639386    21A     -0.595240
      22A     -0.594980    23A     -0.571473    24A     -0.561302
      25A     -0.545731    26A     -0.520872    27A     -0.508287
      28A     -0.485483    29A     -0.481827    30A     -0.476814
      31A     -0.456106    32A     -0.440244

  @DF-RHF Final Energy:  -384.08741877049226

   => Energetics <=

    Nuclear Repulsion Energy =            379.5837442316797024
    One-Electron Energy =               -1275.3426302146870057
    Two-Electron Energy =                 511.6714672125150400
    DFT Exchange-Correlation Energy =       0.0000000000000000
    Empirical Dispersion Energy =           0.0000000000000000
    PCM Polarization Energy =               0.0000000000000000
    EFP Energy =                            0.0000000000000000
    Total Energy =                       -384.0874187704922633
    Molecular point group: c1
  Basis Set: CC-PVTZ
  Basis Set:

  -Total Gradient:
     Atom            X                  Y                   Z
    ------   -----------------  -----------------  -----------------
       1       -0.000000378092    -0.000043304572    -0.000014115017
       2        0.000033253715     0.000029219095     0.000028989010
       3        0.000024062572     0.000009616818     0.000011744985
       4       -0.000082569392     0.000001551708    -0.000003795395
       5       -0.000004003376     0.000015310138    -0.000000335196
       6        0.000009219120    -0.000016368289    -0.000002619740
       7        0.000001263071     0.000010746791    -0.000006927176
       8        0.000300624948    -0.002341911073     0.001413483263
       9        0.000329583310     0.000506123559    -0.002124626419
      10       -0.000314942283     0.001846282392    -0.000725966245
      11       -0.000003026581     0.000006179812     0.000004478667
      12       -0.000298320161    -0.000022541444     0.001429118767
      13        0.000003579787    -0.000001748266     0.000002491160
      14       -0.000008363051     0.000001954249    -0.000003407943
      15        0.000012768986    -0.000000140544    -0.000014132753
      16       -0.000006251849    -0.000005279991     0.000006729412
      17        0.000002837661     0.000000392967     0.000000070817
      18       -0.000000098635     0.000000756730    -0.000005742215
      19       -0.000003709300    -0.000003620606     0.000006121183
      20        0.000004469553     0.000006780524    -0.000001559168

  **** Optimization is complete! (in 7 steps) ****
    Final optimized geometry and variables:
    Molecular point group: c1

    Geometry (in Angstrom), charge = 0, multiplicity = 1:

    O           -2.522299953680    -0.389023865188    -0.563403979648
    C           -1.977149941248     0.623061953314    -0.280719547298
    C           -2.657050037271     1.957402359697    -0.158535886467
    O           -0.683181397542     0.711972291426    -0.032458681296
    H           -2.212001557848     2.656603473569    -0.854679678580
    H           -3.709273777942     1.847130823679    -0.364273194812
    H           -2.510856244781     2.349642600982     0.839580138752
    C            0.091466825944    -0.477778431026    -0.114484435124
    C            1.530000011072    -0.114950025631     0.189826912979
    H           -0.013055361540    -0.886747535425    -1.109943087536
    H           -0.295813653855    -1.200095886862     0.590709641039
    C            2.415701862887    -1.348000460588     0.345619793920
    H            1.554267245920     0.466867076979     1.105652999283
    H            1.912356065094     0.525750732763    -0.598190094893
    C            3.873729720518    -0.996544463883     0.620634385395
    H            2.034228079489    -1.963043545168     1.155365655692
    H            2.356617271295    -1.955965113917    -0.553157928898
    H            4.476491798594    -1.889903535651     0.733302014713
    H            3.970166695110    -0.414567579450     1.530958875961
    H            4.295101648994    -0.412632946941    -0.190526260872

  Mulliken Charges: (a.u.)
   Center  Symbol    Alpha    Beta     Spin     Total
       1     O     4.19730  4.19730  0.00000 -0.39460
       2     C     2.81078  2.81078  0.00000  0.37844
       3     C     3.13824  3.13824  0.00000 -0.27648
       4     O     4.15066  4.15066  0.00000 -0.30133
       5     H     0.44589  0.44589  0.00000  0.10822
       6     H     0.43819  0.43819  0.00000  0.12362
       7     H     0.44593  0.44593  0.00000  0.10815
       8     C     2.97961  2.97961  0.00000  0.04078
       9     C     3.08116  3.08116  0.00000 -0.16232
      10     H     0.45280  0.45280  0.00000  0.09440
      11     H     0.45463  0.45463  0.00000  0.09075
      12     C     3.09255  3.09255  0.00000 -0.18509
      13     H     0.45114  0.45114  0.00000  0.09772
      14     H     0.45130  0.45130  0.00000  0.09740
      15     C     3.14959  3.14959  0.00000 -0.29919
      16     H     0.45219  0.45219  0.00000  0.09561
      17     H     0.45298  0.45298  0.00000  0.09404
      18     H     0.44702  0.44702  0.00000  0.10597
      19     H     0.45403  0.45403  0.00000  0.09193
      20     H     0.45401  0.45401  0.00000  0.09199

   Total alpha = 32.00000, Total beta = 32.00000, Total charge =  0.00000

*** Psi4 exiting successfully. Buy a developer a beer!
