  ==> Input File <==

--------------------------------------------------------------------------
set {
	reference rhf
	basis cc-pvtz
}

set_num_threads( 4 )
memory 2 gb

molecule MOL {
0 1

H	 -1.835082	 1.385983	 0.000069
C	 -1.300516	 0.441153	 -0.000028
O	 -0.006604	 0.654344	 -0.000106
O	 -1.828920	 -0.612308	 0.000113
C	 0.611477	 0.978297	 1.242011
C	 2.086535	 1.175881	 0.985365
H	 0.432255	 0.174199	 1.941485
H	 0.151938	 1.872704	 1.638019
H	 2.532476	 0.274039	 0.585631
H	 2.587615	 1.424375	 1.913279
H	 2.250752	 1.981069	 0.280614

	symmetry c1
}
set optking {
	frozen_dihedral = ("
		5 3 2 4
	")
}

ee = optimize('scf')
oeprop('DIPOLE', 'QUADRUPOLE', 'MULLIKEN_CHARGES')
f=open( 'psi4out.xyz', 'w' )
f.write( "11  " )
f.write( str(ee) + "\n" )
f.write( MOL.save_string_xyz() )
f.close()
--------------------------------------------------------------------------

    Molecular point group: c1
  Charge       = 0
  Multiplicity = 1
  Basis Set: CC-PVTZ
  Basis Set:
  @DF-RHF Final Energy:  -266.91204167299520
    Total Energy =                       -266.9120416729951444
    Molecular point group: c1
  Basis Set: CC-PVTZ
  Basis Set:
  Basis Set: CC-PVTZ
  Basis Set:
  @DF-RHF Final Energy:  -266.91306578164608
    Total Energy =                       -266.9130657816460825
  Basis Set: CC-PVTZ
  Basis Set:
  Basis Set: CC-PVTZ
  Basis Set:
  @DF-RHF Final Energy:  -266.91174584255498
    Total Energy =                       -266.9117458425550353
  Basis Set: CC-PVTZ
  Basis Set:
  Basis Set: CC-PVTZ
  Basis Set:
  @DF-RHF Final Energy:  -266.91336039019814
    Total Energy =                       -266.9133603901982497
  Basis Set: CC-PVTZ
  Basis Set:
  Basis Set: CC-PVTZ
  Basis Set:
  @DF-RHF Final Energy:  -266.91338356239794
    Total Energy =                       -266.9133835623981668
  Basis Set: CC-PVTZ
  Basis Set:
  Basis Set: CC-PVTZ
  Basis Set:
  @DF-RHF Final Energy:  -266.91338488676161
    Total Energy =                       -266.9133848867617758
  Basis Set: CC-PVTZ
  Basis Set:
  Charge       = 0
  Multiplicity = 1
  Basis Set: CC-PVTZ
  Basis Set:

    Orbital Energies (a.u.)
    -----------------------

    Doubly Occupied:

       1A    -20.586808     2A    -20.560332     3A    -11.373888
       4A    -11.300951     5A    -11.227889     6A     -1.470712
       7A     -1.383306     8A     -1.050323     9A     -0.887551
      10A     -0.832504    11A     -0.743644    12A     -0.693697
      13A     -0.650752    14A     -0.641048    15A     -0.565368
      16A     -0.543433    17A     -0.537496    18A     -0.507849
      19A     -0.467916    20A     -0.457394

  @DF-RHF Final Energy:  -266.91338671094530

   => Energetics <=

    Nuclear Repulsion Energy =            177.2337275559183922
    One-Electron Energy =                -715.3285105697673316
    Two-Electron Energy =                 271.1813963029037495
    DFT Exchange-Correlation Energy =       0.0000000000000000
    Empirical Dispersion Energy =           0.0000000000000000
    PCM Polarization Energy =               0.0000000000000000
    EFP Energy =                            0.0000000000000000
    Total Energy =                       -266.9133867109451330
    Molecular point group: c1
  Basis Set: CC-PVTZ
  Basis Set:

  -Total Gradient:
     Atom            X                  Y                   Z
    ------   -----------------  -----------------  -----------------
       1       -0.000017266321    -0.000021450852    -0.000013584134
       2        0.000036933919    -0.000951709313    -0.002948911756
       3       -0.000182819236     0.002360356938     0.000551601576
       4       -0.000014323401     0.000159512506     0.002099388391
       5        0.000167810005    -0.001546642338     0.000295462205
       6        0.000018701975    -0.000000159760     0.000014012779
       7       -0.000005983987    -0.000005677569    -0.000014390089
       8       -0.000000291211     0.000008713105     0.000015121780
       9       -0.000000987348    -0.000000234177    -0.000000975247
      10        0.000003842319    -0.000001083730     0.000000985995
      11       -0.000005616724    -0.000001624814     0.000001288500

  **** Optimization is complete! (in 7 steps) ****
    Final optimized geometry and variables:
    Molecular point group: c1

    Geometry (in Angstrom), charge = 0, multiplicity = 1:

    H           -1.764852148849     0.879226173300    -0.498669326619
    C           -1.224585143742    -0.066333817727    -0.451233139341
    O            0.102831605493     0.085719622905    -0.465483700923
    O           -1.767106650595    -1.102764425080    -0.405171491241
    C            0.705683331997     0.428491328087     0.773916652132
    C            2.178595619237     0.659825363704     0.536383131753
    H            0.545379399669    -0.381292961566     1.475250000497
    H            0.234448403099     1.323094999648     1.171497400241
    H            2.640753244673    -0.232414921305     0.135194708436
    H            2.666357216263     0.913212380429     1.470156376643
    H            2.329476752360     1.470838392083    -0.164258805113

  Mulliken Charges: (a.u.)
   Center  Symbol    Alpha    Beta     Spin     Total
       1     H     0.46753  0.46753  0.00000  0.06495
       2     C     2.83883  2.83883  0.00000  0.32234
       3     O     4.15614  4.15614  0.00000 -0.31228
       4     O     4.16260  4.16260  0.00000 -0.32519
       5     C     2.96840  2.96840  0.00000  0.06320
       6     C     3.13365  3.13365  0.00000 -0.26730
       7     H     0.45539  0.45539  0.00000  0.08921
       8     H     0.46649  0.46649  0.00000  0.06702
       9     H     0.44562  0.44562  0.00000  0.10876
      10     H     0.45580  0.45580  0.00000  0.08840
      11     H     0.44955  0.44955  0.00000  0.10090

   Total alpha = 20.00000, Total beta = 20.00000, Total charge = -0.00000
