  ==> Input File <==

--------------------------------------------------------------------------
set {
	reference rhf
	basis 6-31G*
}

set_num_threads( 4 )
memory 2 gb

molecule MOL {
0 1

O	 -2.821601	 1.309235	 -0.001213
C	 -2.668563	 0.129746	 -0.000350
C	 -3.801572	 -0.864014	 -0.000442
O	 -1.481751	 -0.454642	 0.000584
H	 -4.417280	 -0.689587	 -0.874708
H	 -3.443784	 -1.883046	 -0.000565
H	 -4.417179	 -0.689832	 0.873954
C	 -0.334255	 0.388708	 0.000906
C	 0.891947	 -0.504646	 0.000751
H	 -0.365390	 1.025305	 -0.873475
H	 -0.365484	 1.024911	 0.875569
C	 0.646083	 -1.819979	 -0.740816
H	 1.180335	 -0.705267	 1.028867
H	 1.717658	 0.032458	 -0.457703
C	 1.871331	 -2.735933	 -0.751785
H	 -0.189473	 -2.345652	 -0.281907
H	 0.347781	 -1.609171	 -1.766320
C	 1.625289	 -4.050246	 -1.491320
H	 2.170562	 -2.947898	 0.272230
H	 2.706634	 -2.213034	 -1.212127
H	 0.816651	 -4.612647	 -1.033255
H	 2.511050	 -4.677599	 -1.481800
H	 1.357094	 -3.872288	 -2.528823

	symmetry c1
}
set optking {
	frozen_dihedral = ("
		13 9 8 10
	")
}

ee = optimize('scf')
oeprop('DIPOLE', 'QUADRUPOLE', 'MULLIKEN_CHARGES')
f=open( 'psi4out.xyz', 'w' )
f.write( "23  " )
f.write( str(ee) + "\n" )
f.write( MOL.save_string_xyz() )
f.close()
--------------------------------------------------------------------------

    Molecular point group: c1
  Charge       = 0
  Multiplicity = 1
  Basis Set: 6-31G*
  Basis Set:
  @DF-RHF Final Energy:  -422.97356395793560
    Total Energy =                       -422.9735639579353119
    Molecular point group: c1
  Basis Set: 6-31G*
  Basis Set:
  Basis Set: 6-31G*
  Basis Set:
  @DF-RHF Final Energy:  -422.97475592758661
    Total Energy =                       -422.9747559275867843
  Basis Set: 6-31G*
  Basis Set:
  Basis Set: 6-31G*
  Basis Set:
  @DF-RHF Final Energy:  -422.97578877804688
    Total Energy =                       -422.9757887780466490
  Basis Set: 6-31G*
  Basis Set:
  Basis Set: 6-31G*
  Basis Set:
  @DF-RHF Final Energy:  -422.97559410374186
    Total Energy =                       -422.9755941037419689
  Basis Set: 6-31G*
  Basis Set:
  Basis Set: 6-31G*
  Basis Set:
  @DF-RHF Final Energy:  -422.97586354863068
    Total Energy =                       -422.9758635486301728
  Basis Set: 6-31G*
  Basis Set:
  Basis Set: 6-31G*
  Basis Set:
  @DF-RHF Final Energy:  -422.97588772279533
    Total Energy =                       -422.9758877227948233
  Basis Set: 6-31G*
  Basis Set:
  Basis Set: 6-31G*
  Basis Set:
  @DF-RHF Final Energy:  -422.97588902990236
    Total Energy =                       -422.9758890299015093
  Basis Set: 6-31G*
  Basis Set:
  Charge       = 0
  Multiplicity = 1
  Basis Set: 6-31G*
  Basis Set:

    Orbital Energies (a.u.)
    -----------------------

    Doubly Occupied:

       1A    -20.604397     2A    -20.541734     3A    -11.375261
       4A    -11.282207     5A    -11.233324     6A    -11.225706
       7A    -11.218740     8A    -11.217559     9A    -11.211026
      10A     -1.469408    11A     -1.362142    12A     -1.090102
      13A     -1.040863    14A     -1.002634    15A     -0.931279
      16A     -0.843966    17A     -0.806237    18A     -0.767637
      19A     -0.688797    20A     -0.686408    21A     -0.667364
      22A     -0.643020    23A     -0.605886    24A     -0.587820
      25A     -0.579789    26A     -0.567531    27A     -0.559913
      28A     -0.530666    29A     -0.527173    30A     -0.514369
      31A     -0.490124    32A     -0.474025    33A     -0.466782
      34A     -0.458267    35A     -0.446511    36A     -0.438173

  @DF-RHF Final Energy:  -422.97588908907517

   => Energetics <=

    Nuclear Repulsion Energy =            459.3802209064775752
    One-Electron Energy =               -1486.3985439437601599
    Two-Electron Energy =                 604.0424339482076448
    DFT Exchange-Correlation Energy =       0.0000000000000000
    Empirical Dispersion Energy =           0.0000000000000000
    PCM Polarization Energy =               0.0000000000000000
    EFP Energy =                            0.0000000000000000
    Total Energy =                       -422.9758890890750536
    Molecular point group: c1
  Basis Set: 6-31G*
  Basis Set:

  -Total Gradient:
     Atom            X                  Y                   Z
    ------   -----------------  -----------------  -----------------
       1       -0.000004354173     0.000004856131    -0.000004831022
       2        0.000005208872    -0.000009957345    -0.000004774549
       3       -0.000000682385     0.000002792874     0.000009584917
       4       -0.000025571912    -0.000008733145    -0.000027591681
       5        0.000002210668     0.000000271344    -0.000000828147
       6        0.000000128733     0.000000392475    -0.000000162489
       7       -0.000002921053    -0.000000888763    -0.000000621637
       8       -0.003148216660    -0.004311600514    -0.003732629960
       9       -0.003754411410    -0.004812341430     0.000910145104
      10        0.003218432708     0.004351184113     0.002983598024
      11        0.000010477226    -0.000005399107    -0.000006064298
      12       -0.000001342450    -0.000005441797    -0.000001445932
      13        0.003702440992     0.004813683246    -0.000101848689
      14       -0.000010084558    -0.000012164027    -0.000017804631
      15       -0.000003705259    -0.000008731622     0.000008492230
      16        0.000015475119    -0.000002793537    -0.000005335151
      17       -0.000005948037     0.000006081804    -0.000007836109
      18        0.000000118571     0.000001948611    -0.000000442158
      19        0.000006240049     0.000002581671     0.000003269893
      20       -0.000003165184    -0.000004180972    -0.000004263900
      21        0.000000079055    -0.000000039496     0.000000325544
      22       -0.000000094441    -0.000000510943     0.000000607764
      23       -0.000000314473    -0.000001009569     0.000000456877

  **** Optimization is complete! (in 8 steps) ****
    Final optimized geometry and variables:
    Molecular point group: c1

    Geometry (in Angstrom), charge = 0, multiplicity = 1:

    O           -2.101106241947     2.348811562830     0.270921872349
    C           -2.029347723533     1.164077361318     0.343569679148
    C           -3.227579540408     0.253073477288     0.417091818751
    O           -0.885152946641     0.499657863897     0.368941547926
    H           -3.842706643705     0.416068653675    -0.459752667826
    H           -2.940896683198    -0.786539294343     0.476239491419
    H           -3.816725838759     0.522575584010     1.285494847635
    C            0.314321795715     1.259288409594     0.304676483345
    C            1.521361538725     0.327949353145     0.361790367991
    H            0.322754782608     1.868109283047    -0.589586574204
    H            0.330032465168     1.949198388135     1.138304785264
    C            1.378094782782    -0.978350335200    -0.418731578227
    H            1.794050513824     0.140756240848     1.396917840363
    H            2.358353303532     0.892892613972    -0.045420701978
    C            2.670731407282    -1.796316333003    -0.434942515982
    H            0.578231097865    -1.572463531958     0.010109459179
    H            1.079037871763    -0.755182419368    -1.441380533563
    C            2.530584616910    -3.112336341749    -1.199054370403
    H            2.977993989270    -2.004711657189     0.587823072116
    H            3.469090719423    -1.205204963232    -0.878659365039
    H            1.764118920398    -3.742408988822    -0.756854256195
    H            3.461381735076    -3.670929339367    -1.194178037720
    H            2.255632199946    -2.936641530454    -2.235240778347

  Mulliken Charges: (a.u.)
   Center  Symbol    Alpha    Beta     Spin     Total
       1     O     4.28340  4.28340  0.00000 -0.56680
       2     C     2.61417  2.61417  0.00000  0.77166
       3     C     3.28770  3.28770  0.00000 -0.57540
       4     O     4.30942  4.30942  0.00000 -0.61884
       5     H     0.39722  0.39722  0.00000  0.20555
       6     H     0.40014  0.40014  0.00000  0.19972
       7     H     0.39728  0.39728  0.00000  0.20545
       8     C     3.00177  3.00177  0.00000 -0.00354
       9     C     3.17240  3.17240  0.00000 -0.34480
      10     H     0.40987  0.40987  0.00000  0.18025
      11     H     0.40867  0.40867  0.00000  0.18267
      12     C     3.14946  3.14946  0.00000 -0.29891
      13     H     0.41560  0.41560  0.00000  0.16879
      14     H     0.41818  0.41818  0.00000  0.16365
      15     C     3.15326  3.15326  0.00000 -0.30652
      16     H     0.41247  0.41247  0.00000  0.17505
      17     H     0.42264  0.42264  0.00000  0.15471
      18     C     3.23922  3.23922  0.00000 -0.47844
      19     H     0.42251  0.42251  0.00000  0.15498
      20     H     0.42318  0.42318  0.00000  0.15365
      21     H     0.42126  0.42126  0.00000  0.15747
      22     H     0.41883  0.41883  0.00000  0.16235
      23     H     0.42135  0.42135  0.00000  0.15729

   Total alpha = 36.00000, Total beta = 36.00000, Total charge = -0.00000
