  ==> Input File <==

--------------------------------------------------------------------------
set {
	reference rhf
	basis 6-31G*
}

set_num_threads( 4 )
memory 2 gb

molecule MOL {
0 1

H	 -4.215606	 0.219666	 0.384429
O	 -3.517110	 -0.026191	 -0.205115
C	 -2.306886	 0.532354	 0.237577
C	 -1.177863	 -0.397191	 -0.171080
H	 -2.156308	 1.517575	 -0.201710
H	 -2.315015	 0.655684	 1.319734
C	 0.198102	 0.111031	 0.262842
H	 -1.208843	 -0.518759	 -1.250427
H	 -1.368741	 -1.376554	 0.258909
C	 1.331804	 -0.827780	 -0.158768
H	 0.361943	 1.100838	 -0.156218
H	 0.217265	 0.229072	 1.345532
C	 2.723619	 -0.410569	 0.329459
H	 1.342964	 -0.912588	 -1.244120
H	 1.116806	 -1.824343	 0.220779
C	 3.243875	 0.895854	 -0.272975
H	 3.424222	 -1.207124	 0.091250
H	 2.714788	 -0.329854	 1.414619
H	 3.251977	 0.848779	 -1.358681
H	 2.637085	 1.747371	 0.016682
H	 4.259473	 1.094070	 0.055697

	symmetry c1
}
set optking {
	frozen_dihedral = ("
		1 2 3 5
	")
}

ee = optimize('scf')
oeprop('DIPOLE', 'QUADRUPOLE', 'MULLIKEN_CHARGES')
f=open( 'psi4out.xyz', 'w' )
f.write( "21  " )
f.write( str(ee) + "\n" )
f.write( MOL.save_string_xyz() )
f.close()
--------------------------------------------------------------------------

    Molecular point group: c1
  Charge       = 0
  Multiplicity = 1
  Basis Set: 6-31G*
  Basis Set:
  @DF-RHF Final Energy:  -310.21173377996189
    Total Energy =                       -310.2117337799618326
    Molecular point group: c1
  Basis Set: 6-31G*
  Basis Set:
  Basis Set: 6-31G*
  Basis Set:
  @DF-RHF Final Energy:  -310.21178606700448
    Total Energy =                       -310.2117860670044251
  Basis Set: 6-31G*
  Basis Set:
  Basis Set: 6-31G*
  Basis Set:
  @DF-RHF Final Energy:  -310.21180698087130
    Total Energy =                       -310.2118069808715290
  Basis Set: 6-31G*
  Basis Set:
  Charge       = 0
  Multiplicity = 1
  Basis Set: 6-31G*
  Basis Set:

    Orbital Energies (a.u.)
    -----------------------

    Doubly Occupied:

       1A    -20.551110     2A    -11.267234     3A    -11.215557
       4A    -11.215167     5A    -11.213611     6A    -11.210250
       7A    -11.208076     8A     -1.357787     9A     -1.086144
      10A     -1.033049    11A     -0.954363    12A     -0.875886
      13A     -0.807618    14A     -0.778877    15A     -0.696015
      16A     -0.656971    17A     -0.620331    18A     -0.609367
      19A     -0.585851    20A     -0.567455    21A     -0.539380
      22A     -0.521211    23A     -0.506777    24A     -0.491449
      25A     -0.475764    26A     -0.460342    27A     -0.455878
      28A     -0.451364    29A     -0.426717

  @DF-RHF Final Energy:  -310.21180659898295

   => Energetics <=

    Nuclear Repulsion Energy =            312.3539511221662792
    One-Electron Energy =               -1039.4523070947716405
    Two-Electron Energy =                 416.8865493736228132
    DFT Exchange-Correlation Energy =       0.0000000000000000
    Empirical Dispersion Energy =           0.0000000000000000
    PCM Polarization Energy =               0.0000000000000000
    EFP Energy =                            0.0000000000000000
    Total Energy =                       -310.2118065989824913
    Molecular point group: c1
  Basis Set: 6-31G*
  Basis Set:

  -Total Gradient:
     Atom            X                  Y                   Z
    ------   -----------------  -----------------  -----------------
       1        0.000319560278    -0.001514999793     0.000930384824
       2       -0.000128788575     0.001685920968    -0.001463552271
       3       -0.000904699499     0.000574513415     0.001712933713
       4       -0.000006051475    -0.000002970954     0.000001427557
       5        0.000770293517    -0.000634528069    -0.001201271965
       6       -0.000004612602    -0.000054007047    -0.000041301859
       7       -0.000041857291     0.000004718155     0.000041514167
       8       -0.000008781545    -0.000031740777    -0.000008617995
       9        0.000012796110    -0.000011044513     0.000020804657
      10       -0.000002919772    -0.000003768187    -0.000029268534
      11       -0.000016868572    -0.000005298196     0.000028760591
      12        0.000013239898    -0.000011226778     0.000035855181
      13        0.000001992778     0.000011190065    -0.000029921356
      14       -0.000006925387    -0.000020050592    -0.000007457229
      15        0.000021144442     0.000015460446     0.000011259090
      16        0.000003562877     0.000000239220     0.000001837881
      17       -0.000000727550    -0.000003940309    -0.000000403360
      18       -0.000009119327     0.000001183601    -0.000004401732
      19       -0.000000346804     0.000000355088    -0.000000511061
      20       -0.000011510160    -0.000001302268     0.000003289105
      21        0.000000618654     0.000001296528    -0.000001359404

  **** Optimization is complete! (in 4 steps) ****
    Final optimized geometry and variables:
    Molecular point group: c1

    Geometry (in Angstrom), charge = 0, multiplicity = 1:

    H           -4.230821235738     0.251766038563     0.328474571387
    O           -3.518451864508     0.006863836072    -0.242744665958
    C           -2.307033958310     0.526726304314     0.247519232840
    C           -1.177262993625    -0.405531936584    -0.157895681037
    H           -2.131615089558     1.516761000991    -0.169043588485
    H           -2.337858818553     0.624314797318     1.330678176056
    C            0.199052169291     0.104263821207     0.272912663438
    H           -1.208573128062    -0.527533735659    -1.237384168613
    H           -1.367310018681    -1.385476362250     0.271456006421
    C            1.333841777366    -0.830867048795    -0.153992194692
    H            0.358954353637     1.095191531458    -0.144702594848
    H            0.221943594318     0.220691127936     1.355988669461
    C            2.727123695744    -0.407064468049     0.324307127458
    H            1.338189583290    -0.917664232954    -1.239221455555
    H            1.125483781807    -1.827642523955     0.228770842733
    C            3.238211154810     0.900130661202    -0.284262865596
    H            3.429377044943    -1.201330221442     0.083292135610
    H            2.725006643856    -0.324023444196     1.409354686484
    H            3.239331597299     0.850766630819    -1.369875379537
    H            2.629922944120     1.749821395493     0.007546421857
    H            4.255154284944     1.103068824788     0.037301589809

  Mulliken Charges: (a.u.)
   Center  Symbol    Alpha    Beta     Spin     Total
       1     H     0.28044  0.28044  0.00000  0.43912
       2     O     4.37312  4.37312  0.00000 -0.74624
       3     C     2.99019  2.99019  0.00000  0.01962
       4     C     3.15793  3.15793  0.00000 -0.31587
       5     H     0.42968  0.42968  0.00000  0.14065
       6     H     0.43324  0.43324  0.00000  0.13352
       7     C     3.16227  3.16227  0.00000 -0.32455
       8     H     0.41417  0.41417  0.00000  0.17167
       9     H     0.41761  0.41761  0.00000  0.16478
      10     C     3.15162  3.15162  0.00000 -0.30324
      11     H     0.42090  0.42090  0.00000  0.15819
      12     H     0.42499  0.42499  0.00000  0.15001
      13     C     3.15248  3.15248  0.00000 -0.30495
      14     H     0.42278  0.42278  0.00000  0.15444
      15     H     0.42134  0.42134  0.00000  0.15733
      16     C     3.24118  3.24118  0.00000 -0.48236
      17     H     0.42067  0.42067  0.00000  0.15867
      18     H     0.42375  0.42375  0.00000  0.15249
      19     H     0.42183  0.42183  0.00000  0.15634
      20     H     0.42052  0.42052  0.00000  0.15895
      21     H     0.41928  0.41928  0.00000  0.16144

   Total alpha = 29.00000, Total beta = 29.00000, Total charge =  0.00000
