  ==> Input File <==

--------------------------------------------------------------------------
set {
	reference rhf
	basis cc-pvtz
}

set_num_threads( 4 )
memory 2 gb

molecule MOL {
0 1

H	 -0.132946	 -0.685134	 -0.858375
N	 -0.625934	 -0.663929	 -0.000707
C	 -1.978635	 -0.158664	 0.001017
C	 0.006066	 -1.112754	 1.106412
H	 -2.519057	 -0.493535	 -0.876362
H	 -1.938890	 0.917202	 -0.004137
H	 -2.514266	 -0.485137	 0.884506
C	 1.418771	 -1.600450	 0.871386
O	 -0.501635	 -1.133691	 2.188483
H	 2.034053	 -0.800679	 0.475919
H	 1.831103	 -1.941639	 1.806608
H	 1.424675	 -2.414319	 0.155703

	symmetry c1
}
set optking {
	frozen_dihedral = ("
		4 2 3 5
	")
}

ee = optimize('scf')
oeprop('DIPOLE', 'QUADRUPOLE', 'MULLIKEN_CHARGES')
f=open( 'psi4out.xyz', 'w' )
f.write( "12  " )
f.write( str(ee) + "\n" )
f.write( MOL.save_string_xyz() )
f.close()
--------------------------------------------------------------------------

    Molecular point group: c1
  Charge       = 0
  Multiplicity = 1
  Basis Set: CC-PVTZ
  Basis Set:
  @DF-RHF Final Energy:  -247.10032340948763
    Total Energy =                       -247.1003234094876007
    Molecular point group: c1
  Basis Set: CC-PVTZ
  Basis Set:
  Basis Set: CC-PVTZ
  Basis Set:
  @DF-RHF Final Energy:  -247.10088904558083
    Total Energy =                       -247.1008890455808569
  Basis Set: CC-PVTZ
  Basis Set:
  Basis Set: CC-PVTZ
  Basis Set:
  @DF-RHF Final Energy:  -247.10089759665874
    Total Energy =                       -247.1008975966589105
  Basis Set: CC-PVTZ
  Basis Set:
  Basis Set: CC-PVTZ
  Basis Set:
  @DF-RHF Final Energy:  -247.10100178464151
    Total Energy =                       -247.1010017846413689
  Basis Set: CC-PVTZ
  Basis Set:
  @DF-RHF Final Energy:  -247.10104727176432
    Total Energy =                       -247.1010472717644006
  @DF-RHF Final Energy:  -247.10105872410369
    Total Energy =                       -247.1010587241036092
  Basis Set: CC-PVTZ
  Basis Set:
  @DF-RHF Final Energy:  -247.10106469507733
    Total Energy =                       -247.1010646950775254
  Basis Set: CC-PVTZ
  Basis Set:
  Basis Set: CC-PVTZ
  Basis Set:
  @DF-RHF Final Energy:  -247.10106916842096
    Total Energy =                       -247.1010691684207927
  Basis Set: CC-PVTZ
  Basis Set:
  Basis Set: CC-PVTZ
  Basis Set:
  @DF-RHF Final Energy:  -247.10107339755459
    Total Energy =                       -247.1010733975547282
  Basis Set: CC-PVTZ
  Basis Set:
  Charge       = 0
  Multiplicity = 1
  Basis Set: CC-PVTZ
  Basis Set:

    Orbital Energies (a.u.)
    -----------------------

    Doubly Occupied:

       1A    -20.506931     2A    -15.574770     3A    -11.336567
       4A    -11.252718     5A    -11.228088     6A     -1.388672
       7A     -1.230918     8A     -1.016643     9A     -0.932855
      10A     -0.788230    11A     -0.690866    12A     -0.651591
      13A     -0.635566    14A     -0.586495    15A     -0.582982
      16A     -0.555896    17A     -0.545332    18A     -0.510583
      19A     -0.417550    20A     -0.389617

  @DF-RHF Final Energy:  -247.10107397794468

   => Energetics <=

    Nuclear Repulsion Energy =            181.6799021469767013
    One-Electron Energy =                -695.9162046974481655
    Two-Electron Energy =                 267.1352285725265574
    DFT Exchange-Correlation Energy =       0.0000000000000000
    Empirical Dispersion Energy =           0.0000000000000000
    PCM Polarization Energy =               0.0000000000000000
    EFP Energy =                            0.0000000000000000
    Total Energy =                       -247.1010739779449068
    Molecular point group: c1
  Basis Set: CC-PVTZ
  Basis Set:

  -Total Gradient:
     Atom            X                  Y                   Z
    ------   -----------------  -----------------  -----------------
       1        0.000005327612     0.000024964676     0.000003451861
       2        0.000101359210     0.000209060704     0.000090685956
       3        0.000045940574     0.000137916808    -0.000169910470
       4       -0.000079841467    -0.000191524320    -0.000055659516
       5       -0.000076453217    -0.000176017072     0.000119919385
       6       -0.000009204784     0.000001989514    -0.000005104885
       7        0.000008945915     0.000001144880    -0.000004121193
       8        0.000029560417     0.000065092718     0.000021999557
       9       -0.000009931639    -0.000025351981     0.000011387196
      10        0.000008638458    -0.000026057437    -0.000024960409
      11        0.000001076294    -0.000001238898    -0.000000912021
      12       -0.000025417375    -0.000019979591     0.000013224540

  **** Optimization is complete! (in 10 steps) ****
    Final optimized geometry and variables:
    Molecular point group: c1

    Geometry (in Angstrom), charge = 0, multiplicity = 1:

    H            0.225484773651     0.268570220971    -1.681699418212
    N           -0.285580353940     0.239951347801    -0.834865178479
    C           -1.623805074868     0.782519707250    -0.821670017686
    C            0.350350441399    -0.187603696010     0.278600220810
    H           -2.175640452774     0.424336623583    -1.681030183722
    H           -1.620661110308     1.866884042533    -0.835728539918
    H           -2.120834326567     0.453080926708     0.075313439488
    C            1.765824064665    -0.671750732946     0.052447029904
    O           -0.159860425623    -0.193251186008     1.359508885402
    H            2.382653632702     0.132512030131    -0.331924081019
    H            2.171401386108    -1.017121314901     0.989190997663
    H            1.780092060738    -1.480336173535    -0.668844345620

  Mulliken Charges: (a.u.)
   Center  Symbol    Alpha    Beta     Spin     Total
       1     H     0.41087  0.41087  0.00000  0.17826
       2     N     3.62093  3.62093  0.00000 -0.24185
       3     C     3.08398  3.08398  0.00000 -0.16797
       4     C     2.83691  2.83691  0.00000  0.32617
       5     H     0.45491  0.45491  0.00000  0.09017
       6     H     0.45682  0.45682  0.00000  0.08635
       7     H     0.43310  0.43310  0.00000  0.13381
       8     C     3.15377  3.15377  0.00000 -0.30754
       9     O     4.21523  4.21523  0.00000 -0.43045
      10     H     0.45022  0.45022  0.00000  0.09955
      11     H     0.43354  0.43354  0.00000  0.13291
      12     H     0.44971  0.44971  0.00000  0.10058

   Total alpha = 20.00000, Total beta = 20.00000, Total charge = -0.00000
