                              Psi4 1.0.54 Driver

  ==> Input File <==

--------------------------------------------------------------------------
set {
	reference rhf
	basis cc-pvtz
}

set_num_threads( 4 )
memory 2 gb

molecule MOL {
0 1

O	 1.847685	 1.294399	 -0.000190
C	 1.704209	 0.119472	 -0.000093
C	 0.380337	 -0.600947	 -0.000234
O	 2.715427	 -0.733672	 0.000025
C	 -0.824290	 0.329213	 -0.000115
H	 0.371455	 -1.255476	 -0.865660
H	 0.371410	 -1.255787	 0.864952
C	 -2.146151	 -0.432825	 -0.000068
H	 -0.773936	 0.979158	 -0.866319
H	 -0.773838	 0.979034	 0.866186
C	 -3.366283	 0.483552	 0.000557
H	 -2.189286	 -1.084450	 -0.869996
H	 -2.188867	 -1.085083	 0.869399
C	 -3.161456	 1.753240	 0.819916
H	 -4.222771	 -0.061196	 0.387643
H	 -3.613658	 0.750797	 -1.022940
H	 -2.946125	 1.519517	 1.857336
H	 -4.045296	 2.380251	 0.799442
H	 -2.332448	 2.338133	 0.435364
C	 4.020999	 -0.192556	 0.000019
H	 4.182809	 0.412891	 -0.879449
H	 4.692590	 -1.035653	 0.000152
H	 4.182726	 0.413087	 0.879368

	symmetry c1
}
set optking {
	frozen_dihedral = ("
		15 11 8 12
	")
}

ee,wfn = optimize('scf', return_wfn=True)
oeprop( wfn, 'DIPOLE', 'QUADRUPOLE', 'MULLIKEN_CHARGES')
f=open( 'psi4out.xyz', 'w' )
f.write( "23  " )
f.write( str(ee) + "\n" )
f.write( MOL.save_string_xyz() )
f.close()
--------------------------------------------------------------------------

    Molecular point group: c1
  Charge       = 0
  Multiplicity = 1
  Basis Set: CC-PVTZ
  Basis Set:
  @DF-RHF Final Energy:  -423.12432725070181
    Total Energy =                       -423.1243272507012989
    Molecular point group: c1
  Basis Set: CC-PVTZ
  Basis Set:
  Basis Set: CC-PVTZ
  Basis Set:
  @DF-RHF Final Energy:  -423.09885920288099
    Total Energy =                       -423.0988592028813855
  Basis Set: CC-PVTZ
  Basis Set:
  Basis Set: CC-PVTZ
  Basis Set:
  @DF-RHF Final Energy:  -423.12552191003169
    Total Energy =                       -423.1255219100314662
  Basis Set: CC-PVTZ
  Basis Set:
  Basis Set: CC-PVTZ
  Basis Set:
  @DF-RHF Final Energy:  -423.12643088478990
    Total Energy =                       -423.1264308847893290
  Basis Set: CC-PVTZ
  Basis Set:
  @DF-RHF Final Energy:  -423.12647020345759
    Total Energy =                       -423.1264702034573020
  Basis Set: CC-PVTZ
  Basis Set:
  @DF-RHF Final Energy:  -423.12639337688142
    Total Energy =                       -423.1263933768817651
  Basis Set: CC-PVTZ
  Basis Set:
  Basis Set: CC-PVTZ
  Basis Set:
  @DF-RHF Final Energy:  -423.12651791340505
    Total Energy =                       -423.1265179134053369
  Basis Set: CC-PVTZ
  Basis Set:
  Basis Set: CC-PVTZ
  Basis Set:
  @DF-RHF Final Energy:  -423.12652080209881
    Total Energy =                       -423.1265208020986393
  Basis Set: CC-PVTZ
  Basis Set:
  Charge       = 0
  Multiplicity = 1
  Basis Set: CC-PVTZ
  Basis Set:

    Orbital Energies (a.u.)
    -----------------------

    Doubly Occupied:

       1A    -20.596201     2A    -20.533998     3A    -11.364401
       4A    -11.278402     5A    -11.233463     6A    -11.216615
       7A    -11.215998     8A    -11.215090     9A    -11.205267
      10A     -1.472082    11A     -1.365632    12A     -1.093672
      13A     -1.042021    14A     -0.985596    15A     -0.931325
      16A     -0.858745    17A     -0.780682    18A     -0.767488
      19A     -0.698698    20A     -0.686612    21A     -0.675999
      22A     -0.649136    23A     -0.612253    24A     -0.598396
      25A     -0.591798    26A     -0.560406    27A     -0.535502
      28A     -0.526530    29A     -0.519771    30A     -0.517057
      31A     -0.492952    32A     -0.464704    33A     -0.463296
      34A     -0.459153    35A     -0.457007    36A     -0.438101

  @DF-RHF Final Energy:  -423.12652090910530

   => Energetics <=

    Nuclear Repulsion Energy =            458.9702109086983342
    One-Electron Energy =               -1485.9853586033261763
    Two-Electron Energy =                 603.8886267855222059
    DFT Exchange-Correlation Energy =       0.0000000000000000
    Empirical Dispersion Energy =           0.0000000000000000
    PCM Polarization Energy =               0.0000000000000000
    EFP Energy =                            0.0000000000000000
    Total Energy =                       -423.1265209091055794
    Molecular point group: c1
  Basis Set: CC-PVTZ
  Basis Set:

  -Total Gradient:
     Atom            X                  Y                   Z
    ------   -----------------  -----------------  -----------------
       1       -0.000006115089    -0.000007116354    -0.000005303218
       2        0.000023836228    -0.000008749551     0.000005607224
       3        0.000001724911    -0.000000124264     0.000011014716
       4       -0.000023042256     0.000006340412     0.000000184277
       5       -0.000004182971     0.000003064364    -0.000010348504
       6       -0.000003894003     0.000001414719     0.000002703948
       7        0.000000525297     0.000000885602    -0.000008506707
       8       -0.001940041044    -0.005428411226     0.004289823432
       9        0.000001640006    -0.000002771836     0.000007114913
      10        0.000004836727    -0.000008741241    -0.000012115139
      11       -0.000552149053    -0.000705688046    -0.007148966177
      12        0.001725254977     0.004725305880    -0.002531062310
      13        0.000002749788    -0.000007365101    -0.000001899133
      14        0.000002831316    -0.000006802895     0.000004476223
      15        0.000771479022     0.001452377753     0.005396521708
      16       -0.000002601081    -0.000008622148    -0.000008497654
      17       -0.000007136607     0.000009058930     0.000007810052
      18        0.000013983965    -0.000006768523    -0.000000940011
      19       -0.000008792053    -0.000013072719     0.000000779364
      20       -0.000001812645     0.000003871246     0.000002809227
      21        0.000006505975    -0.000002818304     0.000006690130
      22       -0.000011975596     0.000004081109     0.000000592522
      23        0.000006374188     0.000000652191    -0.000008488883

  **** Optimization is complete! (in 9 steps) ****
    Final optimized geometry and variables:
    Molecular point group: c1

    Geometry (in Angstrom), charge = 0, multiplicity = 1:

    O            1.409691518930     1.438915896533     0.010266887503
    C            1.532258082472     0.272810583219    -0.152151071856
    C            0.406644045921    -0.728651714216    -0.194555623873
    O            2.705245492130    -0.315197277765    -0.322060345224
    C           -0.971493776514    -0.109902311286    -0.007208464043
    H            0.479150332111    -1.252477335396    -1.141973571037
    H            0.610184888426    -1.472042188512     0.569473483894
    C           -2.075908259042    -1.167332085199    -0.046238097059
    H           -1.138142176819     0.628822465141    -0.783785949557
    H           -0.988544713953     0.429087441556     0.930599925234
    C           -3.508051004700    -0.613376968541     0.005920511190
    H           -1.959237343264    -1.711542727789    -0.979387071048
    H           -1.924436714818    -1.873635648164     0.764748737558
    C           -3.727155616530     0.538173674423     0.987893242366
    H           -4.168157482876    -1.417464514346     0.315106851264
    H           -3.816582892744    -0.299939980344    -0.985724109605
    H           -3.417972495398     0.263979557689     1.991606219623
    H           -4.778154415398     0.800222194332     1.029696817616
    H           -3.179691801744     1.428314341635     0.705034274441
    C            3.853029053211     0.509014470377    -0.304719414759
    H            3.806553689915     1.244355327453    -1.094240584253
    H            4.693677837804    -0.148143417129    -0.457394965010
    H            3.944044157739     1.016352586354     0.644256415188

  Mulliken Charges: (a.u.)
   Center  Symbol    Alpha    Beta     Spin     Total
       1     O     4.19723  4.19723  0.00000 -0.39447
       2     C     2.80594  2.80594  0.00000  0.38811
       3     C     3.10352  3.10352  0.00000 -0.20704
       4     O     4.14627  4.14627  0.00000 -0.29254
       5     C     3.08647  3.08647  0.00000 -0.17294
       6     H     0.43924  0.43924  0.00000  0.12153
       7     H     0.44013  0.44013  0.00000  0.11973
       8     C     3.09892  3.09892  0.00000 -0.19784
       9     H     0.44584  0.44584  0.00000  0.10832
      10     H     0.44327  0.44327  0.00000  0.11346
      11     C     3.08835  3.08835  0.00000 -0.17671
      12     H     0.45238  0.45238  0.00000  0.09523
      13     H     0.45224  0.45224  0.00000  0.09552
      14     C     3.15751  3.15751  0.00000 -0.31501
      15     H     0.45040  0.45040  0.00000  0.09921
      16     H     0.45159  0.45159  0.00000  0.09682
      17     H     0.45434  0.45434  0.00000  0.09132
      18     H     0.44555  0.44555  0.00000  0.10890
      19     H     0.44890  0.44890  0.00000  0.10220
      20     C     3.03776  3.03776  0.00000 -0.07551
      21     H     0.45441  0.45441  0.00000  0.09118
      22     H     0.44539  0.44539  0.00000  0.10923
      23     H     0.45435  0.45435  0.00000  0.09130

   Total alpha = 36.00000, Total beta = 36.00000, Total charge =  0.00000

*** Psi4 exiting successfully. Buy a developer a beer!
