                              Psi4 1.0.54 Driver

  ==> Input File <==

--------------------------------------------------------------------------
set {
	reference rhf
	basis cc-pvtz
}

set_num_threads( 4 )
memory 2 gb

molecule MOL {
0 1

H	 -3.162190	 0.493205	 -0.000107
C	 -2.363908	 -0.234727	 0.000005
O	 -1.158738	 0.454634	 -0.000087
H	 -2.464314	 -0.863616	 -0.882153
H	 -2.464327	 -0.863359	 0.882345
C	 -0.039473	 -0.340737	 -0.234494
C	 1.203169	 0.526204	 -0.209074
H	 -0.130376	 -0.838874	 -1.200017
H	 0.030722	 -1.120375	 0.524374
C	 2.476651	 -0.273985	 -0.458660
H	 1.097521	 1.303376	 -0.957919
H	 1.257359	 1.024062	 0.752775
H	 2.453778	 -0.761462	 -1.427644
H	 3.347779	 0.369137	 -0.435199
H	 2.614841	 -1.042434	 0.294638

	symmetry c1
}
set optking {
	frozen_dihedral = ("
		6 3 2 4
	")
}

ee,wfn = optimize('scf', return_wfn=True)
oeprop( wfn, 'DIPOLE', 'QUADRUPOLE', 'MULLIKEN_CHARGES')
f=open( 'psi4out.xyz', 'w' )
f.write( "15  " )
f.write( str(ee) + "\n" )
f.write( MOL.save_string_xyz() )
f.close()
--------------------------------------------------------------------------

    Molecular point group: c1
  Charge       = 0
  Multiplicity = 1
  Basis Set: CC-PVTZ
  Basis Set:
  @DF-RHF Final Energy:  -232.22794210019086
    Total Energy =                       -232.2279421001906030
    Molecular point group: c1
  Basis Set: CC-PVTZ
  Basis Set:
  Basis Set: CC-PVTZ
  Basis Set:
  @DF-RHF Final Energy:  -232.22795418774561
    Total Energy =                       -232.2279541877455813
  Basis Set: CC-PVTZ
  Basis Set:
  Charge       = 0
  Multiplicity = 1
  Basis Set: CC-PVTZ
  Basis Set:

    Orbital Energies (a.u.)
    -----------------------

    Doubly Occupied:

       1A    -20.547341     2A    -11.264500     3A    -11.261802
       4A    -11.212771     5A    -11.210743     6A     -1.381573
       7A     -1.058455     8A     -0.956143     9A     -0.877423
      10A     -0.809599    11A     -0.676809    12A     -0.655986
      13A     -0.632475    14A     -0.608252    15A     -0.565343
      16A     -0.540929    17A     -0.503706    18A     -0.490771
      19A     -0.478396    20A     -0.462947    21A     -0.416218

  @DF-RHF Final Energy:  -232.22795645573456

   => Energetics <=

    Nuclear Repulsion Energy =            189.9873132528864517
    One-Electron Energy =                -691.2061771946177942
    Two-Electron Energy =                 268.9909074859966722
    DFT Exchange-Correlation Energy =       0.0000000000000000
    Empirical Dispersion Energy =           0.0000000000000000
    PCM Polarization Energy =               0.0000000000000000
    EFP Energy =                            0.0000000000000000
    Total Energy =                       -232.2279564557346703
    Molecular point group: c1
  Basis Set: CC-PVTZ
  Basis Set:

  -Total Gradient:
     Atom            X                  Y                   Z
    ------   -----------------  -----------------  -----------------
       1       -0.000007566482     0.000031702379     0.000007552438
       2       -0.000842959710     0.001427451034    -0.001432447660
       3        0.000367637491    -0.000507445871     0.001858163513
       4        0.000621647880    -0.001113791211     0.000758696436
       5       -0.000004963720     0.000007698246    -0.000031920620
       6       -0.000090021754     0.000125682056    -0.001200270188
       7       -0.000026574409     0.000020337660     0.000019378167
       8       -0.000008088996     0.000003681968     0.000006179645
       9        0.000002179143     0.000003394925     0.000006411281
      10       -0.000016167723    -0.000012412230     0.000012320537
      11       -0.000003921547     0.000002331988    -0.000002435095
      12        0.000011389450     0.000009726831     0.000003011894
      13       -0.000000292361    -0.000001384323    -0.000004829476
      14       -0.000004287184     0.000006625107     0.000000134884
      15        0.000001989923    -0.000003598557     0.000000054244

  **** Optimization is complete! (in 3 steps) ****
    Final optimized geometry and variables:
    Molecular point group: c1

    Geometry (in Angstrom), charge = 0, multiplicity = 1:

    H           -3.157257188127     0.481358375361     0.171895832603
    C           -2.357907582554    -0.245402773785     0.171176765166
    O           -1.151068419466     0.441638855953     0.166776411135
    H           -2.458398819825    -0.883507985507    -0.704023679030
    H           -2.454022864241    -0.872244035615     1.055618085354
    C           -0.030944090475    -0.355647960974    -0.056277354947
    C            1.212431564744     0.510003798001    -0.021683721990
    H           -0.115277169277    -0.854583819753    -1.021740080291
    H            0.033493651999    -1.134769551809     0.704034008462
    C            2.486552896629    -0.291309648237    -0.264729502898
    H            1.112061982243     1.288318593847    -0.770188410601
    H            1.261592894159     1.006634074549     0.941112893725
    H            2.469051066378    -0.777159003640    -1.234701713000
    H            3.358395210329     0.350711653782    -0.234834594555
    H            2.619125699351    -1.061233080999     0.488150594127

  Mulliken Charges: (a.u.)
   Center  Symbol    Alpha    Beta     Spin     Total
       1     H     0.44722  0.44722  0.00000  0.10556
       2     C     3.03318  3.03318  0.00000 -0.06637
       3     O     4.17185  4.17185  0.00000 -0.34370
       4     H     0.47378  0.47378  0.00000  0.05243
       5     H     0.46999  0.46999  0.00000  0.06003
       6     C     2.95612  2.95612  0.00000  0.08775
       7     C     3.08034  3.08034  0.00000 -0.16067
       8     H     0.47485  0.47485  0.00000  0.05031
       9     H     0.47671  0.47671  0.00000  0.04657
      10     C     3.15581  3.15581  0.00000 -0.31162
      11     H     0.45115  0.45115  0.00000  0.09770
      12     H     0.45103  0.45103  0.00000  0.09793
      13     H     0.45588  0.45588  0.00000  0.08825
      14     H     0.44626  0.44626  0.00000  0.10748
      15     H     0.45582  0.45582  0.00000  0.08836

   Total alpha = 21.00000, Total beta = 21.00000, Total charge = -0.00000

*** Psi4 exiting successfully. Buy a developer a beer!
