                              Psi4 1.0.54 Driver

  ==> Input File <==

--------------------------------------------------------------------------
set {
	reference rhf
	basis cc-pvtz
}

set_num_threads( 4 )
memory 2 gb

molecule MOL {
0 1

O	 0.074770	 1.259872	 0.000487
C	 0.029490	 0.077183	 0.000078
C	 -1.232113	 -0.748027	 0.000015
O	 1.106773	 -0.690081	 -0.000204
C	 -2.501422	 0.088592	 -0.000052
H	 -1.188777	 -1.400384	 -0.865133
H	 -1.188857	 -1.400312	 0.865225
H	 -2.548170	 0.725504	 -0.873205
H	 -3.371613	 -0.556398	 -0.000040
H	 -2.548215	 0.725571	 0.873047
C	 2.319843	 -0.105560	 0.429256
H	 2.586143	 0.728255	 -0.203257
H	 3.065673	 -0.880406	 0.357297
H	 2.236867	 0.238513	 1.449537

	symmetry c1
}
set optking {
	frozen_dihedral = ("
		11 4 2 3
	")
}

ee,wfn = optimize('scf', return_wfn=True)
oeprop( wfn, 'DIPOLE', 'QUADRUPOLE', 'MULLIKEN_CHARGES')
f=open( 'psi4out.xyz', 'w' )
f.write( "14  " )
f.write( str(ee) + "\n" )
f.write( MOL.save_string_xyz() )
f.close()
--------------------------------------------------------------------------

    Molecular point group: c1
  Charge       = 0
  Multiplicity = 1
  Basis Set: CC-PVTZ
  Basis Set:
  @DF-RHF Final Energy:  -305.98531854072525
    Total Energy =                       -305.9853185407254728
    Molecular point group: c1
  Basis Set: CC-PVTZ
  Basis Set:
  Basis Set: CC-PVTZ
  Basis Set:
  @DF-RHF Final Energy:  -305.98301272826109
    Total Energy =                       -305.9830127282612011
  Basis Set: CC-PVTZ
  Basis Set:
  Basis Set: CC-PVTZ
  Basis Set:
  @DF-RHF Final Energy:  -305.98555406997184
    Total Energy =                       -305.9855540699722951
  Basis Set: CC-PVTZ
  Basis Set:
  Basis Set: CC-PVTZ
  Basis Set:
  @DF-RHF Final Energy:  -305.98565888334002
    Total Energy =                       -305.9856588833397950
  Basis Set: CC-PVTZ
  Basis Set:
  Basis Set: CC-PVTZ
  Basis Set:
  @DF-RHF Final Energy:  -305.98570169308516
    Total Energy =                       -305.9857016930851614
  Basis Set: CC-PVTZ
  Basis Set:
  Basis Set: CC-PVTZ
  Basis Set:
  @DF-RHF Final Energy:  -305.98571071153015
    Total Energy =                       -305.9857107115300892
  Basis Set: CC-PVTZ
  Basis Set:
  Charge       = 0
  Multiplicity = 1
  Basis Set: CC-PVTZ
  Basis Set:

    Orbital Energies (a.u.)
    -----------------------

    Doubly Occupied:

       1A    -20.595514     2A    -20.535723     3A    -11.365593
       4A    -11.279929     5A    -11.237667     6A    -11.215192
       7A     -1.471964     8A     -1.366936     9A     -1.065364
      10A     -0.980805    11A     -0.880252    12A     -0.770695
      13A     -0.702634    14A     -0.684842    15A     -0.675726
      16A     -0.621708    17A     -0.604700    18A     -0.549296
      19A     -0.539319    20A     -0.521899    21A     -0.514706
      22A     -0.497577    23A     -0.461090    24A     -0.442050

  @DF-RHF Final Energy:  -305.98571138399780

   => Energetics <=

    Nuclear Repulsion Energy =            247.4655450846335327
    One-Electron Energy =                -907.7401512672474837
    Two-Electron Energy =                 354.2888947986160701
    DFT Exchange-Correlation Energy =       0.0000000000000000
    Empirical Dispersion Energy =           0.0000000000000000
    PCM Polarization Energy =               0.0000000000000000
    EFP Energy =                            0.0000000000000000
    Total Energy =                       -305.9857113839979093
    Molecular point group: c1
  Basis Set: CC-PVTZ
  Basis Set:

  -Total Gradient:
     Atom            X                  Y                   Z
    ------   -----------------  -----------------  -----------------
       1        0.000002864895    -0.000073565142     0.000093840776
       2       -0.000762927415     0.000027312052    -0.004103124904
       3        0.000186692600    -0.000515216840     0.004290222588
       4        0.001310705540     0.002473356150    -0.004603788977
       5        0.000008756354    -0.000030306467    -0.000002193304
       6        0.000000402166    -0.000004923560     0.000005488797
       7        0.000001990355    -0.000004638712    -0.000001390256
       8        0.000000038802     0.000004844650    -0.000000014040
       9        0.000001189873     0.000006757969     0.000001980294
      10        0.000001768305     0.000002068317    -0.000000002405
      11       -0.000775849815    -0.001907402133     0.004347374311
      12        0.000002182983     0.000008377764    -0.000009589014
      13        0.000011282485     0.000003492310    -0.000008557235
      14        0.000010902874     0.000009843644    -0.000010246632

  **** Optimization is complete! (in 7 steps) ****
    Final optimized geometry and variables:
    Molecular point group: c1

    Geometry (in Angstrom), charge = 0, multiplicity = 1:

    O            0.076489694073     1.261292173015     0.161440197547
    C            0.032822564585     0.096312590351    -0.039599837437
    C           -1.225641435439    -0.731323847430    -0.084752697922
    O            1.113831454806    -0.656602448111    -0.181400801259
    C           -2.497089769234     0.099303339496    -0.153467754308
    H           -1.150397643790    -1.417543527876    -0.919760310963
    H           -1.208837713967    -1.347061583993     0.809055145072
    H           -2.519637555820     0.703231010516    -1.051511603578
    H           -3.365261269803    -0.548303991768    -0.157898566910
    H           -2.571057016030     0.767423698557     0.693337315272
    C            2.342464381266    -0.116902851858     0.262932070159
    H            2.625583432036     0.739999869349    -0.329583113486
    H            3.071506355585    -0.902852822530     0.150643358100
    H            2.270628934928     0.178767229848     1.299778521523

  Mulliken Charges: (a.u.)
   Center  Symbol    Alpha    Beta     Spin     Total
       1     O     4.19433  4.19433  0.00000 -0.38866
       2     C     2.80305  2.80305  0.00000  0.39389
       3     C     3.09293  3.09293  0.00000 -0.18587
       4     O     4.14893  4.14893  0.00000 -0.29787
       5     C     3.14071  3.14071  0.00000 -0.28143
       6     H     0.43933  0.43933  0.00000  0.12134
       7     H     0.44412  0.44412  0.00000  0.11175
       8     H     0.45026  0.45026  0.00000  0.09948
       9     H     0.45022  0.45022  0.00000  0.09957
      10     H     0.44596  0.44596  0.00000  0.10808
      11     C     3.03561  3.03561  0.00000 -0.07122
      12     H     0.45107  0.45107  0.00000  0.09786
      13     H     0.44555  0.44555  0.00000  0.10890
      14     H     0.45792  0.45792  0.00000  0.08417

   Total alpha = 24.00000, Total beta = 24.00000, Total charge = -0.00000

*** Psi4 exiting successfully. Buy a developer a beer!
