                              Psi4 1.0.54 Driver

  ==> Input File <==

--------------------------------------------------------------------------
set {
	reference rhf
	basis cc-pvtz
}

set_num_threads( 4 )
memory 2 gb

molecule MOL {
0 1

H	 -2.074962	 0.062553	 -2.223610
C	 -2.754885	 0.796786	 -1.770297
C	 -2.653809	 0.914422	 -0.273689
O	 -3.497853	 1.414253	 -2.451502
C	 -1.216901	 1.136108	 0.207794
H	 -3.311694	 1.708620	 0.054595
H	 -3.027955	 -0.020818	 0.136977
C	 -0.247837	 0.040196	 -0.230469
H	 -0.872882	 2.093195	 -0.169002
H	 -1.209325	 1.218376	 1.291938
C	 1.181757	 0.280428	 0.247371
H	 -0.259600	 -0.030819	 -1.314870
H	 -0.591284	 -0.923375	 0.136958
C	 2.151032	 -0.811012	 -0.202643
H	 1.515939	 1.247397	 -0.115449
H	 1.191514	 0.341223	 1.333422
C	 3.580021	 -0.656538	 0.320835
H	 2.170545	 -0.847575	 -1.289412
H	 1.766632	 -1.772905	 0.124928
C	 4.327657	 0.562694	 -0.213579
H	 4.138806	 -1.549270	 0.057813
H	 3.561991	 -0.620783	 1.406976
H	 4.355973	 0.557257	 -1.298551
H	 3.867136	 1.491650	 0.100501
H	 5.351524	 0.571613	 0.142204

	symmetry c1
}
set optking {
	frozen_dihedral = ("
		6 3 5 8
	")
}

ee,wfn = optimize('scf', return_wfn=True)
oeprop( wfn, 'DIPOLE', 'QUADRUPOLE', 'MULLIKEN_CHARGES')
f=open( 'psi4out.xyz', 'w' )
f.write( "25  " )
f.write( str(ee) + "\n" )
f.write( MOL.save_string_xyz() )
f.close()
--------------------------------------------------------------------------

    Molecular point group: c1
  Charge       = 0
  Multiplicity = 1
  Basis Set: CC-PVTZ
  Basis Set:
  @DF-RHF Final Energy:  -387.25679785411018
    Total Energy =                       -387.2567978541098910
    Molecular point group: c1
  Basis Set: CC-PVTZ
  Basis Set:
  Basis Set: CC-PVTZ
  Basis Set:
  @DF-RHF Final Energy:  -387.25735089166807
    Total Energy =                       -387.2573508916682385
  Basis Set: CC-PVTZ
  Basis Set:
  Basis Set: CC-PVTZ
  Basis Set:
  @DF-RHF Final Energy:  -387.25819428323763
    Total Energy =                       -387.2581942832377990
  Basis Set: CC-PVTZ
  Basis Set:
  Basis Set: CC-PVTZ
  Basis Set:
  @DF-RHF Final Energy:  -387.25820139700932
    Total Energy =                       -387.2582013970095431
  Basis Set: CC-PVTZ
  Basis Set:
  @DF-RHF Final Energy:  -387.25837692311251
    Total Energy =                       -387.2583769231121096
  @DF-RHF Final Energy:  -387.25842118740741
    Total Energy =                       -387.2584211874071798
  @DF-RHF Final Energy:  -387.25845698752943
    Total Energy =                       -387.2584569875290299
  @DF-RHF Final Energy:  -387.25848617048865
    Total Energy =                       -387.2584861704887089
  @DF-RHF Final Energy:  -387.25851138751466
    Total Energy =                       -387.2585113875142042
  Basis Set: CC-PVTZ
  Basis Set:
  @DF-RHF Final Energy:  -387.25852617387329
    Total Energy =                       -387.2585261738728377
  Basis Set: CC-PVTZ
  Basis Set:
  Basis Set: CC-PVTZ
  Basis Set:
  @DF-RHF Final Energy:  -387.25856344425296
    Total Energy =                       -387.2585634442528999
  Basis Set: CC-PVTZ
  Basis Set:
  Basis Set: CC-PVTZ
  Basis Set:
  @DF-RHF Final Energy:  -387.25857440047520
    Total Energy =                       -387.2585744004752542
  Basis Set: CC-PVTZ
  Basis Set:
  Charge       = 0
  Multiplicity = 1
  Basis Set: CC-PVTZ
  Basis Set:

    Orbital Energies (a.u.)
    -----------------------

    Doubly Occupied:

       1A    -20.551098     2A    -11.319618     3A    -11.233275
       4A    -11.232681     5A    -11.224993     6A    -11.219190
       7A    -11.217643     8A    -11.216948     9A    -11.209390
      10A     -1.405456    11A     -1.105629    12A     -1.070602
      13A     -1.014709    14A     -0.943941    15A     -0.877820
      16A     -0.828968    17A     -0.784027    18A     -0.775978
      19A     -0.683796    20A     -0.658824    21A     -0.633968
      22A     -0.619467    23A     -0.612720    24A     -0.583388
      25A     -0.574113    26A     -0.565871    27A     -0.535566
      28A     -0.520198    29A     -0.517411    30A     -0.501186
      31A     -0.487335    32A     -0.481404    33A     -0.466964
      34A     -0.460814    35A     -0.444581    36A     -0.409700

  @DF-RHF Final Energy:  -387.25857439610974

   => Energetics <=

    Nuclear Repulsion Energy =            439.2164308050200248
    One-Electron Energy =               -1394.9714629699342368
    Two-Electron Energy =                 568.4964577688042482
    DFT Exchange-Correlation Energy =       0.0000000000000000
    Empirical Dispersion Energy =           0.0000000000000000
    PCM Polarization Energy =               0.0000000000000000
    EFP Energy =                            0.0000000000000000
    Total Energy =                       -387.2585743961099070
    Molecular point group: c1
  Basis Set: CC-PVTZ
  Basis Set:

  -Total Gradient:
     Atom            X                  Y                   Z
    ------   -----------------  -----------------  -----------------
       1       -0.000005101193     0.000012854164     0.000003786469
       2       -0.000002789428     0.000017198816     0.000004468649
       3       -0.000184176068    -0.000519508064     0.000714511609
       4        0.000010560641    -0.000025122326     0.000006578664
       5       -0.000109204730    -0.000446355927     0.000628772304
       6        0.000173008677     0.000559970190    -0.000790456895
       7        0.000002389721    -0.000001068467     0.000003782292
       8        0.000116805418     0.000415847034    -0.000576075643
       9       -0.000002756007     0.000008075589     0.000002590768
      10       -0.000006691338    -0.000007203678    -0.000009204563
      11        0.000002737293    -0.000009510851     0.000014141610
      12        0.000000082127    -0.000005067062     0.000000169558
      13        0.000003718777     0.000000910852     0.000005372846
      14        0.000004897142     0.000001070937    -0.000002450622
      15        0.000005166359     0.000006305386     0.000004554914
      16       -0.000002680123    -0.000005084604    -0.000000592780
      17        0.000006137477    -0.000002327676    -0.000013976691
      18        0.000000369717    -0.000007999649    -0.000002241332
      19        0.000002327054     0.000004975381     0.000006845118
      20       -0.000005049405    -0.000000815891     0.000001196047
      21        0.000003222633     0.000001381880    -0.000002341444
      22       -0.000001973835    -0.000001319269    -0.000002999874
      23       -0.000000272611    -0.000001794075     0.000001645093
      24       -0.000010177428     0.000004465559     0.000000213003
      25       -0.000000550871     0.000000121752     0.000001710900

  **** Optimization is complete! (in 13 steps) ****
    Final optimized geometry and variables:
    Molecular point group: c1

    Geometry (in Angstrom), charge = 0, multiplicity = 1:

    H           -2.589062443768    -0.500512320309    -1.866169907396
    C           -2.948099437080     0.380485062833    -1.322720061631
    C           -2.809003019958     0.339427319746     0.176649696357
    O           -3.407116655101     1.292850272786    -1.920204185340
    C           -1.367476111776     0.580780827365     0.651108533360
    H           -3.459694505006     1.103274882501     0.580998015915
    H           -3.150813213098    -0.631047903737     0.526138571557
    C           -0.340418480054    -0.433125257013     0.148752319964
    H           -1.066269992395     1.579660425148     0.351267600968
    H           -1.372292418733     0.575149906372     1.735939712175
    C            1.048325687603    -0.207512206595     0.741662750765
    H           -0.270498029756    -0.387424655508    -0.934194799234
    H           -0.675841422824    -1.438763772319     0.391766868904
    C            2.083961278485    -1.207364594960     0.230939395904
    H            1.365913864977     0.805308488232     0.515540842877
    H            0.989335115568    -0.275354249027     1.825502056271
    C            3.471033651676    -1.073037289858     0.861716994558
    H            2.172342828087    -1.112798022822    -0.848951126317
    H            1.717213031635    -2.213099860164     0.417588325677
    C            4.201428080409     0.225109001064     0.526603527309
    H            4.079320635418    -1.909287799962     0.531367105189
    H            3.384728478021    -1.170033162249     1.940779472366
    H            4.295859013299     0.352749632888    -0.547030188413
    H            3.686756099609     1.093916660164     0.918804181224
    H            5.200566024714     0.222639291714     0.946842745167

  Mulliken Charges: (a.u.)
   Center  Symbol    Alpha    Beta     Spin     Total
       1     H     0.46082  0.46082  0.00000  0.07835
       2     C     2.90584  2.90584  0.00000  0.18831
       3     C     3.09008  3.09008  0.00000 -0.18015
       4     O     4.16699  4.16699  0.00000 -0.33397
       5     C     3.10454  3.10454  0.00000 -0.20908
       6     H     0.43772  0.43772  0.00000  0.12456
       7     H     0.44959  0.44959  0.00000  0.10082
       8     C     3.09794  3.09794  0.00000 -0.19589
       9     H     0.44425  0.44425  0.00000  0.11150
      10     H     0.44644  0.44644  0.00000  0.10712
      11     C     3.09211  3.09211  0.00000 -0.18423
      12     H     0.45034  0.45034  0.00000  0.09933
      13     H     0.45237  0.45237  0.00000  0.09526
      14     C     3.09548  3.09548  0.00000 -0.19096
      15     H     0.45017  0.45017  0.00000  0.09965
      16     H     0.45304  0.45304  0.00000  0.09392
      17     C     3.09078  3.09078  0.00000 -0.18156
      18     H     0.45302  0.45302  0.00000  0.09396
      19     H     0.44963  0.44963  0.00000  0.10075
      20     C     3.15254  3.15254  0.00000 -0.30508
      21     H     0.44787  0.44787  0.00000  0.10426
      22     H     0.45458  0.45458  0.00000  0.09085
      23     H     0.45426  0.45426  0.00000  0.09147
      24     H     0.45372  0.45372  0.00000  0.09256
      25     H     0.44587  0.44587  0.00000  0.10826

   Total alpha = 36.00000, Total beta = 36.00000, Total charge = -0.00000

*** Psi4 exiting successfully. Buy a developer a beer!
