  ==> Input File <==

--------------------------------------------------------------------------
set {
	reference rhf
	basis 6-31G*
}

set_num_threads( 1 )
memory 2 gb

molecule MOL {
0 1

H	 -2.499100	 -0.730091	 -0.745082
O	 -2.347518	 -0.290803	 0.079804
C	 -1.184022	 0.487508	 -0.006784
C	 0.062599	 -0.378592	 0.031606
H	 -1.176523	 1.099369	 -0.904519
H	 -1.187323	 1.153111	 0.844927
O	 1.171513	 0.459272	 -0.058250
H	 0.050699	 -1.089204	 -0.797170
H	 0.078739	 -0.954914	 0.954740
C	 2.283678	 -0.118130	 -0.665570
H	 2.067888	 -0.415838	 -1.689989
H	 3.072002	 0.621713	 -0.674446
H	 2.626445	 -0.992887	 -0.116842

	symmetry c1
}
set optking {
	frozen_dihedral = ("
		8 4 3 5,
		1 2 3 5,
		4 7 10 13
	")
}

ee = energy('scf')
oeprop('DIPOLE', 'QUADRUPOLE', 'MULLIKEN_CHARGES')
f=open( 'psi4out.xyz', 'w' )
f.write( "13  " )
f.write( str(ee) + "\n" )
f.write( MOL.save_string_xyz() )
f.close()
--------------------------------------------------------------------------

    Molecular point group: c1

    Geometry (in Angstrom), charge = 0, multiplicity = 1:

       Center              X                  Y                   Z               Mass
    ------------   -----------------  -----------------  -----------------  -----------------
           H         -2.475346904792    -0.746725541975    -0.607057713839     1.007825032070
           O         -2.323764904792    -0.307437541975     0.217828286161    15.994914619560
           C         -1.160268904792     0.470873458025     0.131240286161    12.000000000000
           C          0.086352095208    -0.395226541975     0.169630286161    12.000000000000
           H         -1.152769904792     1.082734458025    -0.766494713839     1.007825032070
           H         -1.163569904792     1.136476458025     0.982951286161     1.007825032070
           O          1.195266095208     0.442637458025     0.079774286161    15.994914619560
           H          0.074452095208    -1.105838541975    -0.659145713839     1.007825032070
           H          0.102492095208    -0.971548541975     1.092764286161     1.007825032070
           C          2.307431095208    -0.134764541975    -0.527545713839    12.000000000000
           H          2.091641095208    -0.432472541975    -1.551964713839     1.007825032070
           H          3.095755095208     0.605078458025    -0.536421713839     1.007825032070
           H          2.650198095208    -1.009521541975     0.021182286161     1.007825032070

  Charge       = 0
  Multiplicity = 1
  Basis Set: 6-31G*
  Basis Set:

    Orbital Energies (a.u.)
    -----------------------

    Doubly Occupied:

       1A    -20.561733     2A    -20.559809     3A    -11.271342
       4A    -11.270577     5A    -11.268394     6A     -1.389016
       7A     -1.364982     8A     -1.018045     9A     -0.914830
      10A     -0.842126    11A     -0.710062    12A     -0.670750
      13A     -0.661676    14A     -0.641219    15A     -0.591528
      16A     -0.567467    17A     -0.551739    18A     -0.490364
      19A     -0.476973    20A     -0.448327    21A     -0.414693

  @DF-RHF Final Energy:  -267.94863013426163

   => Energetics <=

    Nuclear Repulsion Energy =            190.5607565131923309
    One-Electron Energy =                -743.6474839075754062
    Two-Electron Energy =                 285.1380972601211852
    DFT Exchange-Correlation Energy =       0.0000000000000000
    Empirical Dispersion Energy =           0.0000000000000000
    PCM Polarization Energy =               0.0000000000000000
    EFP Energy =                            0.0000000000000000
    Total Energy =                       -267.9486301342618617

  Mulliken Charges: (a.u.)
   Center  Symbol    Alpha    Beta     Spin     Total
       1     H     0.28161  0.28161  0.00000  0.43679
       2     O     4.37085  4.37085  0.00000 -0.74171
       3     C     3.00408  3.00408  0.00000 -0.00817
       4     C     2.99766  2.99766  0.00000  0.00468
       5     H     0.42439  0.42439  0.00000  0.15122
       6     H     0.40790  0.40790  0.00000  0.18421
       7     O     4.30692  4.30692  0.00000 -0.61383
       8     H     0.43805  0.43805  0.00000  0.12390
       9     H     0.41971  0.41971  0.00000  0.16059
      10     C     3.08082  3.08082  0.00000 -0.16163
      11     H     0.42932  0.42932  0.00000  0.14135
      12     H     0.41100  0.41100  0.00000  0.17800
      13     H     0.42770  0.42770  0.00000  0.14461

   Total alpha = 21.00000, Total beta = 21.00000, Total charge =  0.00000
