                              Psi4 1.0.54 Driver

  ==> Input File <==

--------------------------------------------------------------------------
set {
	reference rhf
	basis cc-pvtz
}

set_num_threads( 4 )
memory 2 gb

molecule MOL {
0 1

H	 -2.714832	 -0.836309	 -0.517415
O	 -2.313989	 -0.142475	 -0.025864
C	 -0.943808	 -0.065018	 -0.330000
H	 -0.812293	 -0.225641	 -1.398673
C	 -0.231030	 -1.182113	 0.407592
C	 -0.353797	 1.300461	 0.050970
H	 -0.312800	 -0.992012	 1.473041
H	 -0.738841	 -2.119564	 0.220514
C	 1.246176	 -1.268044	 -0.015480
H	 -0.539537	 2.008579	 -0.751815
H	 -0.889989	 1.662858	 0.920677
C	 1.153605	 1.231851	 0.356834
H	 1.823096	 -1.684665	 0.802361
H	 1.352335	 -1.958223	 -0.845114
C	 1.826409	 0.100723	 -0.416008
H	 1.622968	 2.181508	 0.128734
H	 1.301983	 1.066493	 1.419367
H	 2.897299	 0.112407	 -0.249665
H	 1.683458	 0.265621	 -1.480024

	symmetry c1
}
set optking {
	frozen_dihedral = ("
		1 2 3 4
	")
}

ee,wfn = optimize('scf', return_wfn=True)
oeprop( wfn, 'DIPOLE', 'QUADRUPOLE', 'MULLIKEN_CHARGES')
f=open( 'psi4out.xyz', 'w' )
f.write( "19  " )
f.write( str(ee) + "\n" )
f.write( MOL.save_string_xyz() )
f.close()
--------------------------------------------------------------------------

    Molecular point group: c1
  Charge       = 0
  Multiplicity = 1
  Basis Set: CC-PVTZ
  Basis Set:
  @DF-RHF Final Energy:  -309.16190172440940
    Total Energy =                       -309.1619017244093470
    Molecular point group: c1
  Basis Set: CC-PVTZ
  Basis Set:
  Basis Set: CC-PVTZ
  Basis Set:
  @DF-RHF Final Energy:  -309.16331427038142
    Total Energy =                       -309.1633142703812496
  Basis Set: CC-PVTZ
  Basis Set:
  Basis Set: CC-PVTZ
  Basis Set:
  @DF-RHF Final Energy:  -309.16355045265976
    Total Energy =                       -309.1635504526599902
  Basis Set: CC-PVTZ
  Basis Set:
  Basis Set: CC-PVTZ
  Basis Set:
  @DF-RHF Final Energy:  -309.16355630134461
    Total Energy =                       -309.1635563013447268
  Basis Set: CC-PVTZ
  Basis Set:
  Charge       = 0
  Multiplicity = 1
  Basis Set: CC-PVTZ
  Basis Set:

    Orbital Energies (a.u.)
    -----------------------

    Doubly Occupied:

       1A    -20.543596     2A    -11.267956     3A    -11.214750
       4A    -11.213118     5A    -11.211901     6A    -11.209046
       7A    -11.206950     8A     -1.363245     9A     -1.109573
      10A     -1.002087    11A     -0.989418    12A     -0.846440
      13A     -0.831405    14A     -0.732115    15A     -0.712945
      16A     -0.655730    17A     -0.620498    18A     -0.605481
      19A     -0.566775    20A     -0.546222    21A     -0.534080
      22A     -0.519000    23A     -0.498643    24A     -0.486709
      25A     -0.467679    26A     -0.449626    27A     -0.430002
      28A     -0.410323

  @DF-RHF Final Energy:  -309.16355714098023

   => Energetics <=

    Nuclear Repulsion Energy =            331.8923186305385684
    One-Electron Energy =               -1077.6211282401563949
    Two-Electron Energy =                 436.5652524686377660
    DFT Exchange-Correlation Energy =       0.0000000000000000
    Empirical Dispersion Energy =           0.0000000000000000
    PCM Polarization Energy =               0.0000000000000000
    EFP Energy =                            0.0000000000000000
    Total Energy =                       -309.1635571409801173
    Molecular point group: c1
  Basis Set: CC-PVTZ
  Basis Set:

  -Total Gradient:
     Atom            X                  Y                   Z
    ------   -----------------  -----------------  -----------------
       1       -0.000207660482     0.000891318391    -0.000954799118
       2        0.000270589428    -0.001401354807     0.001197359250
       3       -0.000066389267     0.001647757169    -0.000351935874
       4        0.000018620305    -0.001118213874     0.000190565325
       5       -0.000033517050     0.000018020060    -0.000038757872
       6        0.000019270717     0.000009954174    -0.000014098701
       7       -0.000000972043     0.000003390973    -0.000009438650
       8       -0.000002909665    -0.000004594608    -0.000005794641
       9        0.000032550425     0.000015645202    -0.000002839271
      10        0.000006628531     0.000011766334    -0.000003442897
      11       -0.000015364828    -0.000037409058    -0.000012111154
      12        0.000003694929     0.000015782256    -0.000014739042
      13        0.000019466842    -0.000007156566     0.000014226155
      14        0.000003112065     0.000007991407     0.000013669118
      15       -0.000026107570    -0.000034422152     0.000000538181
      16       -0.000009455206     0.000000511779     0.000001144597
      17       -0.000010034094    -0.000001216771     0.000001229481
      18        0.000002222743    -0.000026968134    -0.000007023762
      19       -0.000003745780     0.000009198224    -0.000003751123

  **** Optimization is complete! (in 5 steps) ****
    Final optimized geometry and variables:
    Molecular point group: c1

    Geometry (in Angstrom), charge = 0, multiplicity = 1:

    H           -2.766048254891    -0.730968315509    -0.512414503237
    O           -2.317600074200    -0.072818810473    -0.014502469401
    C           -0.945562811742    -0.079553857417    -0.327302547706
    H           -0.828342430390    -0.232121579628    -1.398464194003
    C           -0.203288931403    -1.197294629441     0.390955798012
    C           -0.376291797866     1.287320902764     0.058205852890
    H           -0.281955102900    -1.024428589686     1.459364246743
    H           -0.688479202680    -2.148332760757     0.197471151822
    C            1.272525239592    -1.252869643650    -0.042853700759
    H           -0.568984507048     1.989515535005    -0.745090506877
    H           -0.930429645913     1.640883001094     0.919140357683
    C            1.127154450252     1.235805472933     0.379366347658
    H            1.860797266227    -1.680049568613     0.761393471964
    H            1.384363444031    -1.921861684492    -0.889232734292
    C            1.827160805187     0.135209636318    -0.413145191359
    H            1.581070990554     2.198648243687     0.176767405477
    H            1.270163716091     1.049597892635     1.439413983600
    H            2.897074114152     0.163829814793    -0.242668424676
    H            1.684121844464     0.319544296230    -1.474020427445

  Mulliken Charges: (a.u.)
   Center  Symbol    Alpha    Beta     Spin     Total
       1     H     0.39476  0.39476  0.00000  0.21048
       2     O     4.20331  4.20331  0.00000 -0.40662
       3     C     2.92789  2.92789  0.00000  0.14422
       4     H     0.46511  0.46511  0.00000  0.06978
       5     C     3.09824  3.09824  0.00000 -0.19648
       6     C     3.10954  3.10954  0.00000 -0.21909
       7     H     0.45302  0.45302  0.00000  0.09396
       8     H     0.44992  0.44992  0.00000  0.10016
       9     C     3.11473  3.11473  0.00000 -0.22946
      10     H     0.44876  0.44876  0.00000  0.10249
      11     H     0.44399  0.44399  0.00000  0.11202
      12     C     3.10054  3.10054  0.00000 -0.20108
      13     H     0.44724  0.44724  0.00000  0.10552
      14     H     0.44819  0.44819  0.00000  0.10361
      15     C     3.10179  3.10179  0.00000 -0.20358
      16     H     0.44200  0.44200  0.00000  0.11601
      17     H     0.45358  0.45358  0.00000  0.09284
      18     H     0.44302  0.44302  0.00000  0.11397
      19     H     0.45437  0.45437  0.00000  0.09126

   Total alpha = 28.00000, Total beta = 28.00000, Total charge = -0.00000

*** Psi4 exiting successfully. Buy a developer a beer!
