  ==> Input File <==

--------------------------------------------------------------------------
set {
	reference rhf
	basis 6-31G*
}

set_num_threads( 1 )
memory 2 gb

molecule MOL {
0 1

H	 -3.420663	 1.227371	 -1.044276
O	 -3.452007	 0.283848	 -0.965577
C	 -3.181085	 -0.079926	 0.364119
C	 -1.765924	 0.277073	 0.805136
H	 -3.327791	 -1.152017	 0.410903
H	 -3.905698	 0.375695	 1.036898
C	 -0.677594	 -0.417312	 -0.014550
H	 -1.637766	 1.358238	 0.744969
H	 -1.659588	 0.017670	 1.857098
C	 0.738335	 -0.034840	 0.421385
H	 -0.814977	 -0.178223	 -1.064632
H	 -0.802730	 -1.495410	 0.071702
C	 1.274242	 -0.926126	 1.544994
H	 1.399493	 -0.085558	 -0.440425
H	 0.747432	 1.002895	 0.752486
C	 2.655244	 -0.526700	 2.077392
H	 1.307987	 -1.958390	 1.200046
H	 0.567137	 -0.906557	 2.371696
C	 3.795073	 -0.682925	 1.069033
H	 2.876960	 -1.135864	 2.950348
H	 2.621567	 0.503058	 2.427633
H	 3.845119	 -1.700880	 0.691671
H	 4.751393	 -0.455129	 1.529901
H	 3.678767	 -0.019961	 0.218083

	symmetry c1
}
set optking {
	frozen_dihedral = ("
		20 16 13 17,
		17 13 10 7,
		11 7 4 3,
		1 2 3 5,
		7 4 3 2
	")
}

ee = energy('scf')
oeprop('DIPOLE', 'QUADRUPOLE', 'MULLIKEN_CHARGES')
f=open( 'psi4out.xyz', 'w' )
f.write( "24  " )
f.write( str(ee) + "\n" )
f.write( MOL.save_string_xyz() )
f.close()
--------------------------------------------------------------------------

    Molecular point group: c1

    Geometry (in Angstrom), charge = 0, multiplicity = 1:

       Center              X                  Y                   Z               Mass
    ------------   -----------------  -----------------  -----------------  -----------------
           H         -3.292522414359     1.475286949359    -1.677992221539     1.007825032070
           O         -3.323866414359     0.531763949359    -1.599293221539    15.994914619560
           C         -3.052944414359     0.167989949359    -0.269597221539    12.000000000000
           C         -1.637783414359     0.524988949359     0.171419778461    12.000000000000
           H         -3.199650414359    -0.904101050641    -0.222813221539     1.007825032070
           H         -3.777557414359     0.623610949359     0.403181778461     1.007825032070
           C         -0.549453414359    -0.169396050641    -0.648266221539    12.000000000000
           H         -1.509625414359     1.606153949359     0.111252778461     1.007825032070
           H         -1.531447414359     0.265585949359     1.223381778461     1.007825032070
           C          0.866475585641     0.213075949359    -0.212331221539    12.000000000000
           H         -0.686836414359     0.069692949359    -1.698348221539     1.007825032070
           H         -0.674589414359    -1.247494050641    -0.562014221539     1.007825032070
           C          1.402382585641    -0.678210050641     0.911277778461    12.000000000000
           H          1.527633585641     0.162357949359    -1.074141221539     1.007825032070
           H          0.875572585641     1.250810949359     0.118769778461     1.007825032070
           C          2.783384585641    -0.278784050641     1.443675778461    12.000000000000
           H          1.436127585641    -1.710474050641     0.566329778461     1.007825032070
           H          0.695277585641    -0.658641050641     1.737979778461     1.007825032070
           C          3.923213585641    -0.435009050641     0.435316778461    12.000000000000
           H          3.005100585641    -0.887948050641     2.316631778461     1.007825032070
           H          2.749707585641     0.750973949359     1.793916778461     1.007825032070
           H          3.973259585641    -1.452964050641     0.057954778461     1.007825032070
           H          4.879533585641    -0.207213050641     0.896184778461     1.007825032070
           H          3.806907585641     0.227954949359    -0.415633221539     1.007825032070

  Charge       = 0
  Multiplicity = 1
  Basis Set: 6-31G*
  Basis Set:

    Orbital Energies (a.u.)
    -----------------------

    Doubly Occupied:

       1A    -20.553461     2A    -11.267482     3A    -11.217342
       4A    -11.214540     5A    -11.212763     6A    -11.211486
       7A    -11.210326     8A    -11.207436     9A     -1.360019
      10A     -1.089854    11A     -1.047409    12A     -0.984811
      13A     -0.915574    14A     -0.852213    15A     -0.803138
      16A     -0.774540    17A     -0.679982    18A     -0.645417
      19A     -0.628264    20A     -0.618850    21A     -0.595338
      22A     -0.586385    23A     -0.565700    24A     -0.538196
      25A     -0.519408    26A     -0.510068    27A     -0.492240
      28A     -0.483687    29A     -0.466556    30A     -0.458495
      31A     -0.457248    32A     -0.437548    33A     -0.422765

  @DF-RHF Final Energy:  -349.24447240828010

   => Energetics <=

    Nuclear Repulsion Energy =            386.8182480737178821
    One-Electron Energy =               -1240.0682642436465812
    Two-Electron Energy =                 504.0055437616479139
    DFT Exchange-Correlation Energy =       0.0000000000000000
    Empirical Dispersion Energy =           0.0000000000000000
    PCM Polarization Energy =               0.0000000000000000
    EFP Energy =                            0.0000000000000000
    Total Energy =                       -349.2444724082807852

  Mulliken Charges: (a.u.)
   Center  Symbol    Alpha    Beta     Spin     Total
       1     H     0.28338  0.28338  0.00000  0.43323
       2     O     4.36828  4.36828  0.00000 -0.73656
       3     C     2.99599  2.99599  0.00000  0.00803
       4     C     3.17022  3.17022  0.00000 -0.34044
       5     H     0.41631  0.41631  0.00000  0.16739
       6     H     0.42833  0.42833  0.00000  0.14333
       7     C     3.15507  3.15507  0.00000 -0.31014
       8     H     0.42794  0.42794  0.00000  0.14411
       9     H     0.42181  0.42181  0.00000  0.15639
      10     C     3.15666  3.15666  0.00000 -0.31331
      11     H     0.40987  0.40987  0.00000  0.18025
      12     H     0.42237  0.42237  0.00000  0.15527
      13     C     3.15381  3.15381  0.00000 -0.30761
      14     H     0.41837  0.41837  0.00000  0.16326
      15     H     0.42490  0.42490  0.00000  0.15020
      16     C     3.15211  3.15211  0.00000 -0.30421
      17     H     0.42335  0.42335  0.00000  0.15329
      18     H     0.42313  0.42313  0.00000  0.15373
      19     C     3.24103  3.24103  0.00000 -0.48206
      20     H     0.42151  0.42151  0.00000  0.15698
      21     H     0.42394  0.42394  0.00000  0.15212
      22     H     0.42211  0.42211  0.00000  0.15578
      23     H     0.41953  0.41953  0.00000  0.16094
      24     H     0.41999  0.41999  0.00000  0.16002

   Total alpha = 33.00000, Total beta = 33.00000, Total charge = -0.00000
