  ==> Input File <==

--------------------------------------------------------------------------
set {
	reference rhf
	basis 6-31G*
}

set_num_threads( 4 )
memory 2 gb

molecule MOL {
0 1

H	 -1.099309	 3.248080	 -2.497859
C	 -0.103206	 3.701148	 -2.419560
C	 0.389436	 3.917818	 -1.011381
O	 0.503339	 3.983464	 -3.401472
C	 0.308719	 2.644995	 -0.157179
H	 1.401531	 4.302731	 -1.058453
H	 -0.240273	 4.687739	 -0.567147
C	 1.263743	 1.540246	 -0.616263
H	 0.529635	 2.907689	 0.873098
H	 -0.714072	 2.271314	 -0.161454
C	 1.180775	 0.282413	 0.250794
H	 2.282253	 1.922804	 -0.604752
H	 1.053169	 1.276832	 -1.651064
C	 2.148627	 -0.814315	 -0.201312
H	 1.381660	 0.553304	 1.284232
H	 0.163014	 -0.104901	 0.227680
C	 3.580890	 -0.659131	 0.322722
H	 2.166869	 -0.852443	 -1.289387
H	 1.762857	 -1.776509	 0.128956
C	 4.324889	 0.564933	 -0.213704
H	 4.142010	 -1.551473	 0.056605
H	 3.564836	 -0.624694	 1.410140
H	 4.342616	 0.565491	 -1.300421
H	 3.866655	 1.493402	 0.110242
H	 5.353900	 0.572371	 0.132816

	symmetry c1
}
set optking {
	frozen_dihedral = ("
		8 11 14 18
	")
}

ee = optimize('scf')
oeprop('DIPOLE', 'QUADRUPOLE', 'MULLIKEN_CHARGES')
f=open( 'psi4out.xyz', 'w' )
f.write( "25  " )
f.write( str(ee) + "\n" )
f.write( MOL.save_string_xyz() )
f.close()
--------------------------------------------------------------------------

    Molecular point group: c1
  Charge       = 0
  Multiplicity = 1
  Basis Set: 6-31G*
  Basis Set:
  @DF-RHF Final Energy:  -387.11379208409903
    Total Energy =                       -387.1137920840983497
    Molecular point group: c1
  Basis Set: 6-31G*
  Basis Set:
  Basis Set: 6-31G*
  Basis Set:
  @DF-RHF Final Energy:  -387.11699305042276
    Total Energy =                       -387.1169930504229342
  Basis Set: 6-31G*
  Basis Set:
  Basis Set: 6-31G*
  Basis Set:
  @DF-RHF Final Energy:  -387.11636608578237
    Total Energy =                       -387.1163660857826017
  Basis Set: 6-31G*
  Basis Set:
  Basis Set: 6-31G*
  Basis Set:
  @DF-RHF Final Energy:  -387.11673592184576
    Total Energy =                       -387.1167359218455886
  Basis Set: 6-31G*
  Basis Set:
  @DF-RHF Final Energy:  -387.11729276713430
    Total Energy =                       -387.1172927671340176
  Basis Set: 6-31G*
  Basis Set:
  @DF-RHF Final Energy:  -387.11725614538449
    Total Energy =                       -387.1172561453845447
  Basis Set: 6-31G*
  Basis Set:
  Basis Set: 6-31G*
  Basis Set:
  @DF-RHF Final Energy:  -387.11725036438003
    Total Energy =                       -387.1172503643798564
  Basis Set: 6-31G*
  Basis Set:
  Basis Set: 6-31G*
  Basis Set:
  @DF-RHF Final Energy:  -387.11730526293371
    Total Energy =                       -387.1173052629333142
  Basis Set: 6-31G*
  Basis Set:
  Charge       = 0
  Multiplicity = 1
  Basis Set: 6-31G*
  Basis Set:

    Orbital Energies (a.u.)
    -----------------------

    Doubly Occupied:

       1A    -20.561847     2A    -11.326019     3A    -11.235017
       4A    -11.234428     5A    -11.222573     6A    -11.220769
       7A    -11.218317     8A    -11.217595     9A    -11.210045
      10A     -1.401794    11A     -1.102800    12A     -1.067495
      13A     -1.011138    14A     -0.946855    15A     -0.875907
      16A     -0.821538    17A     -0.787796    18A     -0.777969
      19A     -0.664469    20A     -0.660500    21A     -0.631499
      22A     -0.620486    23A     -0.607934    24A     -0.593175
      25A     -0.566471    26A     -0.559977    27A     -0.531972
      28A     -0.522670    29A     -0.518251    30A     -0.495194
      31A     -0.488485    32A     -0.482939    33A     -0.463224
      34A     -0.448913    35A     -0.441745    36A     -0.409353

  @DF-RHF Final Energy:  -387.11730574955726

   => Energetics <=

    Nuclear Repulsion Energy =            447.6351129373436493
    One-Electron Energy =               -1411.6105173663218011
    Two-Electron Energy =                 576.8580986794206638
    DFT Exchange-Correlation Energy =       0.0000000000000000
    Empirical Dispersion Energy =           0.0000000000000000
    PCM Polarization Energy =               0.0000000000000000
    EFP Energy =                            0.0000000000000000
    Total Energy =                       -387.1173057495575449
    Molecular point group: c1
  Basis Set: 6-31G*
  Basis Set:

  -Total Gradient:
     Atom            X                  Y                   Z
    ------   -----------------  -----------------  -----------------
       1       -0.000004771183     0.000011070618     0.000000076724
       2        0.000014998878    -0.000039046513    -0.000008730944
       3        0.000012273122     0.000013812774     0.000015767020
       4       -0.000007463187     0.000007949283     0.000009259634
       5       -0.000001557239     0.000005525156    -0.000016436877
       6        0.000002811813     0.000005726428     0.000003637725
       7       -0.000001241983    -0.000000530436     0.000002991260
       8        0.000612871874     0.000331702889     0.000504457015
       9       -0.000000040898    -0.000007689527    -0.000006367710
      10       -0.000009200115     0.000004653401    -0.000003815583
      11       -0.001098863834    -0.000667945053    -0.000712531231
      12       -0.000018208883     0.000001922635    -0.000015425461
      13        0.000004107886     0.000000675468     0.000005878455
      14        0.001368148593     0.001098122425     0.000158294434
      15        0.000005444967     0.000001985755    -0.000005039369
      16       -0.000002682955    -0.000004976516     0.000005274494
      17        0.000009564596     0.000004545165     0.000015743011
      18       -0.000896663522    -0.000761897629     0.000046681628
      19       -0.000002876135     0.000003072839    -0.000007926419
      20       -0.000004549497     0.000013454036     0.000021007949
      21        0.000003189655     0.000000213499    -0.000004239100
      22        0.000010369692    -0.000000755407     0.000000874017
      23       -0.000007375061    -0.000004352100    -0.000006584807
      24        0.000019625050    -0.000014097384    -0.000004184144
      25       -0.000007911631    -0.000003141804     0.000001338286

  **** Optimization is complete! (in 9 steps) ****
    Final optimized geometry and variables:
    Molecular point group: c1

    Geometry (in Angstrom), charge = 0, multiplicity = 1:

    H           -2.686065403059     1.515530972753    -1.677405972702
    C           -1.712252200168     2.013677825722    -1.591735311317
    C           -1.237833992504     2.246872461437    -0.179885229028
    O           -1.117229834768     2.333294648273    -2.569320478087
    C           -1.259370401001     0.966716885906     0.667062443703
    H           -0.245823214629     2.681784113038    -0.220123946342
    H           -1.906863989760     2.982293268932     0.265164675739
    C           -0.246740779338    -0.086294226663     0.207838953334
    H           -1.058320493178     1.234496019370     1.700389715216
    H           -2.262081517393     0.542580161802     0.654612172112
    C           -0.288426394067    -1.350555034577     1.072791515646
    H            0.743700764802     0.354309175826     0.214533955919
    H           -0.446295041518    -0.361135089412    -0.826481397785
    C            0.662468310659    -2.483321489431     0.648153524492
    H           -0.094430893765    -1.087059899912     2.111610355857
    H           -1.305733292450    -1.735041315622     1.048657177471
    C            2.100648219881    -2.426606787775     1.182275460522
    H            0.673565036052    -2.559338276467    -0.437946925680
    H            0.236108732403    -3.419571253516     1.000268144197
    C            2.973341257955    -1.271688135571     0.687417636737
    H            2.585496153995    -3.361243471264     0.910681715215
    H            2.071231433044    -2.410423006902     2.270006678307
    H            2.962057669181    -1.202398795421    -0.396661608619
    H            2.651517914542    -0.316369803588     1.086243296163
    H            4.003586597563    -1.417901198367     0.997400511725

  Mulliken Charges: (a.u.)
   Center  Symbol    Alpha    Beta     Spin     Total
       1     H     0.43263  0.43263  0.00000  0.13474
       2     C     2.83069  2.83069  0.00000  0.33863
       3     C     3.20808  3.20808  0.00000 -0.41617
       4     O     4.23787  4.23787  0.00000 -0.47574
       5     C     3.16692  3.16692  0.00000 -0.33384
       6     H     0.39984  0.39984  0.00000  0.20032
       7     H     0.40669  0.40669  0.00000  0.18662
       8     C     3.15717  3.15717  0.00000 -0.31434
       9     H     0.41306  0.41306  0.00000  0.17388
      10     H     0.41983  0.41983  0.00000  0.16034
      11     C     3.15519  3.15519  0.00000 -0.31037
      12     H     0.41377  0.41377  0.00000  0.17246
      13     H     0.41907  0.41907  0.00000  0.16187
      14     C     3.15565  3.15565  0.00000 -0.31129
      15     H     0.42277  0.42277  0.00000  0.15447
      16     H     0.42158  0.42158  0.00000  0.15684
      17     C     3.15104  3.15104  0.00000 -0.30209
      18     H     0.42197  0.42197  0.00000  0.15606
      19     H     0.41998  0.41998  0.00000  0.16005
      20     C     3.24172  3.24172  0.00000 -0.48345
      21     H     0.42070  0.42070  0.00000  0.15860
      22     H     0.42353  0.42353  0.00000  0.15295
      23     H     0.41995  0.41995  0.00000  0.16011
      24     H     0.42160  0.42160  0.00000  0.15680
      25     H     0.41872  0.41872  0.00000  0.16256

   Total alpha = 36.00000, Total beta = 36.00000, Total charge = -0.00000
