  ==> Input File <==

--------------------------------------------------------------------------
set {
	reference rhf
	basis 6-31G*
}

set_num_threads( 4 )
memory 2 gb

molecule MOL {
0 1

H	 -0.977475	 -0.162409	 -1.048267
N	 -0.712432	 0.000013	 -0.096310
C	 0.734192	 -0.000004	 0.040609
H	 -1.119138	 -0.735555	 0.448106
H	 1.139899	 -0.873598	 -0.456463
H	 1.139939	 0.873831	 -0.456100
H	 1.096456	 -0.000300	 1.069655

	symmetry c1
}
set optking {
	frozen_dihedral = ("
		1 2 3 7
	")
}

ee = optimize('scf')
oeprop('DIPOLE', 'QUADRUPOLE', 'MULLIKEN_CHARGES')
f=open( 'psi4out.xyz', 'w' )
f.write( "7  " )
f.write( str(ee) + "\n" )
f.write( MOL.save_string_xyz() )
f.close()
--------------------------------------------------------------------------

    Molecular point group: c1
  Charge       = 0
  Multiplicity = 1
  Basis Set: 6-31G*
  Basis Set:
  @DF-RHF Final Energy:   -95.20740499027497
    Total Energy =                        -95.2074049902749664
    Molecular point group: c1
  Basis Set: 6-31G*
  Basis Set:
  Basis Set: 6-31G*
  Basis Set:
  @DF-RHF Final Energy:   -95.20927356319216
    Total Energy =                        -95.2092735631921698
  Basis Set: 6-31G*
  Basis Set:
  Basis Set: 6-31G*
  Basis Set:
  @DF-RHF Final Energy:   -95.20953822404967
    Total Energy =                        -95.2095382240496377
  Basis Set: 6-31G*
  Basis Set:
  Basis Set: 6-31G*
  Basis Set:
  @DF-RHF Final Energy:   -95.20954042922148
    Total Energy =                        -95.2095404292214766
  Basis Set: 6-31G*
  Basis Set:
  Charge       = 0
  Multiplicity = 1
  Basis Set: 6-31G*
  Basis Set:

    Orbital Energies (a.u.)
    -----------------------

    Doubly Occupied:

       1A    -15.535203     2A    -11.237635     3A     -1.171150
       4A     -0.896784     5A     -0.664017     6A     -0.602954
       7A     -0.556668     8A     -0.517863     9A     -0.384577

  @DF-RHF Final Energy:   -95.20954066057908

   => Energetics <=

    Nuclear Repulsion Energy =             42.3221504701352487
    One-Electron Energy =                -211.9296811623153189
    Two-Electron Energy =                  74.3979900316009832
    DFT Exchange-Correlation Energy =       0.0000000000000000
    Empirical Dispersion Energy =           0.0000000000000000
    PCM Polarization Energy =               0.0000000000000000
    EFP Energy =                            0.0000000000000000
    Total Energy =                        -95.2095406605790799
    Molecular point group: c1
  Basis Set: 6-31G*
  Basis Set:

  -Total Gradient:
     Atom            X                  Y                   Z
    ------   -----------------  -----------------  -----------------
       1       -0.000040151603    -0.001516480797     0.000283571464
       2        0.000044986687     0.001535199075    -0.000342477141
       3        0.000035102286     0.001401085733     0.000037226362
       4       -0.000019091920    -0.000005471063     0.000001584620
       5       -0.000000267459     0.000004742011    -0.000003132283
       6        0.000001425304    -0.000011121724     0.000005025750
       7       -0.000022003295    -0.001407953235     0.000018201229

  **** Optimization is complete! (in 5 steps) ****
    Final optimized geometry and variables:
    Molecular point group: c1

    Geometry (in Angstrom), charge = 0, multiplicity = 1:

    H           -1.011116225684    -0.125700653428    -0.980913191835
    N           -0.717735542986     0.040665233799    -0.037695558034
    C            0.733317589080     0.015237281364     0.058452903751
    H           -1.115109030373    -0.694484528913     0.514515392392
    H            1.203324491176    -0.852273776663    -0.406985531393
    H            1.143768833152     0.906214922818    -0.402443015161
    H            1.020114062100     0.019799335229     1.103592921855

  Mulliken Charges: (a.u.)
   Center  Symbol    Alpha    Beta     Spin     Total
       1     H     0.33398  0.33398  0.00000  0.33204
       2     N     3.91609  3.91609  0.00000 -0.83218
       3     C     3.14819  3.14819  0.00000 -0.29638
       4     H     0.33415  0.33415  0.00000  0.33170
       5     H     0.43334  0.43334  0.00000  0.13332
       6     H     0.41632  0.41632  0.00000  0.16737
       7     H     0.41794  0.41794  0.00000  0.16412

   Total alpha =  9.00000, Total beta =  9.00000, Total charge = -0.00000
