  ==> Input File <==

--------------------------------------------------------------------------
set {
	reference rhf
	basis 6-31G*
}

set_num_threads( 4 )
memory 2 gb

molecule MOL {
0 1

H	 -1.836216	 1.387520	 -0.000064
C	 -1.301823	 0.443321	 -0.000031
O	 -0.003969	 0.658512	 0.000451
O	 -1.829879	 -0.616434	 -0.000857
C	 0.850537	 -0.484732	 0.000380
C	 1.678367	 -0.432835	 1.266209
H	 1.469460	 -0.457246	 -0.885902
H	 0.240532	 -1.376445	 -0.044759
H	 2.276625	 0.470552	 1.298023
H	 2.344980	 -1.288015	 1.305294
H	 1.041883	 -0.453086	 2.143344

	symmetry c1
}
set optking {
	frozen_dihedral = ("
		7 5 3 2
	")
}

ee = optimize('scf')
oeprop('DIPOLE', 'QUADRUPOLE', 'MULLIKEN_CHARGES')
f=open( 'psi4out.xyz', 'w' )
f.write( "11  " )
f.write( str(ee) + "\n" )
f.write( MOL.save_string_xyz() )
f.close()
--------------------------------------------------------------------------

    Molecular point group: c1
  Charge       = 0
  Multiplicity = 1
  Basis Set: 6-31G*
  Basis Set:
  @DF-RHF Final Energy:  -266.82610512430585
    Total Energy =                       -266.8261051243057409
    Molecular point group: c1
  Basis Set: 6-31G*
  Basis Set:
  Basis Set: 6-31G*
  Basis Set:
  @DF-RHF Final Energy:  -266.82650619214536
    Total Energy =                       -266.8265061921457573
  Basis Set: 6-31G*
  Basis Set:
  Basis Set: 6-31G*
  Basis Set:
  @DF-RHF Final Energy:  -266.82609887263163
    Total Energy =                       -266.8260988726316327
  Basis Set: 6-31G*
  Basis Set:
  Basis Set: 6-31G*
  Basis Set:
  @DF-RHF Final Energy:  -266.82697156671361
    Total Energy =                       -266.8269715667135529
  Basis Set: 6-31G*
  Basis Set:
  Basis Set: 6-31G*
  Basis Set:
  @DF-RHF Final Energy:  -266.82701520029764
    Total Energy =                       -266.8270152002976943
  Basis Set: 6-31G*
  Basis Set:
  Basis Set: 6-31G*
  Basis Set:
  @DF-RHF Final Energy:  -266.82702527720033
    Total Energy =                       -266.8270252772001641
  Basis Set: 6-31G*
  Basis Set:
  Charge       = 0
  Multiplicity = 1
  Basis Set: 6-31G*
  Basis Set:

    Orbital Energies (a.u.)
    -----------------------

    Doubly Occupied:

       1A    -20.612128     2A    -20.556133     3A    -11.379760
       4A    -11.290533     5A    -11.226373     6A     -1.473736
       7A     -1.374277     8A     -1.051448     9A     -0.908021
      10A     -0.800102    11A     -0.745171    12A     -0.683554
      13A     -0.664347    14A     -0.612028    15A     -0.571214
      16A     -0.550533    17A     -0.534080    18A     -0.503334
      19A     -0.455894    20A     -0.453780

  @DF-RHF Final Energy:  -266.82702559042161

   => Energetics <=

    Nuclear Repulsion Energy =            179.7851315057653494
    One-Electron Energy =                -720.3314224534153709
    Two-Electron Energy =                 273.7192653572282666
    DFT Exchange-Correlation Energy =       0.0000000000000000
    Empirical Dispersion Energy =           0.0000000000000000
    PCM Polarization Energy =               0.0000000000000000
    EFP Energy =                            0.0000000000000000
    Total Energy =                       -266.8270255904217834
    Molecular point group: c1
  Basis Set: 6-31G*
  Basis Set:

  -Total Gradient:
     Atom            X                  Y                   Z
    ------   -----------------  -----------------  -----------------
       1       -0.000005241535     0.000004844201    -0.000006085880
       2       -0.000024116148    -0.000009418756    -0.000238540021
       3       -0.000035974964    -0.000025161838     0.000328347832
       4        0.000016199442     0.000012734242    -0.000006783525
       5        0.000229146816     0.000159827542     0.000061069480
       6        0.000015720070     0.000004793915     0.000001015624
       7       -0.000198305950    -0.000143438706    -0.000137959456
       8       -0.000001509749    -0.000005356934    -0.000007391728
       9        0.000002760367     0.000000350092     0.000007292976
      10        0.000001238646     0.000000876545     0.000003379211
      11        0.000000083010    -0.000000050301    -0.000004344514

  **** Optimization is complete! (in 7 steps) ****
    Final optimized geometry and variables:
    Molecular point group: c1

    Geometry (in Angstrom), charge = 0, multiplicity = 1:

    H           -1.684743186365     1.508216488417    -0.297760217654
    C           -1.186547728971     0.544852064450    -0.275999447233
    O            0.117987456090     0.724241729811    -0.261831771086
    O           -1.759695593197    -0.490988091137    -0.265959253843
    C            0.988409533843    -0.409248203013    -0.232390696850
    C            1.841867834630    -0.348781635987     1.018856750298
    H            1.595592234724    -0.346297173048    -1.125184531007
    H            0.400948858565    -1.311630535260    -0.272331032158
    H            2.399311952998     0.579866941696     1.060486732154
    H            2.547273993362    -1.173692962210     1.025317996704
    H            1.225108420983    -0.420096032608     1.907859197165

  Mulliken Charges: (a.u.)
   Center  Symbol    Alpha    Beta     Spin     Total
       1     H     0.41222  0.41222  0.00000  0.17556
       2     C     2.72645  2.72645  0.00000  0.54711
       3     O     4.29247  4.29247  0.00000 -0.58494
       4     O     4.26350  4.26350  0.00000 -0.52700
       5     C     3.01598  3.01598  0.00000 -0.03196
       6     C     3.24750  3.24750  0.00000 -0.49501
       7     H     0.41065  0.41065  0.00000  0.17871
       8     H     0.39328  0.39328  0.00000  0.21345
       9     H     0.41057  0.41057  0.00000  0.17885
      10     H     0.41607  0.41607  0.00000  0.16785
      11     H     0.41131  0.41131  0.00000  0.17738

   Total alpha = 20.00000, Total beta = 20.00000, Total charge =  0.00000
