  ==> Input File <==

--------------------------------------------------------------------------
set {
	reference rhf
	basis cc-pvtz
}

set_num_threads( 4 )
memory 2 gb

molecule MOL {
0 1

H	 -2.656657	 0.818198	 0.962451
C	 -2.103808	 1.726085	 1.192630
O	 -0.735677	 1.538206	 1.049597
H	 -2.405105	 2.500817	 0.502776
H	 -2.361224	 2.038518	 2.203079
C	 -0.198950	 0.568846	 1.888586
C	 1.263701	 0.376180	 1.575732
H	 -0.299894	 0.873472	 2.930211
H	 -0.718981	 -0.378549	 1.764328
O	 1.401606	 -0.295166	 0.366636
H	 1.751495	 1.347664	 1.534433
H	 1.724153	 -0.197082	 2.380298
C	 2.714315	 -0.441627	 -0.061017
H	 2.765292	 -0.641548	 -1.128869
H	 3.305661	 0.447341	 0.150952
H	 3.143725	 -1.278506	 0.470147

	symmetry c1
}
set optking {
	frozen_dihedral = ("
		7 10 13 14
	")
}

ee = optimize('scf')
oeprop('DIPOLE', 'QUADRUPOLE', 'MULLIKEN_CHARGES')
f=open( 'psi4out.xyz', 'w' )
f.write( "16  " )
f.write( str(ee) + "\n" )
f.write( MOL.save_string_xyz() )
f.close()
--------------------------------------------------------------------------

    Molecular point group: c1
  Charge       = 0
  Multiplicity = 1
  Basis Set: CC-PVTZ
  Basis Set:
  @DF-RHF Final Energy:  -307.09597084904004
    Total Energy =                       -307.0959708490403273
    Molecular point group: c1
  Basis Set: CC-PVTZ
  Basis Set:
  Basis Set: CC-PVTZ
  Basis Set:
  @DF-RHF Final Energy:  -307.09683830812611
    Total Energy =                       -307.0968383081258821
  Basis Set: CC-PVTZ
  Basis Set:
  Basis Set: CC-PVTZ
  Basis Set:
  @DF-RHF Final Energy:  -307.09703132621496
    Total Energy =                       -307.0970313262149602
  Basis Set: CC-PVTZ
  Basis Set:
  Charge       = 0
  Multiplicity = 1
  Basis Set: CC-PVTZ
  Basis Set:

    Orbital Energies (a.u.)
    -----------------------

    Doubly Occupied:

       1A    -20.547725     2A    -20.546997     3A    -11.267609
       4A    -11.266868     5A    -11.261555     6A    -11.261437
       7A     -1.391248     8A     -1.373918     9A     -1.032062
      10A     -0.937270    11A     -0.892204    12A     -0.824353
      13A     -0.686032    14A     -0.682509    15A     -0.659195
      16A     -0.638458    17A     -0.631465    18A     -0.598263
      19A     -0.552455    20A     -0.536013    21A     -0.509421
      22A     -0.479148    23A     -0.464597    24A     -0.422983
      25A     -0.413052

  @DF-RHF Final Energy:  -307.09703206480316

   => Energetics <=

    Nuclear Repulsion Energy =            258.8532349455536519
    One-Electron Energy =                -932.1468658865417183
    Two-Electron Energy =                 366.1965988761847939
    DFT Exchange-Correlation Energy =       0.0000000000000000
    Empirical Dispersion Energy =           0.0000000000000000
    PCM Polarization Energy =               0.0000000000000000
    EFP Energy =                            0.0000000000000000
    Total Energy =                       -307.0970320648033294
    Molecular point group: c1
  Basis Set: CC-PVTZ
  Basis Set:

  -Total Gradient:
     Atom            X                  Y                   Z
    ------   -----------------  -----------------  -----------------
       1        0.000000898306    -0.000000018352    -0.000001318363
       2        0.000002151864    -0.000006612670     0.000010306296
       3        0.000010450024     0.000021680137     0.000000938422
       4        0.000006694275    -0.000001435525     0.000000395522
       5       -0.000004937446     0.000002319344     0.000000645214
       6       -0.000013212817    -0.000078959171    -0.000073617971
       7        0.000009033363     0.001836400698    -0.000935786603
       8        0.000034962243    -0.000002548447    -0.000018131989
       9       -0.000023629110    -0.000013737377     0.000011271068
      10        0.000126024066    -0.001961872883     0.001216052780
      11        0.000018846026     0.000017590882     0.000011277366
      12       -0.000015062314    -0.000017816122    -0.000044651108
      13       -0.000173892865    -0.002201135606     0.000211577706
      14        0.000081946477     0.002396277598    -0.000408134625
      15       -0.000029023369     0.000017921704     0.000011548676
      16       -0.000031248718    -0.000008054205     0.000007627612

  **** Optimization is complete! (in 4 steps) ****
    Final optimized geometry and variables:
    Molecular point group: c1

    Geometry (in Angstrom), charge = 0, multiplicity = 1:

    H           -3.044337360279     0.240992296418    -0.047551323345
    C           -2.492044451849     1.148011706243     0.187304338308
    O           -1.123285084063     0.959115471618     0.052007495806
    H           -2.788563161470     1.924110440880    -0.503077297071
    H           -2.755151976887     1.459101361067     1.196720754724
    C           -0.592482331912    -0.012340672599     0.892302389091
    C            0.872144630624    -0.204849437020     0.588404014604
    H           -0.699271794818     0.290546133634     1.933874691349
    H           -1.112616049752    -0.958994381349     0.763320693510
    O            1.015764050359    -0.868428331021    -0.624358190453
    H            1.361337842754     0.765631352710     0.554307932329
    H            1.324712615057    -0.781889428254     1.395091164748
    C            2.328124850169    -1.029337378343    -1.052105557984
    H            2.311707447646    -1.217395677258    -2.116111576281
    H            2.914661669792    -0.129782791333    -0.881522316974
    H            2.815829133974    -1.858579502252    -0.544909365783

  Mulliken Charges: (a.u.)
   Center  Symbol    Alpha    Beta     Spin     Total
       1     H     0.47020  0.47020  0.00000  0.05959
       2     C     3.03203  3.03203  0.00000 -0.06405
       3     O     4.17033  4.17033  0.00000 -0.34066
       4     H     0.44638  0.44638  0.00000  0.10724
       5     H     0.47371  0.47371  0.00000  0.05258
       6     C     2.96134  2.96134  0.00000  0.07733
       7     C     2.96031  2.96031  0.00000  0.07938
       8     H     0.47621  0.47621  0.00000  0.04757
       9     H     0.47068  0.47068  0.00000  0.05863
      10     O     4.17150  4.17150  0.00000 -0.34301
      11     H     0.46905  0.46905  0.00000  0.06190
      12     H     0.47738  0.47738  0.00000  0.04524
      13     C     3.03058  3.03058  0.00000 -0.06115
      14     H     0.44752  0.44752  0.00000  0.10496
      15     H     0.47405  0.47405  0.00000  0.05189
      16     H     0.46872  0.46872  0.00000  0.06256

   Total alpha = 25.00000, Total beta = 25.00000, Total charge = -0.00000
