  ==> Input File <==

--------------------------------------------------------------------------
set {
	reference rhf
	basis 6-31G*
}

set_num_threads( 4 )
memory 2 gb

molecule MOL {
0 1

O	 -0.682937	 1.318834	 -0.186099
C	 -0.860635	 0.152188	 -0.042321
C	 -2.173363	 -0.477127	 0.338347
O	 0.083258	 -0.765189	 -0.202595
H	 -2.477673	 -1.180929	 -0.427595
H	 -2.923125	 0.290956	 0.455536
H	 -2.058825	 -1.029004	 1.264191
C	 1.326451	 -0.366206	 -0.775379
C	 2.257459	 0.220923	 0.269202
H	 1.140214	 0.335778	 -1.573924
H	 1.736429	 -1.274604	 -1.192789
H	 3.219964	 0.444195	 -0.180759
H	 1.851309	 1.138495	 0.675982
H	 2.415018	 -0.483452	 1.078799

	symmetry c1
}
set optking {
	frozen_dihedral = ("
		8 4 2 1
	")
}

ee = optimize('scf')
oeprop('DIPOLE', 'QUADRUPOLE', 'MULLIKEN_CHARGES')
f=open( 'psi4out.xyz', 'w' )
f.write( "14  " )
f.write( str(ee) + "\n" )
f.write( MOL.save_string_xyz() )
f.close()
--------------------------------------------------------------------------

    Molecular point group: c1
  Charge       = 0
  Multiplicity = 1
  Basis Set: 6-31G*
  Basis Set:
  @DF-RHF Final Energy:  -305.87484347992626
    Total Energy =                       -305.8748434799263123
    Molecular point group: c1
  Basis Set: 6-31G*
  Basis Set:
  Basis Set: 6-31G*
  Basis Set:
  @DF-RHF Final Energy:  -305.87358809813225
    Total Energy =                       -305.8735880981325863
  Basis Set: 6-31G*
  Basis Set:
  Basis Set: 6-31G*
  Basis Set:
  @DF-RHF Final Energy:  -305.87494600364801
    Total Energy =                       -305.8749460036480627
  Basis Set: 6-31G*
  Basis Set:
  Basis Set: 6-31G*
  Basis Set:
  @DF-RHF Final Energy:  -305.87496477011837
    Total Energy =                       -305.8749647701184813
  Basis Set: 6-31G*
  Basis Set:
  Basis Set: 6-31G*
  Basis Set:
  @DF-RHF Final Energy:  -305.87497019021498
    Total Energy =                       -305.8749701902147535
  Basis Set: 6-31G*
  Basis Set:
  Basis Set: 6-31G*
  Basis Set:
  @DF-RHF Final Energy:  -305.87497148578291
    Total Energy =                       -305.8749714857827939
  Basis Set: 6-31G*
  Basis Set:
  Charge       = 0
  Multiplicity = 1
  Basis Set: 6-31G*
  Basis Set:

    Orbital Energies (a.u.)
    -----------------------

    Doubly Occupied:

       1A    -20.601473     2A    -20.545031     3A    -11.376089
       4A    -11.285781     5A    -11.233470     6A    -11.217222
       7A     -1.467457     8A     -1.362956     9A     -1.054877
      10A     -0.998383    11A     -0.881810    12A     -0.766779
      13A     -0.699294    14A     -0.681606    15A     -0.655750
      16A     -0.610359    17A     -0.586262    18A     -0.570136
      19A     -0.559995    20A     -0.529130    21A     -0.514011
      22A     -0.495194    23A     -0.449977    24A     -0.439179

  @DF-RHF Final Energy:  -305.87497184107951

   => Energetics <=

    Nuclear Repulsion Energy =            248.5584786187517068
    One-Electron Energy =                -909.7024564480329900
    Two-Electron Energy =                 355.2690059882016840
    DFT Exchange-Correlation Energy =       0.0000000000000000
    Empirical Dispersion Energy =           0.0000000000000000
    PCM Polarization Energy =               0.0000000000000000
    EFP Energy =                            0.0000000000000000
    Total Energy =                       -305.8749718410796277
    Molecular point group: c1
  Basis Set: 6-31G*
  Basis Set:

  -Total Gradient:
     Atom            X                  Y                   Z
    ------   -----------------  -----------------  -----------------
       1        0.000717986985     0.000437184862     0.003146400915
       2       -0.001544429387    -0.000934039169    -0.005887545541
       3       -0.000008336378    -0.000003903823    -0.000041919544
       4        0.001693910695     0.001130404915     0.005033847918
       5        0.000008706208    -0.000009058154     0.000015409339
       6        0.000005714448     0.000002820322     0.000007686802
       7        0.000004875376     0.000014919759     0.000017423196
       8       -0.000861254620    -0.000625523513    -0.002308316519
       9        0.000004587653    -0.000005973157     0.000011444297
      10       -0.000008154296    -0.000001822488     0.000002828804
      11       -0.000011363286    -0.000007035699     0.000001436330
      12       -0.000005039949     0.000000266617    -0.000000291100
      13        0.000002222962    -0.000000237345    -0.000000915658
      14        0.000000573592     0.000001996869     0.000002510762

  **** Optimization is complete! (in 7 steps) ****
    Final optimized geometry and variables:
    Molecular point group: c1

    Geometry (in Angstrom), charge = 0, multiplicity = 1:

    O           -0.712437119228     1.298026385949    -0.157936208336
    C           -0.870902545077     0.135168927831     0.031188947870
    C           -2.168111657087    -0.497772774160     0.456224502590
    O            0.092141704643    -0.769884165188    -0.080575940410
    H           -2.484334750244    -1.218702334554    -0.288890247822
    H           -2.922138024579     0.265661895855     0.576475487324
    H           -2.026080614910    -1.031068079454     1.389002027433
    C            1.335053540732    -0.370636206063    -0.654519716698
    C            2.278273114913     0.190679559606     0.393084270782
    H            1.148294289248     0.348506231168    -1.437931082313
    H            1.735140175666    -1.274007613225    -1.092279505649
    H            3.239609505177     0.414336477565    -0.059409633225
    H            1.880188427720     1.102833073825     0.818912201564
    H            2.435619364164    -0.529385119880     1.188800250886

  Mulliken Charges: (a.u.)
   Center  Symbol    Alpha    Beta     Spin     Total
       1     O     4.28378  4.28378  0.00000 -0.56757
       2     C     2.62058  2.62058  0.00000  0.75884
       3     C     3.28155  3.28155  0.00000 -0.56311
       4     O     4.30708  4.30708  0.00000 -0.61415
       5     H     0.40087  0.40087  0.00000  0.19826
       6     H     0.39710  0.39710  0.00000  0.20580
       7     H     0.39983  0.39983  0.00000  0.20035
       8     C     3.00656  3.00656  0.00000 -0.01313
       9     C     3.25349  3.25349  0.00000 -0.50698
      10     H     0.40451  0.40451  0.00000  0.19098
      11     H     0.41025  0.41025  0.00000  0.17949
      12     H     0.41852  0.41852  0.00000  0.16296
      13     H     0.40133  0.40133  0.00000  0.19735
      14     H     0.41454  0.41454  0.00000  0.17092

   Total alpha = 24.00000, Total beta = 24.00000, Total charge =  0.00000
