  ==> Input File <==

--------------------------------------------------------------------------
set {
	reference rhf
	basis 6-31G*
}

set_num_threads( 4 )
memory 2 gb

molecule MOL {
0 1

H	 2.866480	 -0.465706	 0.876907
C	 2.405773	 -0.024801	 0.000000
N	 0.988830	 -0.304158	 0.000000
H	 2.866480	 -0.465706	 -0.876907
H	 2.629928	 1.045948	 0.000000
C	 0.400889	 -0.182629	 1.321183
C	 0.679858	 -1.597606	 -0.580945
H	 0.841952	 -0.895490	 2.025307
H	 0.588194	 0.816323	 1.702309
C	 -1.097702	 -0.422790	 1.240331
H	 1.071437	 -1.634764	 -1.592642
H	 1.141250	 -2.413576	 -0.015428
C	 -0.826131	 -1.800244	 -0.611355
H	 -1.539312	 -0.424105	 2.228255
H	 -1.562660	 0.367131	 0.653125
O	 -1.374612	 -1.671089	 0.670222
H	 -1.071858	 -2.795106	 -0.959037
H	 -1.278312	 -1.075131	 -1.285680

	symmetry c1
}
set optking {
	frozen_dihedral = ("
		6 3 2 5
	")
}

ee = optimize('scf')
oeprop('DIPOLE', 'QUADRUPOLE', 'MULLIKEN_CHARGES')
f=open( 'psi4out.xyz', 'w' )
f.write( "18  " )
f.write( str(ee) + "\n" )
f.write( MOL.save_string_xyz() )
f.close()
--------------------------------------------------------------------------

    Molecular point group: c1
  Charge       = 0
  Multiplicity = 1
  Basis Set: 6-31G*
  Basis Set:
  @DF-RHF Final Energy:  -325.02586443853824
    Total Energy =                       -325.0258644385382354
    Molecular point group: c1
  Basis Set: 6-31G*
  Basis Set:
  Basis Set: 6-31G*
  Basis Set:
  @DF-RHF Final Energy:  -325.02673121139952
    Total Energy =                       -325.0267312113996923
  Basis Set: 6-31G*
  Basis Set:
  Basis Set: 6-31G*
  Basis Set:
  @DF-RHF Final Energy:  -325.02683566879335
    Total Energy =                       -325.0268356687931828
  Basis Set: 6-31G*
  Basis Set:
  Charge       = 0
  Multiplicity = 1
  Basis Set: 6-31G*
  Basis Set:

    Orbital Energies (a.u.)
    -----------------------

    Doubly Occupied:

       1A    -20.553835     2A    -15.549616     3A    -11.266069
       4A    -11.266047     5A    -11.244123     6A    -11.243913
       7A    -11.240866     8A     -1.383311     9A     -1.231361
      10A     -1.038063    11A     -0.981027    12A     -0.882259
      13A     -0.869286    14A     -0.775215    15A     -0.683387
      16A     -0.644764    17A     -0.643064    18A     -0.632253
      19A     -0.629518    20A     -0.571773    21A     -0.556518
      22A     -0.543570    23A     -0.526120    24A     -0.501430
      25A     -0.482308    26A     -0.452084    27A     -0.407632
      28A     -0.354652

  @DF-RHF Final Energy:  -325.02683746773607

   => Energetics <=

    Nuclear Repulsion Energy =            341.3893780925870942
    One-Electron Energy =               -1118.5243076085148459
    Two-Electron Energy =                 452.1080920481919065
    DFT Exchange-Correlation Energy =       0.0000000000000000
    Empirical Dispersion Energy =           0.0000000000000000
    PCM Polarization Energy =               0.0000000000000000
    EFP Energy =                            0.0000000000000000
    Total Energy =                       -325.0268374677358452
    Molecular point group: c1
  Basis Set: 6-31G*
  Basis Set:

  -Total Gradient:
     Atom            X                  Y                   Z
    ------   -----------------  -----------------  -----------------
       1        0.000030475964    -0.000023250444     0.000025768334
       2        0.000120322053    -0.001230556816     0.005955911639
       3       -0.000743263136     0.004441352318    -0.001842762954
       4        0.000003464974     0.000003561143    -0.000003758250
       5        0.000046933308     0.000025576875    -0.004582801198
       6        0.000648818430    -0.003239057518     0.000467055574
       7       -0.000009716613     0.000133319460    -0.000100456226
       8        0.000024082872    -0.000007512389    -0.000017399849
       9       -0.000014774750     0.000005351143     0.000057360458
      10       -0.000049146276     0.000011990598     0.000011564018
      11        0.000002194829    -0.000045001832    -0.000014046332
      12       -0.000019117190     0.000013951408     0.000002841848
      13       -0.000012962247    -0.000061591348    -0.000018846559
      14       -0.000017784802    -0.000021444340    -0.000004100375
      15        0.000000126695     0.000010290984     0.000005878088
      16       -0.000004726114    -0.000000432276     0.000043131586
      17       -0.000029274344    -0.000012146288     0.000005281686
      18        0.000024346349    -0.000004400678     0.000009378511

  **** Optimization is complete! (in 4 steps) ****
    Final optimized geometry and variables:
    Molecular point group: c1

    Geometry (in Angstrom), charge = 0, multiplicity = 1:

    H            2.758752378205     0.377116107776     0.563022527491
    C            2.243461997444     0.835473424231    -0.283185303606
    N            0.821462727745     0.559891293632    -0.302643365160
    H            2.697809573210     0.458000631748    -1.192301573323
    H            2.415992330880     1.906672241642    -0.272877790941
    C            0.230687500056     0.676854712331     1.019000773023
    C            0.510031188786    -0.742668767893    -0.868223989744
    H            0.668563922948    -0.044594728027     1.715595426106
    H            0.426062046810     1.671329509712     1.409072722317
    C           -1.269463247708     0.448143724581     0.939322943157
    H            0.903847301289    -0.794688858061    -1.877922551825
    H            0.962297661358    -1.555101321716    -0.290795251170
    C           -0.996995890355    -0.937482801829    -0.905815532266
    H           -1.710672838951     0.451156707035     1.927500678791
    H           -1.729088265292     1.240383156556     0.351257623595
    O           -1.554262344559    -0.799116931055     0.370978649146
    H           -1.246094842418    -1.932376161403    -1.251281248761
    H           -1.439676348444    -0.212383116979    -1.586339448210

  Mulliken Charges: (a.u.)
   Center  Symbol    Alpha    Beta     Spin     Total
       1     H     0.42982  0.42982  0.00000  0.14035
       2     C     3.14098  3.14098  0.00000 -0.28197
       3     N     3.78703  3.78703  0.00000 -0.57406
       4     H     0.41806  0.41806  0.00000  0.16388
       5     H     0.41423  0.41423  0.00000  0.17154
       6     C     3.07012  3.07012  0.00000 -0.14024
       7     C     3.06991  3.06991  0.00000 -0.13982
       8     H     0.42767  0.42767  0.00000  0.14466
       9     H     0.41638  0.41638  0.00000  0.16725
      10     C     2.99722  2.99722  0.00000  0.00555
      11     H     0.41645  0.41645  0.00000  0.16710
      12     H     0.42827  0.42827  0.00000  0.14345
      13     C     2.99757  2.99757  0.00000  0.00486
      14     H     0.41332  0.41332  0.00000  0.17336
      15     H     0.42378  0.42378  0.00000  0.15245
      16     O     4.31203  4.31203  0.00000 -0.62406
      17     H     0.41332  0.41332  0.00000  0.17335
      18     H     0.42383  0.42383  0.00000  0.15234

   Total alpha = 28.00000, Total beta = 28.00000, Total charge =  0.00000
