                              Psi4 1.0.54 Driver

  ==> Input File <==

--------------------------------------------------------------------------
set {
	reference rhf
	basis cc-pvtz
}

set_num_threads( 4 )
memory 2 gb

molecule MOL {
0 1

H	 2.838613	 -0.431309	 0.155842
O	 2.012307	 -0.863440	 0.000222
C	 1.050374	 0.054877	 0.000135
C	 -0.318151	 -0.570512	 0.000144
O	 1.286319	 1.213453	 -0.000040
C	 -1.454884	 0.441630	 -0.000560
H	 -0.371613	 -1.223646	 -0.864985
H	 -0.371920	 -1.222758	 0.865929
C	 -2.822577	 -0.232186	 0.000063
H	 -1.359760	 1.084704	 -0.867077
H	 -1.359641	 1.085996	 0.864983
H	 -2.954352	 -0.858985	 -0.875745
H	 -3.615886	 0.505352	 0.000019
H	 -2.953878	 -0.858359	 0.876394

	symmetry c1
}
set optking {
	frozen_dihedral = ("
		1 2 3 5
	")
}

ee,wfn = optimize('scf', return_wfn=True)
oeprop( wfn, 'DIPOLE', 'QUADRUPOLE', 'MULLIKEN_CHARGES')
f=open( 'psi4out.xyz', 'w' )
f.write( "14  " )
f.write( str(ee) + "\n" )
f.write( MOL.save_string_xyz() )
f.close()
--------------------------------------------------------------------------

    Molecular point group: c1
  Charge       = 0
  Multiplicity = 1
  Basis Set: CC-PVTZ
  Basis Set:
  @DF-RHF Final Energy:  -306.00045290906962
    Total Energy =                       -306.0004529090696224
    Molecular point group: c1
  Basis Set: CC-PVTZ
  Basis Set:
  Basis Set: CC-PVTZ
  Basis Set:
  @DF-RHF Final Energy:  -305.99917173079359
    Total Energy =                       -305.9991717307937620
  Basis Set: CC-PVTZ
  Basis Set:
  Basis Set: CC-PVTZ
  Basis Set:
  @DF-RHF Final Energy:  -306.00050309357835
    Total Energy =                       -306.0005030935782315
  Basis Set: CC-PVTZ
  Basis Set:
  Basis Set: CC-PVTZ
  Basis Set:
  @DF-RHF Final Energy:  -306.00050940572447
    Total Energy =                       -306.0005094057243582
  Basis Set: CC-PVTZ
  Basis Set:
  Basis Set: CC-PVTZ
  Basis Set:
  @DF-RHF Final Energy:  -306.00051157305495
    Total Energy =                       -306.0005115730550074
  Basis Set: CC-PVTZ
  Basis Set:
  Basis Set: CC-PVTZ
  Basis Set:
  @DF-RHF Final Energy:  -306.00051269406447
    Total Energy =                       -306.0005126940646960
  Basis Set: CC-PVTZ
  Basis Set:
  Charge       = 0
  Multiplicity = 1
  Basis Set: CC-PVTZ
  Basis Set:

    Orbital Energies (a.u.)
    -----------------------

    Doubly Occupied:

       1A    -20.604061     2A    -20.541302     3A    -11.374042
       4A    -11.239821     5A    -11.223861     6A    -11.215413
       7A     -1.477593     8A     -1.369732     9A     -1.084429
      10A     -0.980926    11A     -0.859154    12A     -0.793067
      13A     -0.704382    14A     -0.691747    15A     -0.669666
      16A     -0.618904    17A     -0.595430    18A     -0.574659
      19A     -0.546122    20A     -0.507002    21A     -0.492325
      22A     -0.485292    23A     -0.482138    24A     -0.447704

  @DF-RHF Final Energy:  -306.00051270674578

   => Energetics <=

    Nuclear Repulsion Energy =            240.4351823336608334
    One-Electron Energy =                -893.7138483515827829
    Two-Electron Energy =                 347.2781533111760837
    DFT Exchange-Correlation Energy =       0.0000000000000000
    Empirical Dispersion Energy =           0.0000000000000000
    PCM Polarization Energy =               0.0000000000000000
    EFP Energy =                            0.0000000000000000
    Total Energy =                       -306.0005127067458943
    Molecular point group: c1
  Basis Set: CC-PVTZ
  Basis Set:

  -Total Gradient:
     Atom            X                  Y                   Z
    ------   -----------------  -----------------  -----------------
       1       -0.000330024002    -0.000566347683     0.003577170031
       2        0.000347031964     0.000711844638    -0.006000554001
       3        0.000097373594    -0.000287737861     0.005870219854
       4        0.000002036962     0.000002830642    -0.000045287468
       5       -0.000133006716     0.000129248745    -0.003373598462
       6        0.000007234651     0.000004067759    -0.000012069388
       7        0.000003424426     0.000008565738    -0.000013531658
       8        0.000006474377    -0.000003252676    -0.000013043549
       9       -0.000000432789    -0.000001725398     0.000005064741
      10        0.000001137372     0.000000404530     0.000002114276
      11       -0.000001421222     0.000002252182     0.000003350424
      12        0.000000991427     0.000001035367     0.000000167447
      13        0.000000641313    -0.000000190702     0.000000376888
      14       -0.000001461354    -0.000000995282    -0.000000379135

  **** Optimization is complete! (in 7 steps) ****
    Final optimized geometry and variables:
    Molecular point group: c1

    Geometry (in Angstrom), charge = 0, multiplicity = 1:

    H            2.844031541235    -0.435635977656     0.101960287162
    O            2.012732609328    -0.861935325572    -0.042179321083
    C            1.050432471190     0.055388928028     0.016921724223
    C           -0.317791094771    -0.570315835271     0.005291314971
    O            1.285430970221     1.213524572949     0.047205782205
    C           -1.454864890041     0.441237793046    -0.011655492671
    H           -0.362131718557    -1.229194245589    -0.855762709578
    H           -0.379724938512    -1.216919083579     0.875010149122
    C           -2.822268464555    -0.233108682105    -0.019458090876
    H           -1.352292788180     1.079009903429    -0.881381606857
    H           -1.367533171223     1.090900431612     0.850627169139
    H           -2.945667629630    -0.865742634387    -0.892272758138
    H           -3.615786669281     0.504108528868    -0.031742190653
    H           -2.961485296754    -0.853514619483     0.859765330981

  Mulliken Charges: (a.u.)
   Center  Symbol    Alpha    Beta     Spin     Total
       1     H     0.38203  0.38203  0.00000  0.23595
       2     O     4.16082  4.16082  0.00000 -0.32165
       3     C     2.80541  2.80541  0.00000  0.38917
       4     C     3.10534  3.10534  0.00000 -0.21068
       5     O     4.19013  4.19013  0.00000 -0.38026
       6     C     3.07939  3.07939  0.00000 -0.15877
       7     H     0.43838  0.43838  0.00000  0.12325
       8     H     0.43973  0.43973  0.00000  0.12053
       9     C     3.15026  3.15026  0.00000 -0.30052
      10     H     0.44646  0.44646  0.00000  0.10707
      11     H     0.44594  0.44594  0.00000  0.10812
      12     H     0.45543  0.45543  0.00000  0.08914
      13     H     0.44511  0.44511  0.00000  0.10979
      14     H     0.45557  0.45557  0.00000  0.08885

   Total alpha = 24.00000, Total beta = 24.00000, Total charge =  0.00000

*** Psi4 exiting successfully. Buy a developer a beer!
