  ==> Input File <==

--------------------------------------------------------------------------
set {
	reference rhf
	basis cc-pvtz
}

set_num_threads( 4 )
memory 2 gb

molecule MOL {
0 1

H	 -3.900849	 -1.554768	 -0.920756
C	 -2.834013	 -1.442206	 -0.957717
C	 -2.165596	 -1.591799	 -2.159583
C	 -2.132105	 -1.148171	 0.195908
H	 -2.711068	 -1.820023	 -3.054610
C	 -0.794702	 -1.447007	 -2.206285
H	 -2.651399	 -1.032359	 1.127462
C	 -0.759388	 -1.002884	 0.150766
H	 -0.261357	 -1.559449	 -3.128216
C	 -0.086555	 -1.152065	 -1.051546
H	 -0.212804	 -0.775178	 1.042352
C	 1.393586	 -1.005590	 -1.154721
O	 1.968286	 -0.725612	 -0.000027
O	 1.999284	 -1.126735	 -2.166469
C	 3.373556	 -0.568203	 0.000011
H	 3.695416	 -0.031588	 -0.879663
H	 3.782700	 -1.565294	 -0.000152
H	 3.695405	 -0.031851	 0.879862

	symmetry c1
}
set optking {
	frozen_dihedral = ("
		12 13 15 16
	")
}

ee = optimize('scf')
oeprop('DIPOLE', 'QUADRUPOLE', 'MULLIKEN_CHARGES')
f=open( 'psi4out.xyz', 'w' )
f.write( "18  " )
f.write( str(ee) + "\n" )
f.write( MOL.save_string_xyz() )
f.close()
--------------------------------------------------------------------------

    Molecular point group: c1
  Charge       = 0
  Multiplicity = 1
  Basis Set: CC-PVTZ
  Basis Set:
  @DF-RHF Final Energy:  -457.50826817291141
    Total Energy =                       -457.5082681729111300
    Molecular point group: c1
  Basis Set: CC-PVTZ
  Basis Set:
  Basis Set: CC-PVTZ
  Basis Set:
  @DF-RHF Final Energy:  -457.50933547661793
    Total Energy =                       -457.5093354766182756
  Basis Set: CC-PVTZ
  Basis Set:
  Basis Set: CC-PVTZ
  Basis Set:
  @DF-RHF Final Energy:  -457.50933425131024
    Total Energy =                       -457.5093342513106336
  Basis Set: CC-PVTZ
  Basis Set:
  Basis Set: CC-PVTZ
  Basis Set:
  @DF-RHF Final Energy:  -457.50962963563688
    Total Energy =                       -457.5096296356366565
  Basis Set: CC-PVTZ
  Basis Set:
  Basis Set: CC-PVTZ
  Basis Set:
  @DF-RHF Final Energy:  -457.50963797486253
    Total Energy =                       -457.5096379748626987
  Basis Set: CC-PVTZ
  Basis Set:
  Charge       = 0
  Multiplicity = 1
  Basis Set: CC-PVTZ
  Basis Set:

    Orbital Energies (a.u.)
    -----------------------

    Doubly Occupied:

       1A    -20.600736     2A    -20.534269     3A    -11.372173
       4A    -11.280929     5A    -11.244907     6A    -11.243428
       7A    -11.242606     8A    -11.239959     9A    -11.235987
      10A    -11.235224    11A     -1.476386    12A     -1.368660
      13A     -1.170696    14A     -1.051794    15A     -1.028973
      16A     -0.980879    17A     -0.863128    18A     -0.838386
      19A     -0.781179    20A     -0.745133    21A     -0.688093
      22A     -0.680829    23A     -0.676360    24A     -0.634196
      25A     -0.630036    26A     -0.601245    27A     -0.588117
      28A     -0.566034    29A     -0.530807    30A     -0.520308
      31A     -0.509566    32A     -0.502101    33A     -0.463223
      34A     -0.449401    35A     -0.350171    36A     -0.346172

  @DF-RHF Final Energy:  -457.50963978559969

   => Energetics <=

    Nuclear Repulsion Energy =            493.9164250315734535
    One-Electron Energy =               -1602.3079440106780567
    Two-Electron Energy =                 650.8818791935045738
    DFT Exchange-Correlation Energy =       0.0000000000000000
    Empirical Dispersion Energy =           0.0000000000000000
    PCM Polarization Energy =               0.0000000000000000
    EFP Energy =                            0.0000000000000000
    Total Energy =                       -457.5096397856000294
    Molecular point group: c1
  Basis Set: CC-PVTZ
  Basis Set:

  -Total Gradient:
     Atom            X                  Y                   Z
    ------   -----------------  -----------------  -----------------
       1        0.000002891825     0.000000646106     0.000001017008
       2        0.000002616486     0.000001303160    -0.000005232740
       3       -0.000007942982    -0.000006437778     0.000006791615
       4        0.000001640250     0.000001782361    -0.000002087423
       5        0.000000054075     0.000001439456     0.000002292443
       6        0.000002009039     0.000010912159     0.000001691603
       7       -0.000002080123    -0.000002388304    -0.000001083978
       8       -0.000008981711     0.000000322360     0.000013213841
       9       -0.000000228509    -0.000002239095     0.000003794652
      10        0.000006774682    -0.000011172786    -0.000019675204
      11       -0.000007784539    -0.000001872650    -0.000009921697
      12       -0.000212735576     0.001310905755    -0.000231192833
      13        0.000311957670    -0.002229634346     0.000104857905
      14        0.000014993923     0.000008757890     0.000035586165
      15       -0.000293909447     0.002232043742     0.000900675071
      16        0.000189882864    -0.001317691820    -0.000775451812
      17        0.000009383433     0.000014365973     0.000009282714
      18       -0.000008541352    -0.000011042184    -0.000034557332

  **** Optimization is complete! (in 6 steps) ****
    Final optimized geometry and variables:
    Molecular point group: c1

    Geometry (in Angstrom), charge = 0, multiplicity = 1:

    H           -4.026951798542    -0.425342788634     0.014627587826
    C           -2.959452304677    -0.320088456025    -0.025534336392
    C           -2.295629940901    -0.474494531379    -1.229424486799
    C           -2.251940113016    -0.030844138240     1.125815098499
    H           -2.845339069091    -0.699166545521    -2.122820256265
    C           -0.923927805036    -0.339243159808    -1.280261880547
    H           -2.767409303048     0.088606737487     2.059070786889
    C           -0.878264102532     0.105016570974     1.076484034864
    H           -0.394284876032    -0.455798870463    -2.203851743404
    C           -0.210136621408    -0.048839332032    -0.127753983919
    H           -0.327636227934     0.328844505250     1.966570889007
    C            1.271173612788     0.087687865094    -0.236440402968
    O            1.850040637327     0.357967730081     0.918481835023
    O            1.870125112545    -0.035145240277    -1.251854906570
    C            3.252379658701     0.540915436367     0.927989605301
    H            3.572813385503     1.097717989237     0.062724813649
    H            3.749920371339    -0.418983838391     0.929659016004
    H            3.481263762679     1.074660612702     1.835918499850

  Mulliken Charges: (a.u.)
   Center  Symbol    Alpha    Beta     Spin     Total
       1     H     0.42030  0.42030  0.00000  0.15939
       2     C     3.06975  3.06975  0.00000 -0.13950
       3     C     3.07552  3.07552  0.00000 -0.15104
       4     C     3.07494  3.07494  0.00000 -0.14988
       5     H     0.42040  0.42040  0.00000  0.15919
       6     C     3.07588  3.07588  0.00000 -0.15177
       7     H     0.42190  0.42190  0.00000  0.15619
       8     C     3.08208  3.08208  0.00000 -0.16416
       9     H     0.40658  0.40658  0.00000  0.18683
      10     C     3.01452  3.01452  0.00000 -0.02903
      11     H     0.41109  0.41109  0.00000  0.17781
      12     C     2.77980  2.77980  0.00000  0.44040
      13     O     4.14886  4.14886  0.00000 -0.29772
      14     O     4.21158  4.21158  0.00000 -0.42315
      15     C     3.03757  3.03757  0.00000 -0.07515
      16     H     0.44767  0.44767  0.00000  0.10466
      17     H     0.45536  0.45536  0.00000  0.08927
      18     H     0.44617  0.44617  0.00000  0.10765

   Total alpha = 36.00000, Total beta = 36.00000, Total charge =  0.00000
