                              Psi4 1.0.54 Driver

  ==> Input File <==

--------------------------------------------------------------------------
set {
	reference rhf
	basis cc-pvtz
}

set_num_threads( 4 )
memory 2 gb

molecule MOL {
0 1

O	 -2.817697	 1.304178	 0.001046
C	 -2.664672	 0.129869	 0.003507
C	 -3.797908	 -0.860100	 -0.001145
O	 -1.481217	 -0.452708	 0.001092
H	 -4.408836	 -0.679689	 -0.875387
H	 -3.443486	 -1.878443	 -0.002770
H	 -4.412123	 -0.683688	 0.871605
C	 -0.332055	 0.384012	 -0.000250
C	 0.892252	 -0.506059	 -0.000295
H	 -0.360822	 1.020205	 -0.874146
H	 -0.359817	 1.021310	 0.872861
C	 2.188199	 0.299473	 -0.001416
H	 0.857046	 -1.152781	 -0.871031
H	 0.857910	 -1.151798	 0.871202
C	 3.437151	 -0.577593	 -0.000991
H	 2.209565	 0.950707	 -0.871712
H	 2.210062	 0.952234	 0.867721
C	 4.579753	 0.009214	 -0.822652
H	 3.183945	 -1.561217	 -0.386254
H	 3.768887	 -0.727530	 1.022511
H	 4.289564	 0.139094	 -1.859843
H	 5.449781	 -0.636625	 -0.801487
H	 4.878818	 0.979400	 -0.440351

	symmetry c1
}
set optking {
	frozen_dihedral = ("
		19 15 12 16
	")
}

ee,wfn = optimize('scf', return_wfn=True)
oeprop( wfn, 'DIPOLE', 'QUADRUPOLE', 'MULLIKEN_CHARGES')
f=open( 'psi4out.xyz', 'w' )
f.write( "23  " )
f.write( str(ee) + "\n" )
f.write( MOL.save_string_xyz() )
f.close()
--------------------------------------------------------------------------

    Molecular point group: c1
  Charge       = 0
  Multiplicity = 1
  Basis Set: CC-PVTZ
  Basis Set:
  @DF-RHF Final Energy:  -423.13100867793236
    Total Energy =                       -423.1310086779321864
    Molecular point group: c1
  Basis Set: CC-PVTZ
  Basis Set:
  Basis Set: CC-PVTZ
  Basis Set:
  @DF-RHF Final Energy:  -423.13104580687019
    Total Energy =                       -423.1310458068696789
  Basis Set: CC-PVTZ
  Basis Set:
  Basis Set: CC-PVTZ
  Basis Set:
  @DF-RHF Final Energy:  -423.13125325311705
    Total Energy =                       -423.1312532531171655
  Basis Set: CC-PVTZ
  Basis Set:
  Basis Set: CC-PVTZ
  Basis Set:
  @DF-RHF Final Energy:  -423.13137355312421
    Total Energy =                       -423.1313735531241491
  Basis Set: CC-PVTZ
  Basis Set:
  Basis Set: CC-PVTZ
  Basis Set:
  @DF-RHF Final Energy:  -423.13138087614038
    Total Energy =                       -423.1313808761400423
  Basis Set: CC-PVTZ
  Basis Set:
  Charge       = 0
  Multiplicity = 1
  Basis Set: CC-PVTZ
  Basis Set:

    Orbital Energies (a.u.)
    -----------------------

    Doubly Occupied:

       1A    -20.596021     2A    -20.529570     3A    -11.366463
       4A    -11.279440     5A    -11.230733     6A    -11.222879
       7A    -11.221116     8A    -11.219248     9A    -11.211520
      10A     -1.471236    11A     -1.364048    12A     -1.094220
      13A     -1.042746    14A     -1.004382    15A     -0.931742
      16A     -0.843524    17A     -0.803480    18A     -0.776288
      19A     -0.694348    20A     -0.688469    21A     -0.671857
      22A     -0.642411    23A     -0.608487    24A     -0.591279
      25A     -0.584184    26A     -0.570406    27A     -0.555811
      28A     -0.537849    29A     -0.525063    30A     -0.505474
      31A     -0.496344    32A     -0.478523    33A     -0.466127
      34A     -0.464434    35A     -0.455399    36A     -0.438986

  @DF-RHF Final Energy:  -423.13138176084431

   => Energetics <=

    Nuclear Repulsion Energy =            450.4852619973321453
    One-Electron Energy =               -1468.8650729848768606
    Two-Electron Energy =                 595.2484292267006367
    DFT Exchange-Correlation Energy =       0.0000000000000000
    Empirical Dispersion Energy =           0.0000000000000000
    PCM Polarization Energy =               0.0000000000000000
    EFP Energy =                            0.0000000000000000
    Total Energy =                       -423.1313817608440786
    Molecular point group: c1
  Basis Set: CC-PVTZ
  Basis Set:

  -Total Gradient:
     Atom            X                  Y                   Z
    ------   -----------------  -----------------  -----------------
       1       -0.000000993271     0.000064550091     0.000021115789
       2        0.000043527767    -0.000083793385    -0.000039757677
       3       -0.000001914575     0.000005720473     0.000011050289
       4       -0.000035254850     0.000010042460     0.000031042919
       5       -0.000006676330     0.000004027362    -0.000011452642
       6        0.000000889412    -0.000016663228    -0.000000147172
       7       -0.000011689402    -0.000001091696     0.000010618125
       8        0.000018036728     0.000017255679    -0.000040196734
       9        0.000004488896    -0.000005637060    -0.000010592384
      10        0.000009465506     0.000001933991    -0.000000767779
      11       -0.000008500691     0.000005885392     0.000019386437
      12       -0.002748061838    -0.004028056423    -0.002072230811
      13       -0.000004308866     0.000004505536    -0.000009983014
      14        0.000008025188    -0.000005829894     0.000004800550
      15        0.001710858571     0.002529123490    -0.004320969900
      16        0.002025046637     0.002963989818     0.002419954237
      17       -0.000005269117     0.000005128790     0.000022496023
      18       -0.000015785949     0.000006966183     0.000010935144
      19       -0.001019752615    -0.001476790663     0.003946324808
      20        0.000016053435     0.000005993508     0.000027948543
      21       -0.000013464495    -0.000001790884    -0.000040579946
      22        0.000036426822    -0.000027519699     0.000005121872
      23       -0.000001146966     0.000022050160     0.000015883322

  **** Optimization is complete! (in 6 steps) ****
    Final optimized geometry and variables:
    Molecular point group: c1

    Geometry (in Angstrom), charge = 0, multiplicity = 1:

    O           -2.810224509426     1.310658316562     0.207681371353
    C           -2.654132120517     0.138660937691     0.139602340093
    C           -3.784555559099    -0.854390813806     0.112088404851
    O           -1.469377088384    -0.437991280805     0.079950459063
    H           -4.418785714951    -0.630117191746    -0.735073491313
    H           -3.427597829271    -1.869820843654     0.046908484253
    H           -4.376013615118    -0.727133584999     1.008882081349
    C           -0.323294974854     0.402329867041     0.098700424813
    C            0.903205766311    -0.481134806419     0.023144078998
    H           -0.372568801535     1.084860879762    -0.738741032565
    H           -0.333039915481     0.991594318977     1.005347719642
    C            2.195877392959     0.327077068317     0.025920625007
    H            0.847975172244    -1.086235343037    -0.875934880096
    H            0.895534728534    -1.168142635981     0.863704448376
    C            3.462178910328    -0.541915189796     0.029409586347
    H            2.220009720486     1.007904441316    -0.820715840483
    H            2.211508680352     0.972327941140     0.900732232602
    C            4.640341556692     0.091167944704    -0.700036605161
    H            3.238411240248    -1.518747940605    -0.388815347766
    H            3.747364980419    -0.740150096799     1.058603189190
    H            4.415252695025     0.239362927969    -1.750852638397
    H            5.524596308180    -0.532176015786    -0.633889022755
    H            4.885929006465     1.059523546578    -0.276293411932

  Mulliken Charges: (a.u.)
   Center  Symbol    Alpha    Beta     Spin     Total
       1     O     4.20241  4.20241  0.00000 -0.40483
       2     C     2.81505  2.81505  0.00000  0.36991
       3     C     3.14001  3.14001  0.00000 -0.28001
       4     O     4.14481  4.14481  0.00000 -0.28961
       5     H     0.44210  0.44210  0.00000  0.11581
       6     H     0.44188  0.44188  0.00000  0.11624
       7     H     0.44212  0.44212  0.00000  0.11577
       8     C     2.97894  2.97894  0.00000  0.04211
       9     C     3.08209  3.08209  0.00000 -0.16419
      10     H     0.45408  0.45408  0.00000  0.09183
      11     H     0.45398  0.45398  0.00000  0.09204
      12     C     3.10028  3.10028  0.00000 -0.20056
      13     H     0.45055  0.45055  0.00000  0.09890
      14     H     0.44999  0.44999  0.00000  0.10002
      15     C     3.08606  3.08606  0.00000 -0.17211
      16     H     0.45261  0.45261  0.00000  0.09477
      17     H     0.45185  0.45185  0.00000  0.09629
      18     C     3.14791  3.14791  0.00000 -0.29582
      19     H     0.45394  0.45394  0.00000  0.09212
      20     H     0.45233  0.45233  0.00000  0.09535
      21     H     0.45491  0.45491  0.00000  0.09018
      22     H     0.44841  0.44841  0.00000  0.10317
      23     H     0.45370  0.45370  0.00000  0.09261

   Total alpha = 36.00000, Total beta = 36.00000, Total charge = -0.00000

*** Psi4 exiting successfully. Buy a developer a beer!
