  ==> Input File <==

--------------------------------------------------------------------------
set {
	reference rhf
	basis 6-31G*
}

set_num_threads( 1 )
memory 2 gb

molecule MOL {
0 1

H	 -2.826565	 0.340889	 -0.233071
O	 -2.035884	 -0.060112	 0.102722
C	 -0.955155	 0.788182	 -0.092531
C	 0.353668	 0.040312	 -0.004810
H	 -0.985057	 1.290372	 -1.054184
H	 -0.974469	 1.533190	 0.688632
F	 0.394464	 -0.937475	 -0.903053
F	 1.368604	 0.853376	 -0.249821
F	 0.546173	 -0.502608	 1.179981

	symmetry c1
}
set optking {
	frozen_dihedral = ("
		7 4 3 5
	")
}

ee = energy('scf')
oeprop('DIPOLE', 'QUADRUPOLE', 'MULLIKEN_CHARGES')
f=open( 'psi4out.xyz', 'w' )
f.write( "9  " )
f.write( str(ee) + "\n" )
f.write( MOL.save_string_xyz() )
f.close()
--------------------------------------------------------------------------

    Molecular point group: c1

    Geometry (in Angstrom), charge = 0, multiplicity = 1:

       Center              X                  Y                   Z               Mass
    ------------   -----------------  -----------------  -----------------  -----------------
           H         -2.819233142973     0.330658806618    -0.236936675208     1.007825032070
           O         -2.028552142973    -0.070342193382     0.098856324792    15.994914619560
           C         -0.947823142973     0.777951806618    -0.096396675208    12.000000000000
           C          0.360999857027     0.030081806618    -0.008675675208    12.000000000000
           H         -0.977725142973     1.280141806618    -1.058049675208     1.007825032070
           H         -0.967137142973     1.522959806618     0.684766324792     1.007825032070
           F          0.401795857027    -0.947705193382    -0.906918675208    18.998403224000
           F          1.375935857027     0.843145806618    -0.253686675208    18.998403224000
           F          0.553504857027    -0.512838193382     1.176115324792    18.998403224000

  Charge       = 0
  Multiplicity = 1
  Basis Set: 6-31G*
  Basis Set:

    Orbital Energies (a.u.)
    -----------------------

    Doubly Occupied:

       1A    -26.341513     2A    -26.335102     3A    -26.329718
       4A    -20.587635     5A    -11.499703     6A    -11.309511
       7A     -1.733836     8A     -1.634780     9A     -1.626887
      10A     -1.400746    11A     -1.047847    12A     -0.917221
      13A     -0.825902    14A     -0.822632    15A     -0.784625
      16A     -0.732827    17A     -0.707051    18A     -0.697775
      19A     -0.665309    20A     -0.651868    21A     -0.636748
      22A     -0.635000    23A     -0.596860    24A     -0.527857
      25A     -0.476034

  @DF-RHF Final Energy:  -450.65790309550226

   => Energetics <=

    Nuclear Repulsion Energy =            276.0427468377178570
    One-Electron Energy =               -1174.3513507294401279
    Two-Electron Energy =                 447.6507007962208036
    DFT Exchange-Correlation Energy =       0.0000000000000000
    Empirical Dispersion Energy =           0.0000000000000000
    PCM Polarization Energy =               0.0000000000000000
    EFP Energy =                            0.0000000000000000
    Total Energy =                       -450.6579030955014105

  Mulliken Charges: (a.u.)
   Center  Symbol    Alpha    Beta     Spin     Total
       1     H     0.27107  0.27107  0.00000  0.45785
       2     O     4.36328  4.36328  0.00000 -0.72655
       3     C     3.05276  3.05276  0.00000 -0.10552
       4     C     2.45338  2.45338  0.00000  1.09325
       5     H     0.41109  0.41109  0.00000  0.17781
       6     H     0.40995  0.40995  0.00000  0.18009
       7     F     4.68103  4.68103  0.00000 -0.36206
       8     F     4.68203  4.68203  0.00000 -0.36406
       9     F     4.67541  4.67541  0.00000 -0.35082

   Total alpha = 25.00000, Total beta = 25.00000, Total charge =  0.00000
