  ==> Input File <==

--------------------------------------------------------------------------
set {
	reference rhf
	basis 6-31G*
}

set_num_threads( 4 )
memory 2 gb

molecule MOL {
0 1

O	 -2.324811	 1.361668	 -0.277141
C	 -2.105949	 0.203097	 -0.092081
C	 -0.889235	 -0.467034	 -0.705952
C	 -3.002726	 -0.644460	 0.782455
C	 -1.047154	 -0.600408	 -2.229242
H	 -0.798885	 -1.453269	 -0.263818
H	 0.012861	 0.091799	 -0.473669
C	 0.149006	 -1.302371	 -2.876593
H	 -1.963033	 -1.145506	 -2.427781
H	 -1.166334	 0.386787	 -2.673077
C	 0.075323	 -1.399736	 -4.404711
H	 0.247240	 -2.302033	 -2.457363
H	 1.057485	 -0.767858	 -2.606759
C	 -1.053427	 -2.288511	 -4.930067
H	 1.023541	 -1.787350	 -4.768483
H	 -0.024340	 -0.400645	 -4.824201
H	 -0.984148	 -3.291584	 -4.518035
H	 -1.004790	 -2.372263	 -6.011279
H	 -2.032469	 -1.894716	 -4.678683
H	 -3.496582	 -1.399307	 0.176174
H	 -3.747939	 -0.023774	 1.260148
H	 -2.421318	 -1.168775	 1.535358

	symmetry c1
}
set optking {
	frozen_dihedral = ("
		6 3 2 1
	")
}

ee = optimize('scf')
oeprop('DIPOLE', 'QUADRUPOLE', 'MULLIKEN_CHARGES')
f=open( 'psi4out.xyz', 'w' )
f.write( "22  " )
f.write( str(ee) + "\n" )
f.write( MOL.save_string_xyz() )
f.close()
--------------------------------------------------------------------------

    Molecular point group: c1
  Charge       = 0
  Multiplicity = 1
  Basis Set: 6-31G*
  Basis Set:
  @DF-RHF Final Energy:  -348.09715488419846
    Total Energy =                       -348.0971548841986305
    Molecular point group: c1
  Basis Set: 6-31G*
  Basis Set:
  Basis Set: 6-31G*
  Basis Set:
  @DF-RHF Final Energy:  -348.09648484773686
    Total Energy =                       -348.0964848477368605
  Basis Set: 6-31G*
  Basis Set:
  Basis Set: 6-31G*
  Basis Set:
  @DF-RHF Final Energy:  -348.09784501603679
    Total Energy =                       -348.0978450160371267
  Basis Set: 6-31G*
  Basis Set:
  Basis Set: 6-31G*
  Basis Set:
  @DF-RHF Final Energy:  -348.09823006964780
    Total Energy =                       -348.0982300696475704
  Basis Set: 6-31G*
  Basis Set:
  @DF-RHF Final Energy:  -348.09755332787313
    Total Energy =                       -348.0975533278730154
  @DF-RHF Final Energy:  -348.09819895194931
    Total Energy =                       -348.0981989519494846
  Basis Set: 6-31G*
  Basis Set:
  @DF-RHF Final Energy:  -348.09825585152777
    Total Energy =                       -348.0982558515274832
  Basis Set: 6-31G*
  Basis Set:
  Basis Set: 6-31G*
  Basis Set:
  @DF-RHF Final Energy:  -348.09817594654777
    Total Energy =                       -348.0981759465472578
  Basis Set: 6-31G*
  Basis Set:
  Basis Set: 6-31G*
  Basis Set:
  @DF-RHF Final Energy:  -348.09826167580485
    Total Energy =                       -348.0982616758050767
  Basis Set: 6-31G*
  Basis Set:
  Charge       = 0
  Multiplicity = 1
  Basis Set: 6-31G*
  Basis Set:

    Orbital Energies (a.u.)
    -----------------------

    Doubly Occupied:

       1A    -20.547485     2A    -11.324941     3A    -11.229513
       4A    -11.228507     5A    -11.226712     6A    -11.221181
       7A    -11.219577     8A    -11.211922     9A     -1.393469
      10A     -1.094198    11A     -1.043583    12A     -1.000522
      13A     -0.937367    14A     -0.856965    15A     -0.785285
      16A     -0.732702    17A     -0.659462    18A     -0.647676
      19A     -0.627038    20A     -0.615178    21A     -0.599742
      22A     -0.585109    23A     -0.555891    24A     -0.549048
      25A     -0.530025    26A     -0.520360    27A     -0.500346
      28A     -0.483906    29A     -0.467709    30A     -0.463888
      31A     -0.460533    32A     -0.396438

  @DF-RHF Final Energy:  -348.09826170712023

   => Energetics <=

    Nuclear Repulsion Energy =            372.7158400715665607
    One-Electron Energy =               -1210.1956478210104251
    Two-Electron Energy =                 489.3815460423235209
    DFT Exchange-Correlation Energy =       0.0000000000000000
    Empirical Dispersion Energy =           0.0000000000000000
    PCM Polarization Energy =               0.0000000000000000
    EFP Energy =                            0.0000000000000000
    Total Energy =                       -348.0982617071202867
    Molecular point group: c1
  Basis Set: 6-31G*
  Basis Set:

  -Total Gradient:
     Atom            X                  Y                   Z
    ------   -----------------  -----------------  -----------------
       1        0.000050261989     0.000010830070     0.000060366168
       2       -0.000068144274    -0.000025137081    -0.000055917575
       3       -0.000042080812    -0.000009678306    -0.000089770496
       4        0.000007217817     0.000009361181    -0.000009298011
       5       -0.000009297255    -0.000038636238     0.000021650741
       6        0.000043294883     0.000045044466     0.000052777875
       7        0.000015099048     0.000006888058     0.000015943017
       8       -0.000000744118    -0.000007037884     0.000012889138
       9       -0.000001692681     0.000005652757     0.000015051806
      10        0.000011458043    -0.000010973110    -0.000012495726
      11        0.000001665589     0.000036388971    -0.000006559211
      12       -0.000003531714    -0.000007677633    -0.000005478457
      13       -0.000009612513    -0.000001223611     0.000022202725
      14       -0.000004144942    -0.000006707784     0.000000829284
      15       -0.000009484823    -0.000000319556     0.000006645750
      16        0.000011308409     0.000005384141    -0.000019670828
      17        0.000000023423    -0.000002642644    -0.000006494558
      18       -0.000003715667     0.000003691544     0.000002099276
      19        0.000003993650    -0.000009351449    -0.000007007794
      20        0.000003203346    -0.000000041821    -0.000001938250
      21        0.000001446970    -0.000000040478    -0.000000286984
      22        0.000003475635    -0.000003773593     0.000004462107

  **** Optimization is complete! (in 10 steps) ****
    Final optimized geometry and variables:
    Molecular point group: c1

    Geometry (in Angstrom), charge = 0, multiplicity = 1:

    O           -1.006087793654     2.005796581854     1.544141266384
    C           -0.805124738638     0.851560948395     1.771401027996
    C            0.382133890133     0.134099904695     1.149210955317
    C           -1.719109393005     0.047267486601     2.667543883835
    C            0.221840744264     0.008600413115    -0.372876820260
    H            0.513867156650    -0.847337264054     1.595153831315
    H            1.268635854408     0.719790613497     1.372849026914
    C            1.427019167009    -0.668625164820    -1.029519489594
    H           -0.684855780317    -0.549714672894    -0.591702223452
    H            0.084552354675     1.002380057769    -0.786831212626
    C            1.363037850509    -0.731205162590    -2.559916817033
    H            1.537365204360    -1.676993639233    -0.633447615223
    H            2.326949866808    -0.128828727417    -0.742844208380
    C            0.244890067948    -1.616020292169    -3.114130637630
    H            2.316318684206    -1.102956859385    -2.927031847885
    H            1.257501445407     0.276409497830    -2.955936793714
    H            0.317801843781    -2.627853302781    -2.724118044351
    H            0.302809731824    -1.675589124132    -4.196445432555
    H           -0.738985391225    -1.233804070286    -2.863143036595
    H           -2.086642666245    -0.829854985361     2.141908687986
    H           -2.551736986230     0.656222596670     2.990935681435
    H           -1.168632081647    -0.307405210823     3.534799759882

  Mulliken Charges: (a.u.)
   Center  Symbol    Alpha    Beta     Spin     Total
       1     O     4.26318  4.26318  0.00000 -0.52636
       2     C     2.73630  2.73630  0.00000  0.52739
       3     C     3.20117  3.20117  0.00000 -0.40233
       4     C     3.28942  3.28942  0.00000 -0.57883
       5     C     3.16130  3.16130  0.00000 -0.32261
       6     H     0.41670  0.41670  0.00000  0.16659
       7     H     0.40199  0.40199  0.00000  0.19602
       8     C     3.15320  3.15320  0.00000 -0.30641
       9     H     0.41909  0.41909  0.00000  0.16181
      10     H     0.40456  0.40456  0.00000  0.19088
      11     C     3.15324  3.15324  0.00000 -0.30648
      12     H     0.42418  0.42418  0.00000  0.15164
      13     H     0.41970  0.41970  0.00000  0.16060
      14     C     3.24200  3.24200  0.00000 -0.48399
      15     H     0.41979  0.41979  0.00000  0.16043
      16     H     0.42044  0.42044  0.00000  0.15912
      17     H     0.42261  0.42261  0.00000  0.15478
      18     H     0.41772  0.41772  0.00000  0.16457
      19     H     0.41954  0.41954  0.00000  0.16091
      20     H     0.40920  0.40920  0.00000  0.18160
      21     H     0.39722  0.39722  0.00000  0.20556
      22     H     0.40745  0.40745  0.00000  0.18510

   Total alpha = 32.00000, Total beta = 32.00000, Total charge =  0.00000
