                              Psi4 1.0.54 Driver

  ==> Input File <==

--------------------------------------------------------------------------
set {
	reference rhf
	basis cc-pvtz
}

set_num_threads( 4 )
memory 2 gb

molecule MOL {
0 1

H	 -3.417778	 0.328330	 -0.371893
C	 -3.037153	 0.672833	 -1.343143
C	 -2.082763	 1.833972	 -1.273953
O	 -3.391099	 0.142950	 -2.338761
C	 -0.930728	 1.596745	 -0.293028
H	 -1.720381	 2.041929	 -2.272336
H	 -2.662593	 2.692840	 -0.943125
C	 0.033419	 0.497747	 -0.734399
H	 -0.386106	 2.526895	 -0.172419
H	 -1.336130	 1.355371	 0.686554
C	 1.181757	 0.280428	 0.247371
H	 0.436052	 0.750576	 -1.711676
H	 -0.507616	 -0.435838	 -0.865279
C	 2.151032	 -0.811012	 -0.202643
H	 1.712798	 1.217794	 0.380360
H	 0.775757	 0.018007	 1.221844
C	 3.580021	 -0.656538	 0.320835
H	 2.170545	 -0.847575	 -1.289412
H	 1.766632	 -1.772905	 0.124928
C	 4.327657	 0.562694	 -0.213579
H	 4.138806	 -1.549270	 0.057813
H	 3.561991	 -0.620783	 1.406976
H	 4.355973	 0.557257	 -1.298551
H	 3.867136	 1.491650	 0.100501
H	 5.351524	 0.571613	 0.142204

	symmetry c1
}
set optking {
	frozen_dihedral = ("
		8 11 14 18
	")
}

ee,wfn = optimize('scf', return_wfn=True)
oeprop( wfn, 'DIPOLE', 'QUADRUPOLE', 'MULLIKEN_CHARGES')
f=open( 'psi4out.xyz', 'w' )
f.write( "25  " )
f.write( str(ee) + "\n" )
f.write( MOL.save_string_xyz() )
f.close()
--------------------------------------------------------------------------

    Molecular point group: c1
  Charge       = 0
  Multiplicity = 1
  Basis Set: CC-PVTZ
  Basis Set:
  @DF-RHF Final Energy:  -387.25768048468717
    Total Energy =                       -387.2576804846872847
    Molecular point group: c1
  Basis Set: CC-PVTZ
  Basis Set:
  Basis Set: CC-PVTZ
  Basis Set:
  @DF-RHF Final Energy:  -387.25742654489579
    Total Energy =                       -387.2574265448951110
  Basis Set: CC-PVTZ
  Basis Set:
  Basis Set: CC-PVTZ
  Basis Set:
  @DF-RHF Final Energy:  -387.25801785754169
    Total Energy =                       -387.2580178575421996
  Basis Set: CC-PVTZ
  Basis Set:
  Basis Set: CC-PVTZ
  Basis Set:
  @DF-RHF Final Energy:  -387.25806649622956
    Total Energy =                       -387.2580664962295032
  Basis Set: CC-PVTZ
  Basis Set:
  @DF-RHF Final Energy:  -387.25765176018712
    Total Energy =                       -387.2576517601868318
  Basis Set: CC-PVTZ
  Basis Set:
  @DF-RHF Final Energy:  -387.25810597651287
    Total Energy =                       -387.2581059765126383
  Basis Set: CC-PVTZ
  Basis Set:
  Basis Set: CC-PVTZ
  Basis Set:
  @DF-RHF Final Energy:  -387.25811030893789
    Total Energy =                       -387.2581103089381713
  Basis Set: CC-PVTZ
  Basis Set:
  Basis Set: CC-PVTZ
  Basis Set:
  @DF-RHF Final Energy:  -387.25811227355894
    Total Energy =                       -387.2581122735587087
  Basis Set: CC-PVTZ
  Basis Set:
  Charge       = 0
  Multiplicity = 1
  Basis Set: CC-PVTZ
  Basis Set:

    Orbital Energies (a.u.)
    -----------------------

    Doubly Occupied:

       1A    -20.551329     2A    -11.320921     3A    -11.233782
       4A    -11.232769     5A    -11.221943     6A    -11.217669
       7A    -11.216663     8A    -11.214822     9A    -11.208961
      10A     -1.406395    11A     -1.104919    12A     -1.070583
      13A     -1.014594    14A     -0.943722    15A     -0.875517
      16A     -0.820180    17A     -0.789032    18A     -0.784014
      19A     -0.667696    20A     -0.663362    21A     -0.632767
      22A     -0.627456    23A     -0.606829    24A     -0.593514
      25A     -0.576318    26A     -0.551401    27A     -0.536150
      28A     -0.526538    29A     -0.510474    30A     -0.498187
      31A     -0.490367    32A     -0.481847    33A     -0.465191
      34A     -0.457044    35A     -0.442523    36A     -0.411852

  @DF-RHF Final Energy:  -387.25811248364153

   => Energetics <=

    Nuclear Repulsion Energy =            440.3930394935756567
    One-Electron Energy =               -1397.3676446867934828
    Two-Electron Energy =                 569.7164927095759595
    DFT Exchange-Correlation Energy =       0.0000000000000000
    Empirical Dispersion Energy =           0.0000000000000000
    PCM Polarization Energy =               0.0000000000000000
    EFP Energy =                            0.0000000000000000
    Total Energy =                       -387.2581124836418667
    Molecular point group: c1
  Basis Set: CC-PVTZ
  Basis Set:

  -Total Gradient:
     Atom            X                  Y                   Z
    ------   -----------------  -----------------  -----------------
       1        0.000039143191     0.000036083502    -0.000064237624
       2       -0.000101498023    -0.000074255859    -0.000000024000
       3        0.000005013451     0.000001368615    -0.000040540735
       4        0.000054279471     0.000067810166     0.000098118773
       5       -0.000011821745    -0.000020706552     0.000008950223
       6        0.000003710247    -0.000009918723    -0.000012287184
       7        0.000009603716     0.000013317127    -0.000002745451
       8        0.001501013104     0.001880136285    -0.001307270940
       9       -0.000011146137     0.000016573177     0.000011157224
      10       -0.000000433698    -0.000022874352    -0.000009793168
      11       -0.002772459085    -0.003223482505     0.001893241306
      12       -0.000005336045    -0.000011318350    -0.000013243112
      13        0.000010193712    -0.000006628623     0.000011750442
      14        0.004105550519     0.003876438629    -0.000573504014
      15       -0.000019761460    -0.000019525592     0.000005408932
      16        0.000000150361     0.000006143474    -0.000016041327
      17        0.000004950247     0.000001468324    -0.000010206468
      18       -0.002813489797    -0.002512660718     0.000017955826
      19       -0.000000962314     0.000007417875    -0.000004005822
      20        0.000016732618     0.000001383245     0.000019003486
      21       -0.000000305403     0.000002858552     0.000007907673
      22        0.000003043009     0.000010671380    -0.000008018710
      23       -0.000003846899     0.000003689223     0.000006927793
      24        0.000015176468    -0.000018434227    -0.000006377664
      25       -0.000027499514    -0.000005554073    -0.000012125459

  **** Optimization is complete! (in 9 steps) ****
    Final optimized geometry and variables:
    Molecular point group: c1

    Geometry (in Angstrom), charge = 0, multiplicity = 1:

    H           -3.636047182239    -0.186869857557     0.212291016805
    C           -3.244039952252     0.220202270913    -0.729636881552
    C           -2.315105687453     1.393715720829    -0.574948217634
    O           -3.567862121900    -0.257928586013    -1.760983680569
    C           -1.179714188321     1.124513850707     0.416967103383
    H           -1.935943976979     1.663969325398    -1.551972772979
    H           -2.919379869257     2.221545210920    -0.210425483600
    C           -0.182877267493     0.072472728907    -0.063649037501
    H           -0.657737356111     2.057216568823     0.602061934043
    H           -1.600632679044     0.819871057863     1.371975652403
    C            0.965439010018    -0.155831980636     0.915593153739
    H            0.224015309106     0.378872419738    -1.023172432392
    H           -0.698601185064    -0.868110979286    -0.243197428002
    C            1.938762141432    -1.251472181290     0.463329857234
    H            1.495670460914     0.783581858539     1.039097785321
    H            0.571386601222    -0.407610680298     1.896095708533
    C            3.356237806542    -1.124244846214     1.022515203346
    H            1.967871852058    -1.291600845888    -0.622461180283
    H            1.532224817422    -2.212341545103     0.766515238686
    C            4.180802291899    -0.000109378988     0.400157595318
    H            3.877817413423    -2.062870948472     0.864519814644
    H            3.305330179042    -0.984798915660     2.099372372677
    H            4.284973889836    -0.144610732508    -0.670126824043
    H            3.730816226428     0.972772314888     0.558779466821
    H            5.176663489900     0.029563106616     0.827188308072

  Mulliken Charges: (a.u.)
   Center  Symbol    Alpha    Beta     Spin     Total
       1     H     0.46426  0.46426  0.00000  0.07149
       2     C     2.90472  2.90472  0.00000  0.19055
       3     C     3.08909  3.08909  0.00000 -0.17818
       4     O     4.16615  4.16615  0.00000 -0.33230
       5     C     3.11676  3.11676  0.00000 -0.23353
       6     H     0.44293  0.44293  0.00000  0.11414
       7     H     0.44048  0.44048  0.00000  0.11904
       8     C     3.09045  3.09045  0.00000 -0.18089
       9     H     0.44281  0.44281  0.00000  0.11437
      10     H     0.44965  0.44965  0.00000  0.10071
      11     C     3.09590  3.09590  0.00000 -0.19180
      12     H     0.44945  0.44945  0.00000  0.10110
      13     H     0.44774  0.44774  0.00000  0.10453
      14     C     3.09767  3.09767  0.00000 -0.19535
      15     H     0.45218  0.45218  0.00000  0.09565
      16     H     0.44999  0.44999  0.00000  0.10002
      17     C     3.09063  3.09063  0.00000 -0.18127
      18     H     0.45294  0.45294  0.00000  0.09413
      19     H     0.44776  0.44776  0.00000  0.10447
      20     C     3.14958  3.14958  0.00000 -0.29916
      21     H     0.44745  0.44745  0.00000  0.10509
      22     H     0.45470  0.45470  0.00000  0.09060
      23     H     0.45421  0.45421  0.00000  0.09158
      24     H     0.45562  0.45562  0.00000  0.08876
      25     H     0.44687  0.44687  0.00000  0.10625

   Total alpha = 36.00000, Total beta = 36.00000, Total charge = -0.00000

*** Psi4 exiting successfully. Buy a developer a beer!
