  ==> Input File <==

--------------------------------------------------------------------------
set {
	reference rhf
	basis 6-31G*
}

set_num_threads( 4 )
memory 2 gb

molecule MOL {
0 1

O	 0.080435	 -0.162669	 0.496939
C	 1.122059	 0.121804	 -0.000188
C	 1.433802	 1.420087	 -0.703873
O	 2.172624	 -0.688929	 0.000216
C	 0.257495	 2.391035	 -0.733953
H	 2.294621	 1.859818	 -0.207504
H	 1.766327	 1.173209	 -1.708478
C	 0.599943	 3.697134	 -1.452424
H	 -0.058932	 2.602274	 0.282785
H	 -0.588196	 1.914465	 -1.219948
C	 -0.573492	 4.675279	 -1.488302
H	 1.448366	 4.170105	 -0.961962
H	 0.918817	 3.479509	 -2.469788
H	 -0.893688	 4.939512	 -0.484654
H	 -0.304326	 5.592521	 -2.002593
H	 -1.426786	 4.244223	 -2.003782
C	 3.452279	 -0.082609	 0.000533
H	 3.583069	 0.529321	 -0.880332
H	 4.163299	 -0.894027	 0.001117
H	 3.582335	 0.529955	 0.881077

	symmetry c1
}
set optking {
	frozen_dihedral = ("
		1 2 4 17
	")
}

ee = optimize('scf')
oeprop('DIPOLE', 'QUADRUPOLE', 'MULLIKEN_CHARGES')
f=open( 'psi4out.xyz', 'w' )
f.write( "20  " )
f.write( str(ee) + "\n" )
f.write( MOL.save_string_xyz() )
f.close()
--------------------------------------------------------------------------

    Molecular point group: c1
  Charge       = 0
  Multiplicity = 1
  Basis Set: 6-31G*
  Basis Set:
  @DF-RHF Final Energy:  -383.91577994385506
    Total Energy =                       -383.9157799438551137
    Molecular point group: c1
  Basis Set: 6-31G*
  Basis Set:
  Basis Set: 6-31G*
  Basis Set:
  @DF-RHF Final Energy:  -383.91545940078493
    Total Energy =                       -383.9154594007854371
  Basis Set: 6-31G*
  Basis Set:
  Basis Set: 6-31G*
  Basis Set:
  @DF-RHF Final Energy:  -383.92302307343653
    Total Energy =                       -383.9230230734364113
  Basis Set: 6-31G*
  Basis Set:
  Basis Set: 6-31G*
  Basis Set:
  @DF-RHF Final Energy:  -383.92434363720793
    Total Energy =                       -383.9243436372082670
  Basis Set: 6-31G*
  Basis Set:
  @DF-RHF Final Energy:  -383.92346151419866
    Total Energy =                       -383.9234615141984932
  Basis Set: 6-31G*
  Basis Set:
  @DF-RHF Final Energy:  -383.92468751808627
    Total Energy =                       -383.9246875180862162
  Basis Set: 6-31G*
  Basis Set:
  Basis Set: 6-31G*
  Basis Set:
  @DF-RHF Final Energy:  -383.92478108713743
    Total Energy =                       -383.9247810871368074
  Basis Set: 6-31G*
  Basis Set:
  Basis Set: 6-31G*
  Basis Set:
  @DF-RHF Final Energy:  -383.92478227322732
    Total Energy =                       -383.9247822732271516
  Basis Set: 6-31G*
  Basis Set:
  Charge       = 0
  Multiplicity = 1
  Basis Set: 6-31G*
  Basis Set:

    Orbital Energies (a.u.)
    -----------------------

    Doubly Occupied:

       1A    -20.598274     2A    -20.543666     3A    -11.374149
       4A    -11.296119     5A    -11.245050     6A    -11.224370
       7A    -11.223618     8A    -11.213473     9A     -1.461835
      10A     -1.366096    11A     -1.091693    12A     -1.017163
      13A     -0.983062    14A     -0.901562    15A     -0.810467
      16A     -0.766974    17A     -0.699360    18A     -0.687024
      19A     -0.673396    20A     -0.649727    21A     -0.606503
      22A     -0.592925    23A     -0.589518    24A     -0.553136
      25A     -0.540688    26A     -0.520893    27A     -0.506614
      28A     -0.482467    29A     -0.476589    30A     -0.474199
      31A     -0.448768    32A     -0.431554

  @DF-RHF Final Energy:  -383.92478231508710

   => Energetics <=

    Nuclear Repulsion Energy =            382.9482410823737837
    One-Electron Energy =               -1281.6441835051550697
    Two-Electron Energy =                 514.7711601076941861
    DFT Exchange-Correlation Energy =       0.0000000000000000
    Empirical Dispersion Energy =           0.0000000000000000
    PCM Polarization Energy =               0.0000000000000000
    EFP Energy =                            0.0000000000000000
    Total Energy =                       -383.9247823150871000
    Molecular point group: c1
  Basis Set: 6-31G*
  Basis Set:

  -Total Gradient:
     Atom            X                  Y                   Z
    ------   -----------------  -----------------  -----------------
       1        0.001120667989     0.001166772253     0.002762625857
       2       -0.001581680384    -0.001679093273    -0.002458139771
       3        0.000010340473    -0.000000280647     0.000016408630
       4        0.000432299396     0.000535562164    -0.003064658850
       5       -0.000007713996    -0.000007500857    -0.000015851554
       6       -0.000000855439    -0.000004918988     0.000003278743
       7       -0.000005442253    -0.000001081366     0.000005032553
       8        0.000001820883     0.000003251571     0.000003729830
       9       -0.000004030507     0.000002162525    -0.000001487004
      10        0.000005181767    -0.000003736450    -0.000001629864
      11        0.000001151511     0.000003733477     0.000006791450
      12        0.000003784785    -0.000001397011    -0.000003494484
      13       -0.000005349951    -0.000002599485    -0.000000853836
      14       -0.000002554745     0.000000966656     0.000000699264
      15        0.000000722926     0.000000476316     0.000002229951
      16        0.000001914438    -0.000000561448    -0.000000795993
      17        0.000013274327    -0.000017662853     0.002743891711
      18        0.000000263418    -0.000005525254     0.000007466238
      19        0.000007328418     0.000004432302    -0.000005827996
      20        0.000008876938     0.000007000376     0.000000585126

  **** Optimization is complete! (in 9 steps) ****
    Final optimized geometry and variables:
    Molecular point group: c1

    Geometry (in Angstrom), charge = 0, multiplicity = 1:

    O           -0.930013800948    -1.467840231028     1.017864664761
    C            0.099234281199    -1.208139666446     0.495463758415
    C            0.375039963009     0.108894126147    -0.202801984215
    O            1.078980289219    -2.121673777096     0.483079051214
    C           -0.855752771812     1.008951832482    -0.278081124761
    H            1.180355094830     0.619754002685     0.319483703368
    H            0.754079995621    -0.109406286954    -1.198178339636
    C           -0.563613113361     2.333034919912    -0.985665961753
    H           -1.220425131906     1.198058784275     0.725849570698
    H           -1.651874862088     0.482196247888    -0.794187466003
    C           -1.790510025602     3.240561454968    -1.064775819644
    H            0.237077229287     2.855245546997    -0.465335964657
    H           -0.196328807843     2.136065001771    -1.990931668128
    H           -2.161607566580     3.484108041430    -0.073607961378
    H           -1.557096554509     4.172520570334    -1.569870231479
    H           -2.597582855594     2.760581029055    -1.610364017685
    C            2.438259215933    -1.753042789479     0.474053417828
    H            2.720940648394    -1.265275305182    -0.450490931579
    H            2.993870479424    -2.672680857874     0.570498088781
    H            2.674791679883    -1.108539927430     1.312246126161

  Mulliken Charges: (a.u.)
   Center  Symbol    Alpha    Beta     Spin     Total
       1     O     4.26261  4.26261  0.00000 -0.52521
       2     C     2.60104  2.60104  0.00000  0.79792
       3     C     3.23186  3.23186  0.00000 -0.46371
       4     O     4.30535  4.30535  0.00000 -0.61069
       5     C     3.14803  3.14803  0.00000 -0.29606
       6     H     0.40512  0.40512  0.00000  0.18976
       7     H     0.40277  0.40277  0.00000  0.19447
       8     C     3.15474  3.15474  0.00000 -0.30949
       9     H     0.40863  0.40863  0.00000  0.18274
      10     H     0.41003  0.41003  0.00000  0.17994
      11     C     3.23955  3.23955  0.00000 -0.47911
      12     H     0.42398  0.42398  0.00000  0.15204
      13     H     0.42333  0.42333  0.00000  0.15335
      14     H     0.41922  0.41922  0.00000  0.16157
      15     H     0.41843  0.41843  0.00000  0.16313
      16     H     0.41909  0.41909  0.00000  0.16183
      17     C     3.09421  3.09421  0.00000 -0.18841
      18     H     0.41772  0.41772  0.00000  0.16455
      19     H     0.39854  0.39854  0.00000  0.20292
      20     H     0.41576  0.41576  0.00000  0.16847

   Total alpha = 32.00000, Total beta = 32.00000, Total charge =  0.00000
