                              Psi4 1.0.54 Driver

  ==> Input File <==

--------------------------------------------------------------------------
set {
	reference rhf
	basis cc-pvtz
}

set_num_threads( 4 )
memory 2 gb

molecule MOL {
0 1

H	 1.821212	 -0.696749	 1.546099
C	 1.908917	 -0.182980	 0.579660
C	 0.692262	 0.592428	 0.156232
O	 2.908004	 -0.267919	 -0.046634
C	 -0.554654	 -0.292621	 0.086567
H	 0.898056	 1.059341	 -0.797958
H	 0.535716	 1.379272	 0.891248
C	 -1.846385	 0.513195	 -0.016346
H	 -0.473986	 -0.956115	 -0.769708
H	 -0.597929	 -0.929215	 0.966651
C	 -3.089953	 -0.365049	 -0.098564
H	 -1.798267	 1.154820	 -0.891143
H	 -1.925398	 1.173265	 0.842889
H	 -3.055079	 -1.012299	 -0.968245
H	 -3.988403	 0.236438	 -0.170014
H	 -3.183055	 -0.995885	 0.779079

	symmetry c1
}
set optking {
	frozen_dihedral = ("
		6 3 5 9
	")
}

ee,wfn = optimize('scf', return_wfn=True)
oeprop( wfn, 'DIPOLE', 'QUADRUPOLE', 'MULLIKEN_CHARGES')
f=open( 'psi4out.xyz', 'w' )
f.write( "16  " )
f.write( str(ee) + "\n" )
f.write( MOL.save_string_xyz() )
f.close()
--------------------------------------------------------------------------

    Molecular point group: c1
  Charge       = 0
  Multiplicity = 1
  Basis Set: CC-PVTZ
  Basis Set:
  @DF-RHF Final Energy:  -270.11884409707829
    Total Energy =                       -270.1188440970784086
    Molecular point group: c1
  Basis Set: CC-PVTZ
  Basis Set:
  Basis Set: CC-PVTZ
  Basis Set:
  @DF-RHF Final Energy:  -270.11886885990884
    Total Energy =                       -270.1188688599088437
  Basis Set: CC-PVTZ
  Basis Set:
  Basis Set: CC-PVTZ
  Basis Set:
  @DF-RHF Final Energy:  -270.11844334036755
    Total Energy =                       -270.1184433403677190
  Basis Set: CC-PVTZ
  Basis Set:
  Basis Set: CC-PVTZ
  Basis Set:
  @DF-RHF Final Energy:  -270.11888826303033
    Total Energy =                       -270.1188882630303283
  Basis Set: CC-PVTZ
  Basis Set:
  Basis Set: CC-PVTZ
  Basis Set:
  @DF-RHF Final Energy:  -270.11889554001039
    Total Energy =                       -270.1188955400102714
  Basis Set: CC-PVTZ
  Basis Set:
  Charge       = 0
  Multiplicity = 1
  Basis Set: CC-PVTZ
  Basis Set:

    Orbital Energies (a.u.)
    -----------------------

    Doubly Occupied:

       1A    -20.552126     2A    -11.321229     3A    -11.234684
       4A    -11.234002     5A    -11.227493     6A    -11.216698
       7A     -1.406970     8A     -1.097830     9A     -1.020086
      10A     -0.906858    11A     -0.812752    12A     -0.793922
      13A     -0.680491    14A     -0.650655    15A     -0.632425
      16A     -0.604812    17A     -0.582062    18A     -0.553970
      19A     -0.530744    20A     -0.509848    21A     -0.488142
      22A     -0.482598    23A     -0.480908    24A     -0.411407

  @DF-RHF Final Energy:  -270.11889643418198

   => Energetics <=

    Nuclear Repulsion Energy =            229.3621419660850052
    One-Electron Energy =                -820.0966577663555199
    Two-Electron Energy =                 320.6156193660884810
    DFT Exchange-Correlation Energy =       0.0000000000000000
    Empirical Dispersion Energy =           0.0000000000000000
    PCM Polarization Energy =               0.0000000000000000
    EFP Energy =                            0.0000000000000000
    Total Energy =                       -270.1188964341820338
    Molecular point group: c1
  Basis Set: CC-PVTZ
  Basis Set:

  -Total Gradient:
     Atom            X                  Y                   Z
    ------   -----------------  -----------------  -----------------
       1        0.000011178678    -0.000021027752    -0.000035800203
       2        0.000029403891     0.000004587802     0.000092840241
       3       -0.001534509705     0.002062123382     0.000399565964
       4       -0.000054882915     0.000034254224     0.000012072968
       5        0.001344397781    -0.001949892960     0.001087711380
       6        0.001019882736    -0.001482126962    -0.000543541786
       7        0.000016014588     0.000010956359    -0.000012420855
       8       -0.000005871131     0.000027300287     0.000055966308
       9       -0.000839990321     0.001275281395    -0.001032478459
      10        0.000023099864     0.000033201127    -0.000021462088
      11        0.000000431028     0.000002322977    -0.000010627272
      12        0.000004216486    -0.000006472762     0.000005039098
      13       -0.000018852208     0.000015381187     0.000006223152
      14       -0.000000351063    -0.000007648121    -0.000001701417
      15        0.000006861043    -0.000000783162    -0.000004627781
      16       -0.000001028755     0.000002542979     0.000003240751

  **** Optimization is complete! (in 6 steps) ****
    Final optimized geometry and variables:
    Molecular point group: c1

    Geometry (in Angstrom), charge = 0, multiplicity = 1:

    H            1.866833919550    -0.729996056154     1.389472744245
    C            1.921631669832    -0.209951306337     0.423940939926
    C            0.703305085831     0.595414731835     0.062528143646
    O            2.888605154624    -0.311219397257    -0.248454341224
    C           -0.557517454716    -0.272677310182     0.014090449605
    H            0.889892767661     1.071050636237    -0.891066800173
    H            0.587660616531     1.367306398123     0.820002330175
    C           -1.839961399668     0.552143676367    -0.064402770226
    H           -0.503636631858    -0.924104628523    -0.852810256326
    H           -0.597644199963    -0.914543833843     0.890230595859
    C           -3.094946439910    -0.307982166458    -0.162126290410
    H           -1.787001975596     1.213542235207    -0.924313988698
    H           -1.907254564585     1.192896237647     0.810249950635
    H           -3.072699514627    -0.933852920697    -1.047728673164
    H           -3.986117477663     0.306232005017    -0.213767954722
    H           -3.191598170489    -0.959366614794     0.700048855627

  Mulliken Charges: (a.u.)
   Center  Symbol    Alpha    Beta     Spin     Total
       1     H     0.46562  0.46562  0.00000  0.06876
       2     C     2.90804  2.90804  0.00000  0.18392
       3     C     3.07739  3.07739  0.00000 -0.15479
       4     O     4.16417  4.16417  0.00000 -0.32834
       5     C     3.10207  3.10207  0.00000 -0.20414
       6     H     0.44199  0.44199  0.00000  0.11603
       7     H     0.45044  0.45044  0.00000  0.09913
       8     C     3.08504  3.08504  0.00000 -0.17007
       9     H     0.44522  0.44522  0.00000  0.10956
      10     H     0.45207  0.45207  0.00000  0.09586
      11     C     3.14913  3.14913  0.00000 -0.29826
      12     H     0.45100  0.45100  0.00000  0.09799
      13     H     0.45346  0.45346  0.00000  0.09308
      14     H     0.45320  0.45320  0.00000  0.09360
      15     H     0.44668  0.44668  0.00000  0.10665
      16     H     0.45449  0.45449  0.00000  0.09102

   Total alpha = 24.00000, Total beta = 24.00000, Total charge = -0.00000

*** Psi4 exiting successfully. Buy a developer a beer!
