  ==> Input File <==

--------------------------------------------------------------------------
set {
	reference rhf
	basis cc-pvtz
}

set_num_threads( 4 )
memory 2 gb

molecule MOL {
0 1

H	 -0.000342	 -0.223902	 -3.352295
C	 -0.027146	 0.371068	 -2.446756
C	 0.024493	 -0.518541	 -1.216015
H	 -0.932586	 0.964979	 -2.449855
H	 0.819708	 1.049865	 -2.473332
N	 -0.042516	 0.263377	 -0.000000
H	 -0.822211	 -1.197105	 -1.225584
H	 0.921114	 -1.142847	 -1.255206
C	 0.024493	 -0.518541	 1.216015
H	 0.682568	 0.950412	 -0.000000
C	 0.669845	 0.269872	 2.343277
H	 -0.988159	 -0.787887	 1.497863
H	 0.565291	 -1.457750	 1.072326
H	 0.120335	 1.183566	 2.532388
H	 0.694412	 -0.314447	 3.255788
H	 1.692402	 0.538110	 2.096174

	symmetry c1
}
set optking {
	frozen_dihedral = ("
		12 9 6 3
	")
}

ee = optimize('scf')
oeprop('DIPOLE', 'QUADRUPOLE', 'MULLIKEN_CHARGES')
f=open( 'psi4out.xyz', 'w' )
f.write( "16  " )
f.write( str(ee) + "\n" )
f.write( MOL.save_string_xyz() )
f.close()
--------------------------------------------------------------------------

    Molecular point group: c1
  Charge       = 0
  Multiplicity = 1
  Basis Set: CC-PVTZ
  Basis Set:
  @DF-RHF Final Energy:  -212.39211689909436
    Total Energy =                       -212.3921168990943329
    Molecular point group: c1
  Basis Set: CC-PVTZ
  Basis Set:
  Basis Set: CC-PVTZ
  Basis Set:
  @DF-RHF Final Energy:  -212.39232707999290
    Total Energy =                       -212.3923270799928105
  Basis Set: CC-PVTZ
  Basis Set:
  Basis Set: CC-PVTZ
  Basis Set:
  @DF-RHF Final Energy:  -212.39235383937580
    Total Energy =                       -212.3923538393758008
  Basis Set: CC-PVTZ
  Basis Set:
  Basis Set: CC-PVTZ
  Basis Set:
  @DF-RHF Final Energy:  -212.39235522154894
    Total Energy =                       -212.3923552215491668
  Basis Set: CC-PVTZ
  Basis Set:
  Charge       = 0
  Multiplicity = 1
  Basis Set: CC-PVTZ
  Basis Set:

    Orbital Energies (a.u.)
    -----------------------

    Doubly Occupied:

       1A    -15.528165     2A    -11.238913     3A    -11.238819
       4A    -11.210101     5A    -11.206143     6A     -1.206253
       7A     -1.029910     8A     -0.964100     9A     -0.833925
      10A     -0.822763    11A     -0.655189    12A     -0.629492
      13A     -0.611252    14A     -0.588275    15A     -0.552820
      16A     -0.521858    17A     -0.508040    18A     -0.490347
      19A     -0.485408    20A     -0.472617    21A     -0.362287

  @DF-RHF Final Energy:  -212.39235531316277

   => Energetics <=

    Nuclear Repulsion Energy =            189.5665678056431886
    One-Electron Energy =                -661.6044969740530632
    Two-Electron Energy =                 259.6455738552471075
    DFT Exchange-Correlation Energy =       0.0000000000000000
    Empirical Dispersion Energy =           0.0000000000000000
    PCM Polarization Energy =               0.0000000000000000
    EFP Energy =                            0.0000000000000000
    Total Energy =                       -212.3923553131627386
    Molecular point group: c1
  Basis Set: CC-PVTZ
  Basis Set:

  -Total Gradient:
     Atom            X                  Y                   Z
    ------   -----------------  -----------------  -----------------
       1       -0.000000045291    -0.000000136253     0.000001870890
       2        0.000006089946     0.000001703529    -0.000000207088
       3        0.003106785876     0.000232430458     0.000011460043
       4        0.000000462336    -0.000001332129     0.000001896501
       5        0.000001262654     0.000003424269    -0.000002882863
       6       -0.004471717941     0.000456282285     0.000539176073
       7       -0.000002593270    -0.000012952053    -0.000011000067
       8        0.000004461078    -0.000003317587    -0.000003688031
       9        0.001594122828    -0.004141980488    -0.002760153583
      10       -0.000002355607     0.000046330475     0.000019703429
      11        0.000016627907     0.000015518071    -0.000001444496
      12       -0.000233248676     0.003409930076     0.002192142826
      13       -0.000005592242    -0.000004383874     0.000005799763
      14       -0.000002794872     0.000005342788    -0.000001910464
      15       -0.000000755045    -0.000008115605     0.000005570156
      16       -0.000010709681     0.000001256038     0.000003666911

  **** Optimization is complete! (in 5 steps) ****
    Final optimized geometry and variables:
    Molecular point group: c1

    Geometry (in Angstrom), charge = 0, multiplicity = 1:

    H           -0.156384908613    -0.195295114342    -3.336392101930
    C           -0.182734552527     0.396336537816    -2.428574843450
    C           -0.119535041879    -0.496845277790    -1.201253889505
    H           -1.091440098352     0.985098578969    -2.425395420222
    H            0.659894603129     1.080461698214    -2.456179901898
    N           -0.173405061453     0.282039378299     0.018603044962
    H           -0.965879668028    -1.176559322402    -1.207232853139
    H            0.776609665071    -1.120492388823    -1.247823246498
    C           -0.110789266109    -0.503405956789     1.238842480191
    H            0.572970976262     0.944970548896     0.011786182303
    C            0.518485235976     0.291701942782     2.373014194501
    H           -1.120169015768    -0.769463630522     1.537129702844
    H            0.446084563479    -1.429424676951     1.095588154086
    H           -0.020286117403     1.218525845651     2.533550153341
    H            0.499207168937    -0.274839860596     3.296284705006
    H            1.553449702074     0.535728184885     2.154197622178

  Mulliken Charges: (a.u.)
   Center  Symbol    Alpha    Beta     Spin     Total
       1     H     0.45375  0.45375  0.00000  0.09250
       2     C     3.14270  3.14270  0.00000 -0.28540
       3     C     3.02293  3.02293  0.00000 -0.04587
       4     H     0.44934  0.44934  0.00000  0.10133
       5     H     0.45969  0.45969  0.00000  0.08063
       6     N     3.63522  3.63522  0.00000 -0.27044
       7     H     0.45819  0.45819  0.00000  0.08361
       8     H     0.47309  0.47309  0.00000  0.05382
       9     C     3.01705  3.01705  0.00000 -0.03410
      10     H     0.44765  0.44765  0.00000  0.10470
      11     C     3.14834  3.14834  0.00000 -0.29669
      12     H     0.45875  0.45875  0.00000  0.08249
      13     H     0.47387  0.47387  0.00000  0.05226
      14     H     0.44917  0.44917  0.00000  0.10166
      15     H     0.45082  0.45082  0.00000  0.09837
      16     H     0.45943  0.45943  0.00000  0.08114

   Total alpha = 21.00000, Total beta = 21.00000, Total charge = -0.00000
