  ==> Input File <==

--------------------------------------------------------------------------
set {
	reference rhf
	basis 6-31G*
}

set_num_threads( 4 )
memory 2 gb

molecule MOL {
0 1

O	 -1.709258	 -0.205101	 2.189747
C	 -2.078982	 -0.672905	 1.160631
C	 -3.277086	 -1.578045	 1.032036
O	 -1.481751	 -0.454642	 0.000584
H	 -4.150745	 -1.053114	 1.399501
H	 -3.438631	 -1.890062	 0.010769
H	 -3.126775	 -2.445909	 1.662986
C	 -0.334255	 0.388708	 0.000906
C	 0.891947	 -0.504646	 0.000751
H	 -0.365390	 1.025305	 -0.873475
H	 -0.365484	 1.024911	 0.875569
C	 2.191998	 0.301789	 0.000897
H	 0.855148	 -1.151283	 -0.871571
H	 0.855132	 -1.151660	 0.872805
C	 3.441114	 -0.581407	 0.000108
H	 2.215074	 0.954890	 -0.869742
H	 2.215465	 0.953923	 0.872248
C	 4.739576	 0.224112	 -0.001102
H	 3.419457	 -1.233487	 -0.870178
H	 3.420834	 -1.233096	 0.870717
H	 4.804918	 0.861552	 -0.878265
H	 5.606527	 -0.429058	 -0.001824
H	 4.806469	 0.861674	 0.875853

	symmetry c1
}
set optking {
	frozen_dihedral = ("
		2 4 8 10
	")
}

ee = optimize('scf')
oeprop('DIPOLE', 'QUADRUPOLE', 'MULLIKEN_CHARGES')
f=open( 'psi4out.xyz', 'w' )
f.write( "23  " )
f.write( str(ee) + "\n" )
f.write( MOL.save_string_xyz() )
f.close()
--------------------------------------------------------------------------

    Molecular point group: c1
  Charge       = 0
  Multiplicity = 1
  Basis Set: 6-31G*
  Basis Set:
  @DF-RHF Final Energy:  -422.97718959844150
    Total Energy =                       -422.9771895984414414
    Molecular point group: c1
  Basis Set: 6-31G*
  Basis Set:
  Basis Set: 6-31G*
  Basis Set:
  @DF-RHF Final Energy:  -422.97798541401062
    Total Energy =                       -422.9779854140113002
  Basis Set: 6-31G*
  Basis Set:
  Basis Set: 6-31G*
  Basis Set:
  @DF-RHF Final Energy:  -422.97523515481464
    Total Energy =                       -422.9752351548153229
  Basis Set: 6-31G*
  Basis Set:
  Basis Set: 6-31G*
  Basis Set:
  @DF-RHF Final Energy:  -422.97835826989029
    Total Energy =                       -422.9783582698898954
  Basis Set: 6-31G*
  Basis Set:
  Basis Set: 6-31G*
  Basis Set:
  @DF-RHF Final Energy:  -422.97838780638176
    Total Energy =                       -422.9783878063816474
  Basis Set: 6-31G*
  Basis Set:
  Charge       = 0
  Multiplicity = 1
  Basis Set: 6-31G*
  Basis Set:

    Orbital Energies (a.u.)
    -----------------------

    Doubly Occupied:

       1A    -20.602454     2A    -20.540501     3A    -11.375629
       4A    -11.280323     5A    -11.232120     6A    -11.222693
       7A    -11.221936     8A    -11.220194     9A    -11.211771
      10A     -1.466211    11A     -1.361228    12A     -1.092137
      13A     -1.041108    14A     -1.002519    15A     -0.931285
      16A     -0.849038    17A     -0.799490    18A     -0.768435
      19A     -0.698955    20A     -0.678420    21A     -0.655509
      22A     -0.649851    23A     -0.604259    24A     -0.588786
      25A     -0.585266    26A     -0.572769    27A     -0.549424
      28A     -0.539754    29A     -0.522138    30A     -0.510749
      31A     -0.486098    32A     -0.478114    33A     -0.474422
      34A     -0.469276    35A     -0.437780    36A     -0.436223

  @DF-RHF Final Energy:  -422.97838859960802

   => Energetics <=

    Nuclear Repulsion Energy =            454.3036524237729736
    One-Electron Energy =               -1476.2503501083779156
    Two-Electron Energy =                 598.9683090849971450
    DFT Exchange-Correlation Energy =       0.0000000000000000
    Empirical Dispersion Energy =           0.0000000000000000
    PCM Polarization Energy =               0.0000000000000000
    EFP Energy =                            0.0000000000000000
    Total Energy =                       -422.9783885996077970
    Molecular point group: c1
  Basis Set: 6-31G*
  Basis Set:

  -Total Gradient:
     Atom            X                  Y                   Z
    ------   -----------------  -----------------  -----------------
       1       -0.000024214987    -0.000016574750    -0.000017729284
       2       -0.000720876625     0.001043319204    -0.000161141598
       3       -0.000011901910     0.000027468106     0.000004960832
       4        0.000952612337    -0.001453082088     0.000417656993
       5       -0.000024986082    -0.000011067017     0.000005722644
       6        0.000009159931     0.000007795941     0.000007534703
       7        0.000007112308     0.000006577624    -0.000002430457
       8        0.000517844218    -0.000645302848    -0.001017664982
       9       -0.000062215655     0.000001974121    -0.000013205326
      10       -0.000670428686     0.001050792837     0.000767518586
      11        0.000042264144     0.000011553873    -0.000019343874
      12       -0.000044795561     0.000008771543     0.000010346180
      13        0.000027567668    -0.000031753506     0.000007524913
      14       -0.000004582511     0.000010509611     0.000010250328
      15       -0.000002710216    -0.000012876723    -0.000024183398
      16       -0.000012916860     0.000001173124     0.000023124451
      17        0.000012634928     0.000000395372     0.000011306884
      18        0.000006852903    -0.000003410952    -0.000003378745
      19        0.000002079820    -0.000008445828    -0.000001795096
      20       -0.000000878898     0.000012232147    -0.000005959041
      21        0.000001339965    -0.000003112225     0.000000091672
      22        0.000003741677     0.000002164105     0.000001791841
      23       -0.000002701898     0.000000898326    -0.000000998229

  **** Optimization is complete! (in 6 steps) ****
    Final optimized geometry and variables:
    Molecular point group: c1

    Geometry (in Angstrom), charge = 0, multiplicity = 1:

    O           -2.024542866465     0.064405121218     1.732615233173
    C           -2.375470692871    -0.342706030569     0.671526058569
    C           -3.610963115233    -1.181335273455     0.467498114124
    O           -1.730815393354    -0.117233642364    -0.462902687294
    H           -4.470064007740    -0.626606212253     0.825536693072
    H           -3.751086643975    -1.447257278637    -0.569723176202
    H           -3.525865152215    -2.077787064924     1.069990389587
    C           -0.555043846310     0.689337540491    -0.441838459726
    C            0.690203951123    -0.181104133405    -0.446297756578
    H           -0.614486405584     1.302660073232    -1.330976376421
    H           -0.579869139524     1.332059794108     0.424118282655
    C            1.973077444720     0.650187755297    -0.504402601668
    H            0.644407430278    -0.856368522990    -1.296498169473
    H            0.688181486441    -0.795440264311     0.449801894393
    C            3.239988394533    -0.207274713987    -0.512969758096
    H            1.960006634775     1.277423289927    -1.394459549760
    H            2.005159476132     1.327396701389     0.347143589470
    C            4.520893386879     0.623884506941    -0.571419194827
    H            3.209588542920    -0.884950070977    -1.363288851624
    H            3.255388857429    -0.832911255922     0.376454756691
    H            4.550982156086     1.235992251645    -1.468424125358
    H            5.401051182600    -0.011388855598    -0.575222504402
    H            4.596395008925     1.288479339802     0.284476575672

  Mulliken Charges: (a.u.)
   Center  Symbol    Alpha    Beta     Spin     Total
       1     O     4.28474  4.28474  0.00000 -0.56948
       2     C     2.61521  2.61521  0.00000  0.76957
       3     C     3.28813  3.28813  0.00000 -0.57626
       4     O     4.31342  4.31342  0.00000 -0.62684
       5     H     0.39752  0.39752  0.00000  0.20497
       6     H     0.39969  0.39969  0.00000  0.20061
       7     H     0.39771  0.39771  0.00000  0.20458
       8     C     3.00465  3.00465  0.00000 -0.00930
       9     C     3.16590  3.16590  0.00000 -0.33180
      10     H     0.41211  0.41211  0.00000  0.17578
      11     H     0.39796  0.39796  0.00000  0.20407
      12     C     3.16128  3.16128  0.00000 -0.32256
      13     H     0.41547  0.41547  0.00000  0.16907
      14     H     0.41104  0.41104  0.00000  0.17792
      15     C     3.15141  3.15141  0.00000 -0.30282
      16     H     0.42269  0.42269  0.00000  0.15463
      17     H     0.41887  0.41887  0.00000  0.16226
      18     C     3.23989  3.23989  0.00000 -0.47978
      19     H     0.42190  0.42190  0.00000  0.15620
      20     H     0.42027  0.42027  0.00000  0.15946
      21     H     0.42156  0.42156  0.00000  0.15688
      22     H     0.41809  0.41809  0.00000  0.16382
      23     H     0.42050  0.42050  0.00000  0.15901

   Total alpha = 36.00000, Total beta = 36.00000, Total charge = -0.00000
