                              Psi4 1.0.54 Driver

  ==> Input File <==

--------------------------------------------------------------------------
set {
	reference rhf
	basis cc-pvtz
}

set_num_threads( 4 )
memory 2 gb

molecule MOL {
0 1

H	 -3.162190	 0.493205	 -0.000107
C	 -2.363908	 -0.234727	 0.000005
O	 -1.158738	 0.454634	 -0.000087
H	 -2.464314	 -0.863616	 -0.882153
H	 -2.464327	 -0.863359	 0.882345
C	 -0.555989	 0.562124	 -1.251269
C	 0.742846	 1.330840	 -1.115275
H	 -1.223890	 1.072754	 -1.945390
H	 -0.364283	 -0.430101	 -1.660392
C	 1.466347	 1.492005	 -2.447538
H	 0.525413	 2.303593	 -0.688193
H	 1.378195	 0.812658	 -0.405507
H	 0.856851	 2.030121	 -3.165892
H	 2.389533	 2.044132	 -2.321423
H	 1.715594	 0.529244	 -2.881168

	symmetry c1
}
set optking {
	frozen_dihedral = ("
		6 3 2 4
	")
}

ee,wfn = optimize('scf', return_wfn=True)
oeprop( wfn, 'DIPOLE', 'QUADRUPOLE', 'MULLIKEN_CHARGES')
f=open( 'psi4out.xyz', 'w' )
f.write( "15  " )
f.write( str(ee) + "\n" )
f.write( MOL.save_string_xyz() )
f.close()
--------------------------------------------------------------------------

    Molecular point group: c1
  Charge       = 0
  Multiplicity = 1
  Basis Set: CC-PVTZ
  Basis Set:
  @DF-RHF Final Energy:  -232.22477838437922
    Total Energy =                       -232.2247783843791922
    Molecular point group: c1
  Basis Set: CC-PVTZ
  Basis Set:
  Basis Set: CC-PVTZ
  Basis Set:
  @DF-RHF Final Energy:  -232.22534091981427
    Total Energy =                       -232.2253409198141867
  Basis Set: CC-PVTZ
  Basis Set:
  Basis Set: CC-PVTZ
  Basis Set:
  @DF-RHF Final Energy:  -232.22547044556001
    Total Energy =                       -232.2254704455598926
  Basis Set: CC-PVTZ
  Basis Set:
  Charge       = 0
  Multiplicity = 1
  Basis Set: CC-PVTZ
  Basis Set:

    Orbital Energies (a.u.)
    -----------------------

    Doubly Occupied:

       1A    -20.544801     2A    -11.264820     3A    -11.261392
       4A    -11.212346     5A    -11.210520     6A     -1.378070
       7A     -1.058142     8A     -0.956109     9A     -0.877423
      10A     -0.809335    11A     -0.673949    12A     -0.654477
      13A     -0.632011    14A     -0.608122    15A     -0.564237
      16A     -0.544250    17A     -0.503083    18A     -0.490064
      19A     -0.478957    20A     -0.462311    21A     -0.412160

  @DF-RHF Final Energy:  -232.22547147097825

   => Energetics <=

    Nuclear Repulsion Energy =            189.7551708137251865
    One-Electron Energy =                -690.7681298453667296
    Two-Electron Energy =                 268.7874875606631804
    DFT Exchange-Correlation Energy =       0.0000000000000000
    Empirical Dispersion Energy =           0.0000000000000000
    PCM Polarization Energy =               0.0000000000000000
    EFP Energy =                            0.0000000000000000
    Total Energy =                       -232.2254714709783912
    Molecular point group: c1
  Basis Set: CC-PVTZ
  Basis Set:

  -Total Gradient:
     Atom            X                  Y                   Z
    ------   -----------------  -----------------  -----------------
       1       -0.000016758683    -0.000004083813     0.000008687184
       2        0.001825374273    -0.002975099540     0.001751427626
       3       -0.001820546572     0.002897231649    -0.000846940725
       4       -0.001033648409     0.001816819235    -0.001259560350
       5        0.000046060036     0.000008291907    -0.000009719877
       6        0.001044638491    -0.001766560632     0.000292117085
       7       -0.000027370216     0.000006626517     0.000038148554
       8       -0.000009262323    -0.000001342775     0.000064556679
       9       -0.000007824218    -0.000002430957    -0.000021202199
      10       -0.000004574611     0.000010310847    -0.000015792891
      11        0.000015720577     0.000012710505     0.000002340871
      12       -0.000013154647    -0.000002776009    -0.000002461114
      13        0.000003051586    -0.000001517197    -0.000004752077
      14       -0.000001327700     0.000002176654    -0.000001966653
      15       -0.000000377581    -0.000000356391     0.000005117889

  **** Optimization is complete! (in 4 steps) ****
    Final optimized geometry and variables:
    Molecular point group: c1

    Geometry (in Angstrom), charge = 0, multiplicity = 1:

    H           -2.820566711773    -0.292993269301     0.927957470708
    C           -1.971209201193    -0.970724650024     0.937388597407
    O           -0.774245926997    -0.258648266292     0.931083405158
    H           -2.059564558554    -1.620616440116     0.072045377133
    H           -2.018199981010    -1.571554218462     1.835777710350
    C           -0.139995932632    -0.150623860122    -0.305359799950
    C            1.134892201152     0.651411368471    -0.139199128896
    H           -0.795784799684     0.337461328630    -1.026662552076
    H            0.088602215204    -1.141779381180    -0.695743517667
    C            1.897480517473     0.810380924644    -1.449916511651
    H            0.881139615663     1.624910923707     0.265692904927
    H            1.758508877834     0.158939487310     0.598824207421
    H            1.299054718649     1.322594336830    -2.196049123726
    H            2.802645673813     1.386805371829    -1.302910806977
    H            2.183825046527    -0.152438257013    -1.860031904436

  Mulliken Charges: (a.u.)
   Center  Symbol    Alpha    Beta     Spin     Total
       1     H     0.46295  0.46295  0.00000  0.07409
       2     C     3.03007  3.03007  0.00000 -0.06014
       3     O     4.17546  4.17546  0.00000 -0.35092
       4     H     0.47380  0.47380  0.00000  0.05239
       5     H     0.45277  0.45277  0.00000  0.09445
       6     C     2.95552  2.95552  0.00000  0.08897
       7     C     3.08173  3.08173  0.00000 -0.16346
       8     H     0.47648  0.47648  0.00000  0.04705
       9     H     0.47502  0.47502  0.00000  0.04996
      10     C     3.15588  3.15588  0.00000 -0.31175
      11     H     0.45104  0.45104  0.00000  0.09791
      12     H     0.45123  0.45123  0.00000  0.09753
      13     H     0.45584  0.45584  0.00000  0.08832
      14     H     0.44628  0.44628  0.00000  0.10745
      15     H     0.45592  0.45592  0.00000  0.08815

   Total alpha = 21.00000, Total beta = 21.00000, Total charge =  0.00000

*** Psi4 exiting successfully. Buy a developer a beer!
