  ==> Input File <==

--------------------------------------------------------------------------
set {
	reference rhf
	basis cc-pvtz
}

set_num_threads( 4 )
memory 2 gb

molecule MOL {
0 1

O	 -0.694481	 1.313155	 -0.204815
C	 -0.862519	 0.151932	 -0.046791
C	 -2.171428	 -0.477048	 0.339095
O	 0.085519	 -0.757083	 -0.192238
H	 -2.467997	 -1.191667	 -0.417688
H	 -2.923379	 0.287970	 0.444097
H	 -2.053854	 -1.015120	 1.270901
C	 1.330869	 -0.559038	 0.466824
C	 1.294851	 -1.062090	 1.894949
H	 1.590225	 0.487463	 0.429593
H	 2.043209	 -1.119022	 -0.120322
H	 2.276799	 -0.956151	 2.342169
H	 0.589138	 -0.495355	 2.486695
H	 1.018240	 -2.109075	 1.924969

	symmetry c1
}
set optking {
	frozen_dihedral = ("
		8 4 2 1
	")
}

ee = optimize('scf')
oeprop('DIPOLE', 'QUADRUPOLE', 'MULLIKEN_CHARGES')
f=open( 'psi4out.xyz', 'w' )
f.write( "14  " )
f.write( str(ee) + "\n" )
f.write( MOL.save_string_xyz() )
f.close()
--------------------------------------------------------------------------

    Molecular point group: c1
  Charge       = 0
  Multiplicity = 1
  Basis Set: CC-PVTZ
  Basis Set:
  @DF-RHF Final Energy:  -305.97993090234479
    Total Energy =                       -305.9799309023449041
    Molecular point group: c1
  Basis Set: CC-PVTZ
  Basis Set:
  Basis Set: CC-PVTZ
  Basis Set:
  @DF-RHF Final Energy:  -305.97776266643200
    Total Energy =                       -305.9777626664318291
  Basis Set: CC-PVTZ
  Basis Set:
  Basis Set: CC-PVTZ
  Basis Set:
  @DF-RHF Final Energy:  -305.98091916026993
    Total Energy =                       -305.9809191602699912
  Basis Set: CC-PVTZ
  Basis Set:
  Basis Set: CC-PVTZ
  Basis Set:
  @DF-RHF Final Energy:  -305.98100027035048
    Total Energy =                       -305.9810002703507621
  Basis Set: CC-PVTZ
  Basis Set:
  Basis Set: CC-PVTZ
  Basis Set:
  @DF-RHF Final Energy:  -305.98101016501903
    Total Energy =                       -305.9810101650189722
  Basis Set: CC-PVTZ
  Basis Set:
  Basis Set: CC-PVTZ
  Basis Set:
  @DF-RHF Final Energy:  -305.98101392580963
    Total Energy =                       -305.9810139258095774
  Basis Set: CC-PVTZ
  Basis Set:
  Basis Set: CC-PVTZ
  Basis Set:
  @DF-RHF Final Energy:  -305.98101273375437
    Total Energy =                       -305.9810127337544827
  Basis Set: CC-PVTZ
  Basis Set:
  Charge       = 0
  Multiplicity = 1
  Basis Set: CC-PVTZ
  Basis Set:

    Orbital Energies (a.u.)
    -----------------------

    Doubly Occupied:

       1A    -20.583648     2A    -20.539089     3A    -11.369108
       4A    -11.287304     5A    -11.232817     6A    -11.225305
       7A     -1.464154     8A     -1.367066     9A     -1.052978
      10A     -1.006138    11A     -0.885125    12A     -0.764871
      13A     -0.698634    14A     -0.684364    15A     -0.667456
      16A     -0.615371    17A     -0.591481    18A     -0.572351
      19A     -0.558927    20A     -0.543053    21A     -0.516150
      22A     -0.496098    23A     -0.453526    24A     -0.441210

  @DF-RHF Final Energy:  -305.98101361038266

   => Energetics <=

    Nuclear Repulsion Energy =            248.9525082278001094
    One-Electron Energy =                -910.6345945159689563
    Two-Electron Energy =                 355.7010726777863283
    DFT Exchange-Correlation Energy =       0.0000000000000000
    Empirical Dispersion Energy =           0.0000000000000000
    PCM Polarization Energy =               0.0000000000000000
    EFP Energy =                            0.0000000000000000
    Total Energy =                       -305.9810136103825471
    Molecular point group: c1
  Basis Set: CC-PVTZ
  Basis Set:

  -Total Gradient:
     Atom            X                  Y                   Z
    ------   -----------------  -----------------  -----------------
       1       -0.002961780466    -0.000143648896    -0.009553111380
       2        0.002853332573    -0.001664254871     0.017345317447
       3        0.000054501267    -0.000042967598    -0.000044072904
       4        0.002450087156     0.006025420912    -0.013698327726
       5       -0.000014158055     0.000065002882    -0.000011615793
       6        0.000014982184     0.000078879185    -0.000025179178
       7        0.000025302298    -0.000020753307    -0.000018803183
       8       -0.002432179052    -0.004323278354     0.005946084035
       9       -0.000012086684     0.000049247462     0.000001985925
      10       -0.000023291401     0.000005590042     0.000036650220
      11        0.000064990699    -0.000012100212     0.000020450247
      12       -0.000042032163     0.000012550145    -0.000041272279
      13        0.000012369172     0.000004986210     0.000028615097
      14        0.000009962472    -0.000034673600     0.000013279469

  **** Optimization is complete! (in 8 steps) ****
    Final optimized geometry and variables:
    Molecular point group: c1

    Geometry (in Angstrom), charge = 0, multiplicity = 1:

    O           -0.529086244085     1.550405149236    -0.449848785223
    C           -0.703574618767     0.386253609631    -0.365153475925
    C           -2.034641845735    -0.256851651092    -0.103290196366
    O            0.251862455769    -0.515477345248    -0.611652410513
    H           -2.262787295503    -0.945839506686    -0.906192210538
    H           -2.800599941232     0.497996008940    -0.027659613841
    H           -1.983911810379    -0.831437841449     0.813594653408
    C            1.514775118624    -0.350943873559     0.018542479783
    C            1.475547588697    -0.798195934314     1.465581717821
    H            1.824259271307     0.680743341360    -0.065846110460
    H            2.198312835246    -0.960519115687    -0.552568766895
    H            2.465758951797    -0.717129275270     1.898694580630
    H            0.806085817838    -0.178496237072     2.051179536395
    H            1.150839024527    -1.828528777745     1.542058207817

  Mulliken Charges: (a.u.)
   Center  Symbol    Alpha    Beta     Spin     Total
       1     O     4.18417  4.18417  0.00000 -0.36834
       2     C     2.80227  2.80227  0.00000  0.39545
       3     C     3.13647  3.13647  0.00000 -0.27294
       4     O     4.16987  4.16987  0.00000 -0.33973
       5     H     0.44355  0.44355  0.00000  0.11290
       6     H     0.43803  0.43803  0.00000  0.12394
       7     H     0.44946  0.44946  0.00000  0.10107
       8     C     2.98694  2.98694  0.00000  0.02612
       9     C     3.14809  3.14809  0.00000 -0.29618
      10     H     0.44573  0.44573  0.00000  0.10854
      11     H     0.44592  0.44592  0.00000  0.10816
      12     H     0.44766  0.44766  0.00000  0.10468
      13     H     0.45185  0.45185  0.00000  0.09630
      14     H     0.44999  0.44999  0.00000  0.10003

   Total alpha = 24.00000, Total beta = 24.00000, Total charge = -0.00000
