  ==> Input File <==

--------------------------------------------------------------------------
set {
	reference rhf
	basis cc-pvtz
}

set_num_threads( 4 )
memory 2 gb

molecule MOL {
0 1

H	 2.867672	 -0.456275	 0.875795
C	 2.403497	 -0.020426	 0.000000
N	 0.989899	 -0.304564	 0.000000
H	 2.867672	 -0.456275	 -0.875795
H	 2.620366	 1.051270	 0.000000
C	 0.616906	 -1.257057	 1.025281
C	 0.512452	 -0.737395	 -1.297023
H	 1.119075	 -2.218464	 0.879446
H	 0.916729	 -0.874057	 1.993860
C	 -0.884135	 -1.473770	 1.012913
H	 0.735634	 0.026898	 -2.032396
H	 1.006765	 -1.659716	 -1.617530
C	 -0.985905	 -0.967460	 -1.249722
H	 -1.161008	 -2.250540	 1.711910
H	 -1.386798	 -0.553319	 1.303084
O	 -1.324908	 -1.880642	 -0.248562
H	 -1.336341	 -1.378250	 -2.186244
H	 -1.493834	 -0.020809	 -1.076636

	symmetry c1
}
set optking {
	frozen_dihedral = ("
		6 3 2 5
	")
}

ee = optimize('scf')
oeprop('DIPOLE', 'QUADRUPOLE', 'MULLIKEN_CHARGES')
f=open( 'psi4out.xyz', 'w' )
f.write( "18  " )
f.write( str(ee) + "\n" )
f.write( MOL.save_string_xyz() )
f.close()
--------------------------------------------------------------------------

    Molecular point group: c1
  Charge       = 0
  Multiplicity = 1
  Basis Set: CC-PVTZ
  Basis Set:
  @DF-RHF Final Energy:  -325.13971833861018
    Total Energy =                       -325.1397183386100096
    Molecular point group: c1
  Basis Set: CC-PVTZ
  Basis Set:
  Basis Set: CC-PVTZ
  Basis Set:
  @DF-RHF Final Energy:  -325.14055030122171
    Total Energy =                       -325.1405503012221629
  Basis Set: CC-PVTZ
  Basis Set:
  Basis Set: CC-PVTZ
  Basis Set:
  @DF-RHF Final Energy:  -325.14068690507759
    Total Energy =                       -325.1406869050771320
  Basis Set: CC-PVTZ
  Basis Set:
  Basis Set: CC-PVTZ
  Basis Set:
  @DF-RHF Final Energy:  -325.14069747816740
    Total Energy =                       -325.1406974781671124
  Basis Set: CC-PVTZ
  Basis Set:
  Charge       = 0
  Multiplicity = 1
  Basis Set: CC-PVTZ
  Basis Set:

    Orbital Energies (a.u.)
    -----------------------

    Doubly Occupied:

       1A    -20.547047     2A    -15.540434     3A    -11.263614
       4A    -11.263555     5A    -11.242537     6A    -11.242354
       7A    -11.238908     8A     -1.385865     9A     -1.229517
      10A     -1.038996    11A     -0.981228    12A     -0.883904
      13A     -0.870243    14A     -0.773121    15A     -0.684455
      16A     -0.645915    17A     -0.644591    18A     -0.632342
      19A     -0.628322    20A     -0.572539    21A     -0.557517
      22A     -0.547761    23A     -0.526750    24A     -0.499961
      25A     -0.485601    26A     -0.453541    27A     -0.410151
      28A     -0.347504

  @DF-RHF Final Energy:  -325.14069826237636

   => Energetics <=

    Nuclear Repulsion Energy =            341.3932564876581068
    One-Electron Energy =               -1118.7913624064492524
    Two-Electron Energy =                 452.2574076564146139
    DFT Exchange-Correlation Energy =       0.0000000000000000
    Empirical Dispersion Energy =           0.0000000000000000
    PCM Polarization Energy =               0.0000000000000000
    EFP Energy =                            0.0000000000000000
    Total Energy =                       -325.1406982623764748
    Molecular point group: c1
  Basis Set: CC-PVTZ
  Basis Set:

  -Total Gradient:
     Atom            X                  Y                   Z
    ------   -----------------  -----------------  -----------------
       1        0.000005702657    -0.000008127336     0.000011258904
       2       -0.000082425209     0.000751821253    -0.003854736006
       3        0.000646986542    -0.002927404330    -0.001426463785
       4       -0.000024547218    -0.000015624357     0.000025283822
       5       -0.000063705700     0.000096576022     0.003563180590
       6       -0.000495447703     0.002070095032     0.001708527523
       7        0.000014069445     0.000008052792    -0.000033144623
       8        0.000000416865     0.000016766272    -0.000008811835
       9       -0.000006642180    -0.000002523186    -0.000001673187
      10       -0.000020984378     0.000014884099    -0.000012820659
      11       -0.000002499389    -0.000002130251    -0.000002780682
      12        0.000003575391     0.000004730395     0.000011184949
      13       -0.000008245992     0.000004083835     0.000016047038
      14       -0.000005594828    -0.000004234342    -0.000008188053
      15        0.000010155608     0.000004413280     0.000012667403
      16        0.000026028451    -0.000015318736     0.000003730343
      17       -0.000002203304    -0.000004648381     0.000005277302
      18        0.000005360937     0.000008587936    -0.000008539043

  **** Optimization is complete! (in 5 steps) ****
    Final optimized geometry and variables:
    Molecular point group: c1

    Geometry (in Angstrom), charge = 0, multiplicity = 1:

    H            2.696279145225     0.611027892843     1.016439090129
    C            2.223156941650     0.955326180740     0.104700337243
    N            0.816634781551     0.604877097650     0.103693929289
    H            2.763230203726     0.506242613281    -0.725592538887
    H            2.357601734004     2.030981809439     0.069889229858
    C            0.425882201836    -0.326664950483     1.138817252544
    C            0.316532405393     0.211708272078    -1.193896760533
    H            0.904077783307    -1.303303772124     1.011955479750
    H            0.726815744424     0.063684493953     2.103527231507
    C           -1.080146943784    -0.508987121026     1.125294783483
    H            0.543805962254     0.988296898675    -1.915596926196
    H            0.789701842298    -0.711438903279    -1.543456997051
    C           -1.185379929718     0.008770712219    -1.134458101529
    H           -1.375239045331    -1.278948173387     1.824570587435
    H           -1.560567223510     0.423480469330     1.415374761097
    O           -1.531194832065    -0.904729593847    -0.136042263588
    H           -1.552036096719    -0.389137210081    -2.070477162599
    H           -1.674418620930     0.963310206864    -0.950023737629

  Mulliken Charges: (a.u.)
   Center  Symbol    Alpha    Beta     Spin     Total
       1     H     0.45768  0.45768  0.00000  0.08465
       2     C     3.09092  3.09092  0.00000 -0.18185
       3     N     3.61902  3.61902  0.00000 -0.23803
       4     H     0.46305  0.46305  0.00000  0.07390
       5     H     0.44949  0.44949  0.00000  0.10102
       6     C     3.04013  3.04013  0.00000 -0.08026
       7     C     3.04118  3.04118  0.00000 -0.08237
       8     H     0.46943  0.46943  0.00000  0.06114
       9     H     0.45402  0.45402  0.00000  0.09195
      10     C     2.98426  2.98426  0.00000  0.03148
      11     H     0.45382  0.45382  0.00000  0.09236
      12     H     0.46911  0.46911  0.00000  0.06178
      13     C     2.98417  2.98417  0.00000  0.03165
      14     H     0.45010  0.45010  0.00000  0.09979
      15     H     0.46855  0.46855  0.00000  0.06289
      16     O     4.18642  4.18642  0.00000 -0.37284
      17     H     0.45019  0.45019  0.00000  0.09962
      18     H     0.46844  0.46844  0.00000  0.06311

   Total alpha = 28.00000, Total beta = 28.00000, Total charge = -0.00000
