                              Psi4 1.0.54 Driver

  ==> Input File <==

--------------------------------------------------------------------------
set {
	reference rhf
	basis cc-pvtz
}

set_num_threads( 4 )
memory 2 gb

molecule MOL {
0 1

H	 0.093939	 2.980876	 0.262613
C	 0.700857	 2.065583	 0.289596
C	 0.062554	 0.862911	 -0.350953
O	 1.771821	 2.080331	 0.789567
C	 -1.339253	 0.577611	 0.196911
H	 0.720420	 0.013315	 -0.220983
H	 -0.005781	 1.075124	 -1.415551
C	 -1.813142	 -0.849710	 -0.061612
H	 -2.032833	 1.276441	 -0.256032
H	 -1.357249	 0.782269	 1.263793
H	 -1.839268	 -1.063526	 -1.124230
H	 -2.810118	 -1.001930	 0.334000
H	 -1.159274	 -1.579980	 0.402282

	symmetry c1
}
set optking {
	frozen_dihedral = ("
		6 3 5 9
	")
}

ee,wfn = optimize('scf', return_wfn=True)
oeprop( wfn, 'DIPOLE', 'QUADRUPOLE', 'MULLIKEN_CHARGES')
f=open( 'psi4out.xyz', 'w' )
f.write( "13  " )
f.write( str(ee) + "\n" )
f.write( MOL.save_string_xyz() )
f.close()
--------------------------------------------------------------------------

    Molecular point group: c1
  Charge       = 0
  Multiplicity = 1
  Basis Set: CC-PVTZ
  Basis Set:
  @DF-RHF Final Energy:  -231.06953207934674
    Total Energy =                       -231.0695320793466578
    Molecular point group: c1
  Basis Set: CC-PVTZ
  Basis Set:
  Basis Set: CC-PVTZ
  Basis Set:
  @DF-RHF Final Energy:  -231.06950798230332
    Total Energy =                       -231.0695079823033211
  Basis Set: CC-PVTZ
  Basis Set:
  Basis Set: CC-PVTZ
  Basis Set:
  @DF-RHF Final Energy:  -231.06705359741858
    Total Energy =                       -231.0670535974184929
  Basis Set: CC-PVTZ
  Basis Set:
  Basis Set: CC-PVTZ
  Basis Set:
  @DF-RHF Final Energy:  -231.06978537558325
    Total Energy =                       -231.0697853755830238
  Basis Set: CC-PVTZ
  Basis Set:
  Basis Set: CC-PVTZ
  Basis Set:
  @DF-RHF Final Energy:  -231.06984100751649
    Total Energy =                       -231.0698410075165725
  Basis Set: CC-PVTZ
  Basis Set:
  Basis Set: CC-PVTZ
  Basis Set:
  @DF-RHF Final Energy:  -231.06984730113527
    Total Energy =                       -231.0698473011354963
  Basis Set: CC-PVTZ
  Basis Set:
  Charge       = 0
  Multiplicity = 1
  Basis Set: CC-PVTZ
  Basis Set:

    Orbital Energies (a.u.)
    -----------------------

    Doubly Occupied:

       1A    -20.552148     2A    -11.321895     3A    -11.237518
       4A    -11.234618     5A    -11.221962     6A     -1.407028
       7A     -1.087918     8A     -0.977460     9A     -0.839887
      10A     -0.795623    11A     -0.678650    12A     -0.641471
      13A     -0.640741    14A     -0.587955    15A     -0.556659
      16A     -0.537723    17A     -0.512135    18A     -0.494092
      19A     -0.484456    20A     -0.413156

  @DF-RHF Final Energy:  -231.06984866902448

   => Energetics <=

    Nuclear Repulsion Energy =            170.8076381769888314
    One-Electron Energy =                -651.3087936497475994
    Two-Electron Energy =                 249.4313068037343726
    DFT Exchange-Correlation Energy =       0.0000000000000000
    Empirical Dispersion Energy =           0.0000000000000000
    PCM Polarization Energy =               0.0000000000000000
    EFP Energy =                            0.0000000000000000
    Total Energy =                       -231.0698486690244238
    Molecular point group: c1
  Basis Set: CC-PVTZ
  Basis Set:

  -Total Gradient:
     Atom            X                  Y                   Z
    ------   -----------------  -----------------  -----------------
       1        0.000033998703    -0.000030349532     0.000012738601
       2        0.000054807833     0.000058904087     0.000007312117
       3        0.001097129636     0.001006355148     0.003392346495
       4       -0.000089458138    -0.000000843651    -0.000023419709
       5        0.000416618427     0.002419807895     0.002422056273
       6       -0.000958125948    -0.001228289666    -0.003187445167
       7       -0.000005132764    -0.000008897530     0.000010200888
       8       -0.000016992112    -0.000003941846    -0.000006103085
       9       -0.000539275813    -0.002226546048    -0.002619107070
      10       -0.000002850428    -0.000006250833    -0.000015315368
      11       -0.000004300898     0.000004965860     0.000017238959
      12        0.000013117280    -0.000000469996    -0.000004347946
      13        0.000000464222     0.000015556112    -0.000006154987

  **** Optimization is complete! (in 7 steps) ****
    Final optimized geometry and variables:
    Molecular point group: c1

    Geometry (in Angstrom), charge = 0, multiplicity = 1:

    H            0.190028647613     2.035219702619     0.110965045923
    C            0.811425432118     1.130176918367     0.129229300550
    C            0.190284961619    -0.082700932514    -0.502915306203
    O            1.884795700486     1.159768213286     0.623856200341
    C           -1.219939719033    -0.370650628264     0.029150423450
    H            0.847030416621    -0.932740007143    -0.372526415418
    H            0.132080160501     0.107207748134    -1.573028017932
    C           -1.674421032189    -1.790679990277    -0.295177186024
    H           -1.923690463349     0.324414512196    -0.416749597777
    H           -1.251639332972    -0.219549254547     1.103281949616
    H           -1.661453725650    -1.969446664041    -1.365053964041
    H           -2.683616922913    -1.965014666348     0.058038864920
    H           -1.026350744398    -2.523978248823     0.170971852061

  Mulliken Charges: (a.u.)
   Center  Symbol    Alpha    Beta     Spin     Total
       1     H     0.46497  0.46497  0.00000  0.07006
       2     C     2.90893  2.90893  0.00000  0.18213
       3     C     3.07824  3.07824  0.00000 -0.15648
       4     O     4.16363  4.16363  0.00000 -0.32726
       5     C     3.09468  3.09468  0.00000 -0.18936
       6     H     0.44341  0.44341  0.00000  0.11318
       7     H     0.44947  0.44947  0.00000  0.10106
       8     C     3.14691  3.14691  0.00000 -0.29382
       9     H     0.45072  0.45072  0.00000  0.09857
      10     H     0.44840  0.44840  0.00000  0.10319
      11     H     0.45358  0.45358  0.00000  0.09283
      12     H     0.44612  0.44612  0.00000  0.10776
      13     H     0.45093  0.45093  0.00000  0.09814

   Total alpha = 20.00000, Total beta = 20.00000, Total charge = -0.00000

*** Psi4 exiting successfully. Buy a developer a beer!
