  ==> Input File <==

--------------------------------------------------------------------------
set {
	reference rhf
	basis cc-pvtz
}

set_num_threads( 4 )
memory 2 gb

molecule MOL {
0 1

H	 2.929836	 0.635676	 1.188233
N	 2.064781	 0.138450	 1.182214
C	 1.263552	 0.494993	 0.021953
H	 1.587430	 0.367549	 2.028964
C	 -0.016533	 -0.325589	 -0.026925
H	 1.854197	 0.289208	 -0.864492
H	 1.011019	 1.555753	 -0.009686
C	 -1.280353	 0.525521	 0.047747
H	 -0.016686	 -0.912532	 -0.939714
H	 -0.014099	 -1.037598	 0.796369
C	 -2.560681	 -0.301323	 -0.007747
H	 -1.279957	 1.241025	 -0.770189
H	 -1.270445	 1.110526	 0.963468
H	 -2.617064	 -0.872870	 -0.928010
H	 -3.439525	 0.331102	 0.043462
H	 -2.609427	 -1.002736	 0.818585

	symmetry c1
}
set optking {
	frozen_dihedral = ("
		6 3 5 9
	")
}

ee = optimize('scf')
oeprop('DIPOLE', 'QUADRUPOLE', 'MULLIKEN_CHARGES')
f=open( 'psi4out.xyz', 'w' )
f.write( "16  " )
f.write( str(ee) + "\n" )
f.write( MOL.save_string_xyz() )
f.close()
--------------------------------------------------------------------------

    Molecular point group: c1
  Charge       = 0
  Multiplicity = 1
  Basis Set: CC-PVTZ
  Basis Set:
  @DF-RHF Final Energy:  -212.39381776473374
    Total Energy =                       -212.3938177647337966
    Molecular point group: c1
  Basis Set: CC-PVTZ
  Basis Set:
  Basis Set: CC-PVTZ
  Basis Set:
  @DF-RHF Final Energy:  -212.39417755701422
    Total Energy =                       -212.3941775570140749
  Basis Set: CC-PVTZ
  Basis Set:
  Basis Set: CC-PVTZ
  Basis Set:
  @DF-RHF Final Energy:  -212.39428075023307
    Total Energy =                       -212.3942807502331220
  Basis Set: CC-PVTZ
  Basis Set:
  Charge       = 0
  Multiplicity = 1
  Basis Set: CC-PVTZ
  Basis Set:

    Orbital Energies (a.u.)
    -----------------------

    Doubly Occupied:

       1A    -15.526940     2A    -11.238240     3A    -11.213816
       4A    -11.207818     5A    -11.206133     6A     -1.177281
       7A     -1.059667     8A     -0.958169     9A     -0.847515
      10A     -0.790920    11A     -0.668232    12A     -0.629077
      13A     -0.611789    14A     -0.579398    15A     -0.555669
      16A     -0.528339    17A     -0.509073    18A     -0.472309
      19A     -0.465435    20A     -0.454460    21A     -0.382739

  @DF-RHF Final Energy:  -212.39428159513920

   => Energetics <=

    Nuclear Repulsion Energy =            186.9818668248177005
    One-Electron Energy =                -656.5862583434875432
    Two-Electron Energy =                 257.2101099235305242
    DFT Exchange-Correlation Energy =       0.0000000000000000
    Empirical Dispersion Energy =           0.0000000000000000
    PCM Polarization Energy =               0.0000000000000000
    EFP Energy =                            0.0000000000000000
    Total Energy =                       -212.3942815951393186
    Molecular point group: c1
  Basis Set: CC-PVTZ
  Basis Set:

  -Total Gradient:
     Atom            X                  Y                   Z
    ------   -----------------  -----------------  -----------------
       1        0.000012720739    -0.000010442103     0.000000659097
       2        0.000019594085     0.000004918151    -0.000032674541
       3        0.000319240205    -0.000602262544     0.000498114726
       4       -0.000008384316     0.000002891862    -0.000056700737
       5       -0.000337387258     0.000589652182    -0.000404318217
       6       -0.000232474174     0.000391073485    -0.000220972891
       7       -0.000012260388     0.000007584377    -0.000017262451
       8       -0.000009181884     0.000028357767    -0.000051157649
       9        0.000245755935    -0.000392346811     0.000246081849
      10        0.000003411914    -0.000000601604    -0.000002813818
      11       -0.000000001096    -0.000015593525     0.000047034725
      12        0.000009617519    -0.000009424097    -0.000008300654
      13       -0.000002250618     0.000004198048    -0.000006299358
      14        0.000010403855     0.000016033688     0.000006437824
      15       -0.000005893193     0.000001849666     0.000009239306
      16       -0.000012911326    -0.000015888540    -0.000007067212

  **** Optimization is complete! (in 4 steps) ****
    Final optimized geometry and variables:
    Molecular point group: c1

    Geometry (in Angstrom), charge = 0, multiplicity = 1:

    H            3.012609891449     0.537878782246     0.948092654700
    N            2.158659652581     0.021128024742     0.927259690311
    C            1.362743993720     0.380130228069    -0.239099751024
    H            1.667407508056     0.234903334643     1.770515921158
    C            0.059989323966    -0.436210452023    -0.305283582771
    H            1.966850581257     0.184562147097    -1.116314466855
    H            1.121319243482     1.442570669820    -0.265652958446
    C           -1.207248446246     0.412291436933    -0.229289058107
    H            0.038968053646    -1.024993607014    -1.216596652846
    H            0.064763514169    -1.153040419844     0.508768032815
    C           -2.485069343651    -0.418585455376    -0.261701963248
    H           -1.217304726461     1.120409826640    -1.053406503475
    H           -1.187043096435     1.007719028416     0.680417482855
    H           -2.550883238343    -0.997887468641    -1.176703253788
    H           -3.365684841955     0.211017778172    -0.205037931800
    H           -2.520622718148    -1.114020829281     0.570271819058

  Mulliken Charges: (a.u.)
   Center  Symbol    Alpha    Beta     Spin     Total
       1     H     0.43001  0.43001  0.00000  0.13997
       2     N     3.68687  3.68687  0.00000 -0.37374
       3     C     3.03438  3.03438  0.00000 -0.06876
       4     H     0.43115  0.43115  0.00000  0.13770
       5     C     3.09374  3.09374  0.00000 -0.18747
       6     H     0.45406  0.45406  0.00000  0.09188
       7     H     0.46662  0.46662  0.00000  0.06676
       8     C     3.08348  3.08348  0.00000 -0.16696
       9     H     0.45065  0.45065  0.00000  0.09870
      10     H     0.44851  0.44851  0.00000  0.10298
      11     C     3.15034  3.15034  0.00000 -0.30067
      12     H     0.45498  0.45498  0.00000  0.09003
      13     H     0.45672  0.45672  0.00000  0.08656
      14     H     0.45479  0.45479  0.00000  0.09042
      15     H     0.44894  0.44894  0.00000  0.10212
      16     H     0.45476  0.45476  0.00000  0.09048

   Total alpha = 21.00000, Total beta = 21.00000, Total charge = -0.00000
