  ==> Input File <==

--------------------------------------------------------------------------
set {
	reference rhf
	basis 6-31G*
}

set_num_threads( 1 )
memory 2 gb

molecule MOL {
0 1

H	 2.591676	 2.013956	 0.335017
O	 3.341076	 1.666752	 -0.126416
C	 3.569581	 0.339145	 0.272707
C	 2.539767	 -0.640285	 -0.279495
H	 4.553106	 0.084646	 -0.100901
H	 3.608576	 0.269204	 1.359154
C	 1.242094	 -0.701069	 0.529960
H	 2.316612	 -0.363394	 -1.306578
H	 2.994204	 -1.629213	 -0.309081
C	 0.251116	 -1.731876	 -0.017962
H	 0.778078	 0.281290	 0.535056
H	 1.473361	 -0.944169	 1.567147
C	 -1.031112	 -1.894048	 0.806619
H	 -0.010069	 -1.468599	 -1.041346
H	 0.750169	 -2.697149	 -0.071750
C	 -1.950163	 -0.669416	 0.816535
H	 -1.587041	 -2.741444	 0.410790
H	 -0.769193	 -2.156827	 1.830427
C	 -3.262944	 -0.915346	 1.563235
H	 -2.170727	 -0.377773	 -0.209334
H	 -1.440995	 0.176985	 1.271131
C	 -4.179435	 0.307529	 1.580144
H	 -3.786321	 -1.751815	 1.105104
H	 -3.044342	 -1.216285	 2.585748
H	 -4.443040	 0.613876	 0.571736
H	 -5.101642	 0.101081	 2.114513
H	 -3.698221	 1.151973	 2.065645

	symmetry c1
}
set optking {
	frozen_dihedral = ("
		14 10 7 4,
		14 10 13 16,
		10 7 4 8,
		10 13 16 20,
		20 16 19 22,
		4 3 2 1
	")
}

ee = energy('scf')
oeprop('DIPOLE', 'QUADRUPOLE', 'MULLIKEN_CHARGES')
f=open( 'psi4out.xyz', 'w' )
f.write( "27  " )
f.write( str(ee) + "\n" )
f.write( MOL.save_string_xyz() )
f.close()
--------------------------------------------------------------------------

    Molecular point group: c1

    Geometry (in Angstrom), charge = 0, multiplicity = 1:

       Center              X                  Y                   Z               Mass
    ------------   -----------------  -----------------  -----------------  -----------------
           H          2.495264378191     2.436144767189    -0.234010709711     1.007825032070
           O          3.244664378191     2.088940767189    -0.695443709711    15.994914619560
           C          3.473169378191     0.761333767189    -0.296320709711    12.000000000000
           C          2.443355378191    -0.218096232811    -0.848522709711    12.000000000000
           H          4.456694378191     0.506834767189    -0.669928709711     1.007825032070
           H          3.512164378191     0.691392767189     0.790126290289     1.007825032070
           C          1.145682378191    -0.278880232811    -0.039067709711    12.000000000000
           H          2.220200378191     0.058794767189    -1.875605709711     1.007825032070
           H          2.897792378191    -1.207024232811    -0.878108709711     1.007825032070
           C          0.154704378191    -1.309687232811    -0.586989709711    12.000000000000
           H          0.681666378191     0.703478767189    -0.033971709711     1.007825032070
           H          1.376949378191    -0.521980232811     0.998119290289     1.007825032070
           C         -1.127523621809    -1.471859232811     0.237591290289    12.000000000000
           H         -0.106480621809    -1.046410232811    -1.610373709711     1.007825032070
           H          0.653757378191    -2.274960232811    -0.640777709711     1.007825032070
           C         -2.046574621809    -0.247227232811     0.247507290289    12.000000000000
           H         -1.683452621809    -2.319255232811    -0.158237709711     1.007825032070
           H         -0.865604621809    -1.734638232811     1.261399290289     1.007825032070
           C         -3.359355621809    -0.493157232811     0.994207290289    12.000000000000
           H         -2.267138621809     0.044415767189    -0.778361709711     1.007825032070
           H         -1.537406621809     0.599173767189     0.702103290289     1.007825032070
           C         -4.275846621809     0.729717767189     1.011116290289    12.000000000000
           H         -3.882732621809    -1.329626232811     0.536076290289     1.007825032070
           H         -3.140753621809    -0.794096232811     2.016720290289     1.007825032070
           H         -4.539451621809     1.036064767189     0.002708290289     1.007825032070
           H         -5.198053621809     0.523269767189     1.545485290289     1.007825032070
           H         -3.794632621809     1.574161767189     1.496617290289     1.007825032070

  Charge       = 0
  Multiplicity = 1
  Basis Set: 6-31G*
  Basis Set:

    Orbital Energies (a.u.)
    -----------------------

    Doubly Occupied:

       1A    -20.551804     2A    -11.266515     3A    -11.219986
       4A    -11.217213     5A    -11.216422     6A    -11.215846
       7A    -11.214695     8A    -11.214311     9A    -11.209804
      10A     -1.358564    11A     -1.095569    12A     -1.062053
      13A     -1.011747    14A     -0.947934    15A     -0.887145
      16A     -0.820382    17A     -0.802897    18A     -0.778843
      19A     -0.692277    20A     -0.653274    21A     -0.639754
      22A     -0.612702    23A     -0.600046    24A     -0.582558
      25A     -0.579919    26A     -0.551878    27A     -0.538969
      28A     -0.533673    29A     -0.505502    30A     -0.498202
      31A     -0.484594    32A     -0.474487    33A     -0.466686
      34A     -0.461203    35A     -0.453735    36A     -0.441439
      37A     -0.422118

  @DF-RHF Final Energy:  -388.28023565596527

   => Energetics <=

    Nuclear Repulsion Energy =            458.1390992973191487
    One-Electron Energy =               -1434.2691643832733916
    Two-Electron Energy =                 587.8498294299894269
    DFT Exchange-Correlation Energy =       0.0000000000000000
    Empirical Dispersion Energy =           0.0000000000000000
    PCM Polarization Energy =               0.0000000000000000
    EFP Energy =                            0.0000000000000000
    Total Energy =                       -388.2802356559648160

  Mulliken Charges: (a.u.)
   Center  Symbol    Alpha    Beta     Spin     Total
       1     H     0.28155  0.28155  0.00000  0.43691
       2     O     4.37037  4.37037  0.00000 -0.74075
       3     C     2.99690  2.99690  0.00000  0.00619
       4     C     3.16550  3.16550  0.00000 -0.33100
       5     H     0.41447  0.41447  0.00000  0.17106
       6     H     0.43161  0.43161  0.00000  0.13679
       7     C     3.15947  3.15947  0.00000 -0.31894
       8     H     0.41210  0.41210  0.00000  0.17579
       9     H     0.42341  0.42341  0.00000  0.15319
      10     C     3.15256  3.15256  0.00000 -0.30512
      11     H     0.42664  0.42664  0.00000  0.14673
      12     H     0.42386  0.42386  0.00000  0.15229
      13     C     3.15348  3.15348  0.00000 -0.30696
      14     H     0.42204  0.42204  0.00000  0.15592
      15     H     0.42121  0.42121  0.00000  0.15758
      16     C     3.15246  3.15246  0.00000 -0.30492
      17     H     0.42121  0.42121  0.00000  0.15758
      18     H     0.42409  0.42409  0.00000  0.15182
      19     C     3.15122  3.15122  0.00000 -0.30243
      20     H     0.42391  0.42391  0.00000  0.15217
      21     H     0.42381  0.42381  0.00000  0.15239
      22     C     3.23919  3.23919  0.00000 -0.47838
      23     H     0.42277  0.42277  0.00000  0.15447
      24     H     0.42314  0.42314  0.00000  0.15371
      25     H     0.42155  0.42155  0.00000  0.15689
      26     H     0.41911  0.41911  0.00000  0.16178
      27     H     0.42237  0.42237  0.00000  0.15525

   Total alpha = 37.00000, Total beta = 37.00000, Total charge =  0.00000
