  ==> Input File <==

--------------------------------------------------------------------------
set {
	reference rhf
	basis cc-pvtz
}

set_num_threads( 4 )
memory 2 gb

molecule MOL {
0 1

H	 -2.126027	 -1.185746	 0.255363
O	 -2.346257	 -0.289210	 0.080372
C	 -1.183935	 0.486039	 -0.009831
C	 0.062853	 -0.375310	 0.027457
H	 -1.178881	 1.094526	 -0.908634
H	 -1.184406	 1.155156	 0.838676
O	 1.172093	 0.457955	 -0.054438
H	 0.052476	 -1.081302	 -0.804627
H	 0.076323	 -0.955658	 0.947560
C	 2.395478	 -0.199028	 -0.000366
H	 2.505946	 -0.901710	 -0.823354
H	 3.174616	 0.545641	 -0.071768
H	 2.513730	 -0.742241	 0.934223

	symmetry c1
}
set optking {
	frozen_dihedral = ("
		1 2 3 5
	")
}

ee = optimize('scf')
oeprop('DIPOLE', 'QUADRUPOLE', 'MULLIKEN_CHARGES')
f=open( 'psi4out.xyz', 'w' )
f.write( "13  " )
f.write( str(ee) + "\n" )
f.write( MOL.save_string_xyz() )
f.close()
--------------------------------------------------------------------------

    Molecular point group: c1
  Charge       = 0
  Multiplicity = 1
  Basis Set: CC-PVTZ
  Basis Set:
  @DF-RHF Final Energy:  -268.05821443687773
    Total Energy =                       -268.0582144368778472
    Molecular point group: c1
  Basis Set: CC-PVTZ
  Basis Set:
  Basis Set: CC-PVTZ
  Basis Set:
  @DF-RHF Final Energy:  -268.05884930196953
    Total Energy =                       -268.0588493019695306
  Basis Set: CC-PVTZ
  Basis Set:
  Basis Set: CC-PVTZ
  Basis Set:
  @DF-RHF Final Energy:  -268.05898174679646
    Total Energy =                       -268.0589817467965190
  Basis Set: CC-PVTZ
  Basis Set:
  Basis Set: CC-PVTZ
  Basis Set:
  @DF-RHF Final Energy:  -268.05898327377815
    Total Energy =                       -268.0589832737782672
  Basis Set: CC-PVTZ
  Basis Set:
  Charge       = 0
  Multiplicity = 1
  Basis Set: CC-PVTZ
  Basis Set:

    Orbital Energies (a.u.)
    -----------------------

    Doubly Occupied:

       1A    -20.561405     2A    -20.550509     3A    -11.278231
       4A    -11.271763     5A    -11.267130     6A     -1.397518
       7A     -1.367213     8A     -1.023013     9A     -0.916608
      10A     -0.852339    11A     -0.696432    12A     -0.690222
      13A     -0.672228    14A     -0.626579    15A     -0.611234
      16A     -0.580646    17A     -0.546634    18A     -0.500271
      19A     -0.473037    20A     -0.443623    21A     -0.429993

  @DF-RHF Final Energy:  -268.05898339484457

   => Energetics <=

    Nuclear Repulsion Energy =            190.7039894464675740
    One-Electron Energy =                -744.0126862802119376
    Two-Electron Energy =                 285.2497134388997324
    DFT Exchange-Correlation Energy =       0.0000000000000000
    Empirical Dispersion Energy =           0.0000000000000000
    PCM Polarization Energy =               0.0000000000000000
    EFP Energy =                            0.0000000000000000
    Total Energy =                       -268.0589833948445744
    Molecular point group: c1
  Basis Set: CC-PVTZ
  Basis Set:

  -Total Gradient:
     Atom            X                  Y                   Z
    ------   -----------------  -----------------  -----------------
       1        0.000098095841    -0.000243344208    -0.001157837779
       2       -0.000001064217     0.000104045479     0.001325309606
       3       -0.000573045523     0.000929116681     0.000308510188
       4       -0.000003791667    -0.000012873977    -0.000005122044
       5        0.000481298153    -0.000765151314    -0.000466689725
       6        0.000002181539    -0.000011617960    -0.000005817945
       7        0.000007088257     0.000014844328    -0.000004127477
       8        0.000003610608    -0.000007099190     0.000003161323
       9        0.000002435789     0.000001211957    -0.000003553054
      10       -0.000014673413    -0.000013175961     0.000011702399
      11        0.000001479480     0.000001654297    -0.000003172509
      12       -0.000010378344     0.000004583503    -0.000003278959
      13        0.000006763492    -0.000002193637     0.000000915976

  **** Optimization is complete! (in 5 steps) ****
    Final optimized geometry and variables:
    Molecular point group: c1

    Geometry (in Angstrom), charge = 0, multiplicity = 1:

    H           -2.168446342586    -1.178064022467     0.242761502350
    O           -2.359622761303    -0.281235798731     0.041205096209
    C           -1.187251764751     0.487161123388    -0.018610653645
    C            0.062497031411    -0.368955313211     0.022391034900
    H           -1.193674194114     1.052381160710    -0.941620771308
    H           -1.166314596535     1.188534167113     0.807011416613
    O            1.168645830457     0.465297278083    -0.041284749982
    H            0.057342201470    -1.067766085954    -0.814604257842
    H            0.078194897052    -0.955908781406     0.942660355108
    C            2.393523695806    -0.192446401777    -0.019810287003
    H            2.496283216162    -0.867862925652    -0.865862930142
    H            3.170172337775     0.555790499923    -0.074603686029
    H            2.521095968687    -0.764323254147     0.896387876007

  Mulliken Charges: (a.u.)
   Center  Symbol    Alpha    Beta     Spin     Total
       1     H     0.39372  0.39372  0.00000  0.21256
       2     O     4.20379  4.20379  0.00000 -0.40757
       3     C     2.95031  2.95031  0.00000  0.09938
       4     C     2.97896  2.97896  0.00000  0.04209
       5     H     0.46482  0.46482  0.00000  0.07037
       6     H     0.46819  0.46819  0.00000  0.06361
       7     O     4.17131  4.17131  0.00000 -0.34262
       8     H     0.47246  0.47246  0.00000  0.05507
       9     H     0.47773  0.47773  0.00000  0.04453
      10     C     3.03364  3.03364  0.00000 -0.06727
      11     H     0.47008  0.47008  0.00000  0.05983
      12     H     0.44457  0.44457  0.00000  0.11087
      13     H     0.47042  0.47042  0.00000  0.05916

   Total alpha = 21.00000, Total beta = 21.00000, Total charge =  0.00000
