  ==> Input File <==

--------------------------------------------------------------------------
set {
	reference rhf
	basis 6-31G*
}

set_num_threads( 4 )
memory 2 gb

molecule MOL {
0 1

H	 -3.301617	 0.570527	 0.000000
C	 -2.250981	 0.344174	 0.000000
C	 -1.813665	 -0.976045	 0.000000
C	 -1.315303	 1.358057	 0.000000
H	 -2.528860	 -1.779366	 0.000000
C	 -0.467298	 -1.270142	 0.000000
H	 -1.635074	 2.385107	 0.000000
C	 0.047081	 1.078114	 0.000000
H	 -0.115948	 -2.285222	 0.000000
C	 0.472063	 -0.241155	 0.000000
H	 0.749976	 1.888426	 0.000000
O	 1.765256	 -0.628444	 0.000000
C	 2.087255	 -1.972677	 -0.210772
H	 1.662229	 -2.608435	 0.558967
H	 3.164246	 -2.035774	 -0.166948
H	 1.750406	 -2.314006	 -1.184096

	symmetry c1
}
set optking {
	frozen_dihedral = ("
		13 12 10 8
	")
}

ee = optimize('scf')
oeprop('DIPOLE', 'QUADRUPOLE', 'MULLIKEN_CHARGES')
f=open( 'psi4out.xyz', 'w' )
f.write( "16  " )
f.write( str(ee) + "\n" )
f.write( MOL.save_string_xyz() )
f.close()
--------------------------------------------------------------------------

    Molecular point group: c1
  Charge       = 0
  Multiplicity = 1
  Basis Set: 6-31G*
  Basis Set:
  @DF-RHF Final Energy:  -344.57353061294521
    Total Energy =                       -344.5735306129454329
    Molecular point group: c1
  Basis Set: 6-31G*
  Basis Set:
  Basis Set: 6-31G*
  Basis Set:
  @DF-RHF Final Energy:  -344.57740469883055
    Total Energy =                       -344.5774046988306623
  Basis Set: 6-31G*
  Basis Set:
  Basis Set: 6-31G*
  Basis Set:
  @DF-RHF Final Energy:  -344.58194329197039
    Total Energy =                       -344.5819432919703331
  Basis Set: 6-31G*
  Basis Set:
  Basis Set: 6-31G*
  Basis Set:
  @DF-RHF Final Energy:  -344.58255752889170
    Total Energy =                       -344.5825575288916980
  Basis Set: 6-31G*
  Basis Set:
  Basis Set: 6-31G*
  Basis Set:
  @DF-RHF Final Energy:  -344.58262599397710
    Total Energy =                       -344.5826259939772171
  Basis Set: 6-31G*
  Basis Set:
  Basis Set: 6-31G*
  Basis Set:
  @DF-RHF Final Energy:  -344.58263346997921
    Total Energy =                       -344.5826334699792710
  Basis Set: 6-31G*
  Basis Set:
  Basis Set: 6-31G*
  Basis Set:
  @DF-RHF Final Energy:  -344.58263757487515
    Total Energy =                       -344.5826375748752071
  Basis Set: 6-31G*
  Basis Set:
  Charge       = 0
  Multiplicity = 1
  Basis Set: 6-31G*
  Basis Set:

    Orbital Energies (a.u.)
    -----------------------

    Doubly Occupied:

       1A    -20.584730     2A    -11.293768     3A    -11.279872
       4A    -11.232861     5A    -11.231343     6A    -11.223829
       7A    -11.219387     8A    -11.219233     9A     -1.413817
      10A     -1.145766    11A     -1.021586    12A     -1.012678
      13A     -0.941401    14A     -0.830416    15A     -0.804585
      16A     -0.721418    17A     -0.663888    18A     -0.661621
      19A     -0.655864    20A     -0.616682    21A     -0.586805
      22A     -0.575915    23A     -0.524456    24A     -0.519708
      25A     -0.508519    26A     -0.476039    27A     -0.461131
      28A     -0.334580    29A     -0.305213

  @DF-RHF Final Energy:  -344.58263775876043

   => Energetics <=

    Nuclear Repulsion Energy =            348.1253627272553217
    One-Electron Energy =               -1157.2817806165614911
    Two-Electron Energy =                 464.5737801305457992
    DFT Exchange-Correlation Energy =       0.0000000000000000
    Empirical Dispersion Energy =           0.0000000000000000
    PCM Polarization Energy =               0.0000000000000000
    EFP Energy =                            0.0000000000000000
    Total Energy =                       -344.5826377587603133
    Molecular point group: c1
  Basis Set: 6-31G*
  Basis Set:

  -Total Gradient:
     Atom            X                  Y                   Z
    ------   -----------------  -----------------  -----------------
       1        0.000000101360     0.000000634149     0.000003858328
       2        0.000003020236     0.000016988329     0.000011183206
       3        0.000006973230    -0.000009663756    -0.000020709988
       4       -0.000023875357    -0.000004874815    -0.000014186005
       5       -0.000003966358     0.000003981930     0.000002671206
       6       -0.000009948187    -0.000012929702     0.000010915788
       7       -0.000003741448     0.000000481101    -0.000000433913
       8        0.000035972228    -0.000016197889    -0.000747286024
       9        0.000002952026     0.000007541848    -0.000001724295
      10       -0.000011924843     0.000089168978     0.000708948814
      11       -0.000001987095    -0.000002580872    -0.000000646247
      12       -0.000051060531    -0.000192354794     0.000829081251
      13        0.000057147660     0.000127781523    -0.000783268693
      14       -0.000000344173     0.000012386967    -0.000005069527
      15        0.000002365682    -0.000013230092     0.000003317487
      16       -0.000001684434    -0.000007132908     0.000003348613

  **** Optimization is complete! (in 8 steps) ****
    Final optimized geometry and variables:
    Molecular point group: c1

    Geometry (in Angstrom), charge = 0, multiplicity = 1:

    H           -3.193631829026     1.011264986449     0.025954473771
    C           -2.156721723201     0.728513352738     0.027344327214
    C           -1.792870266747    -0.602380000080     0.020681351996
    C           -1.160984216546     1.699402406221     0.034434221571
    H           -2.549462335422    -1.366986135020     0.014790741231
    C           -0.454496633407    -0.980592247558     0.022305222602
    H           -1.426593485482     2.741690030489     0.037149230531
    C            0.169762800838     1.340739273951     0.033852370358
    H           -0.202358406780    -2.023314661639     0.019512457965
    C            0.529799816597    -0.005036713991     0.031199705894
    H            0.949065370397     2.079991756643     0.036687002053
    O            1.855982231549    -0.258577622574     0.038444712379
    C            2.313100458584    -1.563118387936    -0.174442817162
    H            2.031713812034    -2.222369179862     0.640114941540
    H            3.390213869659    -1.502492846753    -0.220824899280
    H            1.936373925954    -1.966765767933    -1.108452996475

  Mulliken Charges: (a.u.)
   Center  Symbol    Alpha    Beta     Spin     Total
       1     H     0.40123  0.40123  0.00000  0.19755
       2     C     3.11191  3.11191  0.00000 -0.22381
       3     C     3.09114  3.09114  0.00000 -0.18227
       4     C     3.09197  3.09197  0.00000 -0.18395
       5     H     0.39965  0.39965  0.00000  0.20070
       6     C     3.14421  3.14421  0.00000 -0.28843
       7     H     0.39878  0.39878  0.00000  0.20243
       8     C     3.12533  3.12533  0.00000 -0.25066
       9     H     0.39742  0.39742  0.00000  0.20516
      10     C     2.78275  2.78275  0.00000  0.43450
      11     H     0.39295  0.39295  0.00000  0.21410
      12     O     4.32624  4.32624  0.00000 -0.65247
      13     C     3.09214  3.09214  0.00000 -0.18428
      14     H     0.42022  0.42022  0.00000  0.15956
      15     H     0.40481  0.40481  0.00000  0.19038
      16     H     0.41926  0.41926  0.00000  0.16149

   Total alpha = 29.00000, Total beta = 29.00000, Total charge = -0.00000
