  ==> Input File <==

--------------------------------------------------------------------------
set {
	reference rhf
	basis 6-31G*
}

set_num_threads( 1 )
memory 2 gb

molecule MOL {
0 1

H	 -1.303844	 1.004383	 0.773293
C	 -0.790252	 0.431209	 0.000000
N	 0.538815	 0.649616	 0.000000
O	 -1.378747	 -0.297340	 -0.743034
C	 1.521968	 -0.411503	 0.000000
H	 0.852804	 1.592852	 0.000000
H	 2.150599	 -0.357004	 -0.881901
H	 0.999455	 -1.354525	 0.000000
H	 2.150599	 -0.357004	 0.881901

	symmetry c1
}
set optking {
	frozen_dihedral = ("
		6 3 5 7
	")
}

ee = energy('scf')
oeprop('DIPOLE', 'QUADRUPOLE', 'MULLIKEN_CHARGES')
f=open( 'psi4out.xyz', 'w' )
f.write( "9  " )
f.write( str(ee) + "\n" )
f.write( MOL.save_string_xyz() )
f.close()
--------------------------------------------------------------------------

    Molecular point group: c1

    Geometry (in Angstrom), charge = 0, multiplicity = 1:

       Center              X                  Y                   Z               Mass
    ------------   -----------------  -----------------  -----------------  -----------------
           H         -1.289620390545     0.917827208359     0.961402150922     1.007825032070
           C         -0.776028390545     0.344653208359     0.188109150922    12.000000000000
           N          0.553038609455     0.563060208359     0.188109150922    14.003074004780
           O         -1.364523390545    -0.383895791641    -0.554924849078    15.994914619560
           C          1.536191609455    -0.498058791641     0.188109150922    12.000000000000
           H          0.867027609455     1.506296208359     0.188109150922     1.007825032070
           H          2.164822609455    -0.443559791641    -0.693791849078     1.007825032070
           H          1.013678609455    -1.441080791641     0.188109150922     1.007825032070
           H          2.164822609455    -0.443559791641     1.070010150922     1.007825032070

  Charge       = 0
  Multiplicity = 1
  Basis Set: 6-31G*
  Basis Set:

    Orbital Energies (a.u.)
    -----------------------

    Doubly Occupied:

       1A    -20.543513     2A    -15.570605     3A    -11.346484
       4A    -11.262965     5A     -1.396777     6A     -1.230907
       7A     -0.963974     8A     -0.811612     9A     -0.736513
      10A     -0.644836    11A     -0.640697    12A     -0.596071
      13A     -0.559073    14A     -0.519475    15A     -0.432047
      16A     -0.382843

  @DF-RHF Final Energy:  -207.93642401411876

   => Energetics <=

    Nuclear Repulsion Energy =            121.8622784333640681
    One-Electron Energy =                -524.3206373519731187
    Two-Electron Energy =                 194.5219349044903367
    DFT Exchange-Correlation Energy =       0.0000000000000000
    Empirical Dispersion Energy =           0.0000000000000000
    PCM Polarization Energy =               0.0000000000000000
    EFP Energy =                            0.0000000000000000
    Total Energy =                       -207.9364240141187281

  Mulliken Charges: (a.u.)
   Center  Symbol    Alpha    Beta     Spin     Total
       1     H     0.42962  0.42962  0.00000  0.14077
       2     C     2.75651  2.75651  0.00000  0.48699
       3     N     3.88509  3.88509  0.00000 -0.77018
       4     O     4.25435  4.25435  0.00000 -0.50870
       5     C     3.13608  3.13608  0.00000 -0.27215
       6     H     0.30930  0.30930  0.00000  0.38140
       7     H     0.41377  0.41377  0.00000  0.17246
       8     H     0.39909  0.39909  0.00000  0.20182
       9     H     0.41620  0.41620  0.00000  0.16759

   Total alpha = 16.00000, Total beta = 16.00000, Total charge =  0.00000
