  ==> Input File <==

--------------------------------------------------------------------------
set {
	reference rhf
	basis 6-31G*
}

set_num_threads( 1 )
memory 2 gb

molecule MOL {
0 1

H	 2.465338	 -2.224223	 0.000000
O	 2.784187	 -1.332015	 0.000000
C	 1.765313	 -0.449364	 0.000000
C	 1.902644	 0.684532	 -0.794584
C	 0.619228	 -0.636162	 0.748151
H	 2.802929	 0.806809	 -1.366768
C	 0.894245	 1.624956	 -0.836980
H	 0.486833	 -1.500255	 1.368911
C	 -0.373602	 0.328070	 0.682102
H	 1.008594	 2.497397	 -1.453119
C	 -0.267244	 1.460092	 -0.094276
N	 -1.583962	 0.125580	 1.475519
H	 -1.058142	 2.180770	 -0.116806
O	 -1.651611	 -0.864094	 2.140351
O	 -2.433591	 0.960140	 1.413033

	symmetry c1
}
set optking {
	frozen_dihedral = ("
		11 9 12 14
	")
}

ee = energy('scf')
oeprop('DIPOLE', 'QUADRUPOLE', 'MULLIKEN_CHARGES')
f=open( 'psi4out.xyz', 'w' )
f.write( "15  " )
f.write( str(ee) + "\n" )
f.write( MOL.save_string_xyz() )
f.close()
--------------------------------------------------------------------------

    Molecular point group: c1

    Geometry (in Angstrom), charge = 0, multiplicity = 1:

       Center              X                  Y                   Z               Mass
    ------------   -----------------  -----------------  -----------------  -----------------
           H          2.341281145971    -2.367425813256    -0.520552203224     1.007825032070
           O          2.660130145971    -1.475217813256    -0.520552203224    15.994914619560
           C          1.641256145971    -0.592566813256    -0.520552203224    12.000000000000
           C          1.778587145971     0.541329186744    -1.315136203224    12.000000000000
           C          0.495171145971    -0.779364813256     0.227598796776    12.000000000000
           H          2.678872145971     0.663606186744    -1.887320203224     1.007825032070
           C          0.770188145971     1.481753186744    -1.357532203224    12.000000000000
           H          0.362776145971    -1.643457813256     0.848358796776     1.007825032070
           C         -0.497658854029     0.184867186744     0.161549796776    12.000000000000
           H          0.884537145971     2.354194186744    -1.973671203224     1.007825032070
           C         -0.391300854029     1.316889186744    -0.614828203224    12.000000000000
           N         -1.708018854029    -0.017622813256     0.954966796776    14.003074004780
           H         -1.182198854029     2.037567186744    -0.637358203224     1.007825032070
           O         -1.775667854029    -1.007296813256     1.619798796776    15.994914619560
           O         -2.557647854029     0.816937186744     0.892480796776    15.994914619560

  Charge       = 0
  Multiplicity = 1
  Basis Set: 6-31G*
  Basis Set:

    Orbital Energies (a.u.)
    -----------------------

    Doubly Occupied:

       1A    -20.609925     2A    -20.604738     3A    -20.604104
       4A    -15.859111     5A    -11.326534     6A    -11.310221
       7A    -11.267318     8A    -11.266428     9A    -11.265228
      10A    -11.261319    11A     -1.637911    12A     -1.432362
      13A     -1.421179    14A     -1.200309    15A     -1.094439
      16A     -1.045991    17A     -0.965072    18A     -0.875737
      19A     -0.829013    20A     -0.791569    21A     -0.747966
      22A     -0.736865    23A     -0.723799    24A     -0.707927
      25A     -0.674905    26A     -0.637768    27A     -0.626791
      28A     -0.575893    29A     -0.557208    30A     -0.539637
      31A     -0.514040    32A     -0.491156    33A     -0.488846
      34A     -0.454635    35A     -0.376849    36A     -0.348052

  @DF-RHF Final Energy:  -509.02565371530062

   => Energetics <=

    Nuclear Repulsion Energy =            503.3990546691232453
    One-Electron Energy =               -1693.1082183189678290
    Two-Electron Energy =                 680.6835099345431672
    DFT Exchange-Correlation Energy =       0.0000000000000000
    Empirical Dispersion Energy =           0.0000000000000000
    PCM Polarization Energy =               0.0000000000000000
    EFP Energy =                            0.0000000000000000
    Total Energy =                       -509.0256537153014733

  Mulliken Charges: (a.u.)
   Center  Symbol    Alpha    Beta     Spin     Total
       1     H     0.26764  0.26764  0.00000  0.46471
       2     O     4.37857  4.37857  0.00000 -0.75715
       3     C     2.80215  2.80215  0.00000  0.39570
       4     C     3.10555  3.10555  0.00000 -0.21109
       5     C     3.12782  3.12782  0.00000 -0.25564
       6     H     0.38122  0.38122  0.00000  0.23756
       7     C     3.10283  3.10283  0.00000 -0.20565
       8     H     0.36490  0.36490  0.00000  0.27021
       9     C     2.91525  2.91525  0.00000  0.16951
      10     H     0.38694  0.38694  0.00000  0.22612
      11     C     3.09498  3.09498  0.00000 -0.18997
      12     N     3.24022  3.24022  0.00000  0.51955
      13     H     0.36472  0.36472  0.00000  0.27057
      14     O     4.23498  4.23498  0.00000 -0.46997
      15     O     4.23223  4.23223  0.00000 -0.46447

   Total alpha = 36.00000, Total beta = 36.00000, Total charge = -0.00000
