                              Psi4 1.0.54 Driver

  ==> Input File <==

--------------------------------------------------------------------------
set {
	reference rhf
	basis cc-pvtz
}

set_num_threads( 4 )
memory 2 gb

molecule MOL {
0 1

O	 3.219313	 0.959291	 -0.614106
C	 2.698710	 0.058177	 -0.050237
C	 1.246364	 -0.005813	 0.348416
O	 3.344101	 -1.038700	 0.312317
C	 0.453207	 1.232821	 -0.049003
H	 0.839270	 -0.907818	 -0.092281
H	 1.216683	 -0.160521	 1.422434
C	 -0.998367	 1.217982	 0.432195
H	 0.481498	 1.345443	 -1.127236
H	 0.951413	 2.105557	 0.354893
C	 -1.882951	 0.151251	 -0.211235
H	 -1.429490	 2.193659	 0.228843
H	 -1.019755	 1.099323	 1.513279
C	 -3.342450	 0.243269	 0.226009
H	 -1.826223	 0.246578	 -1.293162
H	 -1.508033	 -0.839650	 0.027695
C	 -4.234517	 -0.821434	 -0.405970
H	 -3.730149	 1.228245	 -0.022691
H	 -3.398860	 0.159952	 1.308941
C	 -4.499039	 -0.579569	 -1.888302
H	 -3.774345	 -1.797342	 -0.277260
H	 -5.180974	 -0.859164	 0.126620
H	 -5.134725	 -1.352176	 -2.305393
H	 -3.573686	 -0.571491	 -2.454663
H	 -4.990496	 0.374528	 -2.047599
C	 4.720529	 -1.114346	 0.001449
H	 4.874321	 -1.055557	 -1.065852
H	 5.057824	 -2.067950	 0.373977
H	 5.264321	 -0.313596	 0.480350

	symmetry c1
}
set optking {
	frozen_dihedral = ("
		21 17 14 11
	")
}

ee,wfn = optimize('scf', return_wfn=True)
oeprop( wfn, 'DIPOLE', 'QUADRUPOLE', 'MULLIKEN_CHARGES')
f=open( 'psi4out.xyz', 'w' )
f.write( "29  " )
f.write( str(ee) + "\n" )
f.write( MOL.save_string_xyz() )
f.close()
--------------------------------------------------------------------------

    Molecular point group: c1
  Charge       = 0
  Multiplicity = 1
  Basis Set: CC-PVTZ
  Basis Set:
  @DF-RHF Final Energy:  -501.22281754431128
    Total Energy =                       -501.2228175443110558
    Molecular point group: c1
  Basis Set: CC-PVTZ
  Basis Set:
  Basis Set: CC-PVTZ
  Basis Set:
  @DF-RHF Final Energy:  -501.22301372670063
    Total Energy =                       -501.2230137267002874
  Basis Set: CC-PVTZ
  Basis Set:
  Basis Set: CC-PVTZ
  Basis Set:
  @DF-RHF Final Energy:  -501.22309612213928
    Total Energy =                       -501.2230961221391681
  Basis Set: CC-PVTZ
  Basis Set:
  Basis Set: CC-PVTZ
  Basis Set:
  @DF-RHF Final Energy:  -501.22281263769196
    Total Energy =                       -501.2228126376919590
  Basis Set: CC-PVTZ
  Basis Set:
  Basis Set: CC-PVTZ
  Basis Set:
  @DF-RHF Final Energy:  -501.22310664908571
    Total Energy =                       -501.2231066490861622
  Basis Set: CC-PVTZ
  Basis Set:
  Charge       = 0
  Multiplicity = 1
  Basis Set: CC-PVTZ
  Basis Set:

    Orbital Energies (a.u.)
    -----------------------

    Doubly Occupied:

       1A    -20.596033     2A    -20.533884     3A    -11.364287
       4A    -11.278278     5A    -11.232965     6A    -11.217031
       7A    -11.215489     8A    -11.214244     9A    -11.213434
      10A    -11.212492    11A    -11.206708    12A     -1.471899
      13A     -1.365519    14A     -1.099273    15A     -1.067446
      16A     -1.019341    17A     -0.976878    18A     -0.928924
      19A     -0.869422    20A     -0.802993    21A     -0.782030
      22A     -0.765830    23A     -0.702716    24A     -0.685526
      25A     -0.676050    26A     -0.644874    27A     -0.627570
      28A     -0.610913    29A     -0.602415    30A     -0.584186
      31A     -0.560519    32A     -0.555901    33A     -0.538008
      34A     -0.526597    35A     -0.517689    36A     -0.507101
      37A     -0.502859    38A     -0.477298    39A     -0.473352
      40A     -0.460497    41A     -0.460324    42A     -0.453646
      43A     -0.444148    44A     -0.437650

  @DF-RHF Final Energy:  -501.22310692145368

   => Energetics <=

    Nuclear Repulsion Energy =            616.1371605169237000
    One-Electron Energy =               -1903.7520501103508650
    Two-Electron Energy =                 786.3917826719732602
    DFT Exchange-Correlation Energy =       0.0000000000000000
    Empirical Dispersion Energy =           0.0000000000000000
    PCM Polarization Energy =               0.0000000000000000
    EFP Energy =                            0.0000000000000000
    Total Energy =                       -501.2231069214537911
    Molecular point group: c1
  Basis Set: CC-PVTZ
  Basis Set:

  -Total Gradient:
     Atom            X                  Y                   Z
    ------   -----------------  -----------------  -----------------
       1       -0.000041925407     0.000053742899    -0.000044947071
       2        0.000031748268     0.000035877250     0.000074602000
       3        0.000035787089    -0.000020504911    -0.000015340077
       4       -0.000021686415    -0.000077316831     0.000014354131
       5       -0.000004051951    -0.000016640354    -0.000033801792
       6        0.000026684959     0.000020368765     0.000002182027
       7        0.000011752517    -0.000004919169     0.000004143826
       8        0.000008789911    -0.000035643140     0.000034755856
       9       -0.000004135251    -0.000010198918    -0.000005310504
      10       -0.000003487747     0.000012614204    -0.000005452089
      11        0.000132479375    -0.000488507296     0.000624840403
      12        0.000016172844     0.000004733241     0.000007152406
      13        0.000005315393    -0.000005536500     0.000012415879
      14       -0.000112675098     0.000742176130    -0.001153798073
      15       -0.000002179251    -0.000006351050    -0.000019294312
      16       -0.000039983972     0.000015741767     0.000002853306
      17       -0.000563928291    -0.000357693617     0.001476459617
      18        0.000001699843    -0.000009755310    -0.000012547630
      19       -0.000001151803     0.000009405095     0.000013118144
      20       -0.000000926513     0.000002011257     0.000009165209
      21        0.000539888877     0.000113388905    -0.000994946003
      22        0.000005778960     0.000004920951     0.000003668284
      23        0.000008100564     0.000008014916     0.000002507652
      24       -0.000019089500     0.000000558142     0.000011368643
      25        0.000002837594    -0.000002441442    -0.000003907891
      26       -0.000003093835     0.000025321099    -0.000013820265
      27        0.000003946975    -0.000004633696     0.000004637928
      28       -0.000014666407    -0.000003201656     0.000004720068
      29        0.000001998271    -0.000005530730     0.000000220329

  **** Optimization is complete! (in 6 steps) ****
    Final optimized geometry and variables:
    Molecular point group: c1

    Geometry (in Angstrom), charge = 0, multiplicity = 1:

    O            3.113167141170     0.972325373540    -0.418201243017
    C            2.595581982125     0.060314708151     0.130762254941
    C            1.142220482138    -0.017359958319     0.523158486420
    O            3.245468457462    -1.038595426258     0.478989838781
    C            0.344072972223     1.223343327037     0.142444371673
    H            0.741394122835    -0.914362879586     0.066751007677
    H            1.109492980120    -0.189270481420     1.594461152664
    C           -1.108750004372     1.194117331144     0.619173397171
    H            0.375083731764     1.352888542150    -0.933817339692
    H            0.836794794771     2.092151371132     0.561328671180
    C           -1.988321687447     0.137176995006    -0.047687737111
    H           -1.542554672737     2.172146301740     0.433491304738
    H           -1.132721791864     1.054608110251     1.697710158558
    C           -3.447415178084     0.218701376744     0.398672288237
    H           -1.921183096114     0.254598287935    -1.125350018329
    H           -1.613403762820    -0.857234962833     0.176602695590
    C           -4.359620703235    -0.850610849752    -0.206537299565
    H           -3.844279314634     1.203690926513     0.165057143433
    H           -3.479411792932     0.129410271950     1.481249913592
    C           -4.676759444040    -0.643331933176    -1.686049429109
    H           -3.902235266994    -1.827670727114    -0.075204560084
    H           -5.291552851884    -0.870301039413     0.349317360466
    H           -5.352081366811    -1.410610091381    -2.047172601438
    H           -3.785013784102    -0.679985310561    -2.300456345670
    H           -5.152054344599     0.318230771108    -1.850546198236
    C            4.623251075799    -1.102574316123     0.171510802798
    H            4.780177170494    -1.027052659766    -0.894277786064
    H            4.964205714459    -2.059947288685     0.530833672240
    H            5.161446497920    -0.306378600302     0.664131385386

  Mulliken Charges: (a.u.)
   Center  Symbol    Alpha    Beta     Spin     Total
       1     O     4.19696  4.19696  0.00000 -0.39393
       2     C     2.80482  2.80482  0.00000  0.39037
       3     C     3.10166  3.10166  0.00000 -0.20331
       4     O     4.14722  4.14722  0.00000 -0.29443
       5     C     3.09247  3.09247  0.00000 -0.18494
       6     H     0.43915  0.43915  0.00000  0.12170
       7     H     0.43989  0.43989  0.00000  0.12022
       8     C     3.10287  3.10287  0.00000 -0.20575
       9     H     0.44632  0.44632  0.00000  0.10737
      10     H     0.43959  0.43959  0.00000  0.12083
      11     C     3.09546  3.09546  0.00000 -0.19092
      12     H     0.44520  0.44520  0.00000  0.10960
      13     H     0.45326  0.45326  0.00000  0.09348
      14     C     3.09475  3.09475  0.00000 -0.18950
      15     H     0.45132  0.45132  0.00000  0.09735
      16     H     0.45395  0.45395  0.00000  0.09211
      17     C     3.08983  3.08983  0.00000 -0.17965
      18     H     0.45301  0.45301  0.00000  0.09399
      19     H     0.44951  0.44951  0.00000  0.10097
      20     C     3.15062  3.15062  0.00000 -0.30123
      21     H     0.45593  0.45593  0.00000  0.08813
      22     H     0.44793  0.44793  0.00000  0.10414
      23     H     0.44696  0.44696  0.00000  0.10609
      24     H     0.45443  0.45443  0.00000  0.09114
      25     H     0.45492  0.45492  0.00000  0.09016
      26     C     3.03813  3.03813  0.00000 -0.07627
      27     H     0.45435  0.45435  0.00000  0.09130
      28     H     0.44527  0.44527  0.00000  0.10945
      29     H     0.45423  0.45423  0.00000  0.09155

   Total alpha = 44.00000, Total beta = 44.00000, Total charge = -0.00000

*** Psi4 exiting successfully. Buy a developer a beer!
