  ==> Input File <==

--------------------------------------------------------------------------
set {
	reference rhf
	basis 6-31G*
}

set_num_threads( 4 )
memory 2 gb

molecule MOL {
0 1

H	 -0.821032	 -1.655889	 0.000000
O	 -1.037828	 -0.728600	 0.000000
C	 0.100509	 -0.036935	 0.000000
C	 0.023743	 1.166001	 -0.896078
O	 1.042496	 -0.363310	 0.644486
H	 -0.197474	 0.851998	 -1.909577
H	 0.962529	 1.698047	 -0.868563
H	 -0.781616	 1.813375	 -0.568938

	symmetry c1
}
set optking {
	frozen_dihedral = ("
		4 3 2 1
	")
}

ee = optimize('scf')
oeprop('DIPOLE', 'QUADRUPOLE', 'MULLIKEN_CHARGES')
f=open( 'psi4out.xyz', 'w' )
f.write( "8  " )
f.write( str(ee) + "\n" )
f.write( MOL.save_string_xyz() )
f.close()
--------------------------------------------------------------------------

    Molecular point group: c1
  Charge       = 0
  Multiplicity = 1
  Basis Set: 6-31G*
  Basis Set:
  @DF-RHF Final Energy:  -227.80116055766547
    Total Energy =                       -227.8011605576654119
    Molecular point group: c1
  Basis Set: 6-31G*
  Basis Set:
  Basis Set: 6-31G*
  Basis Set:
  @DF-RHF Final Energy:  -227.79836784604959
    Total Energy =                       -227.7983678460495014
  Basis Set: 6-31G*
  Basis Set:
  Basis Set: 6-31G*
  Basis Set:
  @DF-RHF Final Energy:  -227.80184056731895
    Total Energy =                       -227.8018405673188624
  Basis Set: 6-31G*
  Basis Set:
  Basis Set: 6-31G*
  Basis Set:
  @DF-RHF Final Energy:  -227.80198016731111
    Total Energy =                       -227.8019801673111715
  Basis Set: 6-31G*
  Basis Set:
  @DF-RHF Final Energy:  -227.80206319766683
    Total Energy =                       -227.8020631976667687
  @DF-RHF Final Energy:  -227.80208554137056
    Total Energy =                       -227.8020855413705021
  Basis Set: 6-31G*
  Basis Set:
  @DF-RHF Final Energy:  -227.80208719605974
    Total Energy =                       -227.8020871960597731
  Basis Set: 6-31G*
  Basis Set:
  Basis Set: 6-31G*
  Basis Set:
  @DF-RHF Final Energy:  -227.80208557966566
    Total Energy =                       -227.8020855796657429
  Basis Set: 6-31G*
  Basis Set:
  Basis Set: 6-31G*
  Basis Set:
  @DF-RHF Final Energy:  -227.80208693821595
    Total Energy =                       -227.8020869382159503
  Basis Set: 6-31G*
  Basis Set:
  Charge       = 0
  Multiplicity = 1
  Basis Set: 6-31G*
  Basis Set:

    Orbital Energies (a.u.)
    -----------------------

    Doubly Occupied:

       1A    -20.608459     2A    -20.556612     3A    -11.386507
       4A    -11.240915     5A     -1.471349     6A     -1.368782
       7A     -1.025384     8A     -0.829802     9A     -0.703396
      10A     -0.679856    11A     -0.655848    12A     -0.581667
      13A     -0.579065    14A     -0.543234    15A     -0.483862
      16A     -0.449167

  @DF-RHF Final Energy:  -227.80208707280886

   => Energetics <=

    Nuclear Repulsion Energy =            122.1989047125227614
    One-Electron Energy =                -553.6741758923507177
    Two-Electron Energy =                 203.6731841070192104
    DFT Exchange-Correlation Energy =       0.0000000000000000
    Empirical Dispersion Energy =           0.0000000000000000
    PCM Polarization Energy =               0.0000000000000000
    EFP Energy =                            0.0000000000000000
    Total Energy =                       -227.8020870728087175
    Molecular point group: c1
  Basis Set: 6-31G*
  Basis Set:

  -Total Gradient:
     Atom            X                  Y                   Z
    ------   -----------------  -----------------  -----------------
       1       -0.000852758902     0.000078813799    -0.012061344924
       2        0.001855344823    -0.001942347483     0.012274721372
       3       -0.003416433248     0.005966190773     0.005816613979
       4        0.002012487365    -0.004205280860    -0.006119409904
       5        0.000277503529     0.000083237890     0.000101535532
       6        0.000064509641    -0.000034584253     0.000016999788
       7        0.000016579207     0.000014437431    -0.000065813433
       8        0.000042767583     0.000039532707     0.000036697588

  **** Optimization is complete! (in 10 steps) ****
    Final optimized geometry and variables:
    Molecular point group: c1

    Geometry (in Angstrom), charge = 0, multiplicity = 1:

    H           -0.912836308431    -1.602193088704     0.133653383932
    O           -1.080341058008    -0.666429865912     0.152157888542
    C            0.086685735495    -0.005981179525     0.079330663796
    C           -0.003167370772     1.207783005626    -0.801674862008
    O            1.080850814597    -0.415610670808     0.576470924428
    H           -0.092385581605     0.863573165151    -1.826611861654
    H            0.887900182704     1.808566035572    -0.696872157156
    H           -0.885207360354     1.793173968048    -0.573208761081

  Mulliken Charges: (a.u.)
   Center  Symbol    Alpha    Beta     Spin     Total
       1     H     0.26583  0.26583  0.00000  0.46834
       2     O     4.35232  4.35232  0.00000 -0.70463
       3     C     2.64043  2.64043  0.00000  0.71913
       4     C     3.28298  3.28298  0.00000 -0.56595
       5     O     4.26462  4.26462  0.00000 -0.52925
       6     H     0.39907  0.39907  0.00000  0.20185
       7     H     0.39603  0.39603  0.00000  0.20793
       8     H     0.39871  0.39871  0.00000  0.20257

   Total alpha = 16.00000, Total beta = 16.00000, Total charge =  0.00000
