                              Psi4 1.0.54 Driver

  ==> Input File <==

--------------------------------------------------------------------------
set {
	reference rhf
	basis cc-pvtz
}

set_num_threads( 4 )
memory 2 gb

molecule MOL {
0 1

H	 2.412772	 0.001043	 0.418079
O	 1.543830	 0.134732	 0.747795
C	 0.700177	 0.619554	 -0.266242
C	 -0.713111	 0.588314	 0.266177
H	 0.767920	 -0.004790	 -1.151979
H	 0.965243	 1.638041	 -0.537906
O	 -1.421673	 -0.521378	 -0.196983
H	 -1.244794	 1.469161	 -0.069059
H	 -0.685100	 0.604721	 1.352683
H	 -0.933408	 -1.297830	 0.014544

	symmetry c1
}
set optking {
	frozen_dihedral = ("
		5 3 4 7
	")
}

ee,wfn = optimize('scf', return_wfn=True)
oeprop( wfn, 'DIPOLE', 'QUADRUPOLE', 'MULLIKEN_CHARGES')
f=open( 'psi4out.xyz', 'w' )
f.write( "10  " )
f.write( str(ee) + "\n" )
f.write( MOL.save_string_xyz() )
f.close()
--------------------------------------------------------------------------

    Molecular point group: c1
  Charge       = 0
  Multiplicity = 1
  Basis Set: CC-PVTZ
  Basis Set:
  @DF-RHF Final Energy:  -229.02190231428895
    Total Energy =                       -229.0219023142890080
    Molecular point group: c1
  Basis Set: CC-PVTZ
  Basis Set:
  Basis Set: CC-PVTZ
  Basis Set:
  @DF-RHF Final Energy:  -229.02284209301482
    Total Energy =                       -229.0228420930146171
  Basis Set: CC-PVTZ
  Basis Set:
  Basis Set: CC-PVTZ
  Basis Set:
  @DF-RHF Final Energy:  -229.02310675442124
    Total Energy =                       -229.0231067544212920
  Basis Set: CC-PVTZ
  Basis Set:
  Basis Set: CC-PVTZ
  Basis Set:
  @DF-RHF Final Energy:  -229.02313287090280
    Total Energy =                       -229.0231328709027423
  Basis Set: CC-PVTZ
  Basis Set:
  Basis Set: CC-PVTZ
  Basis Set:
  @DF-RHF Final Energy:  -229.02313425742094
    Total Energy =                       -229.0231342574208497
  Basis Set: CC-PVTZ
  Basis Set:
  Charge       = 0
  Multiplicity = 1
  Basis Set: CC-PVTZ
  Basis Set:

    Orbital Energies (a.u.)
    -----------------------

    Doubly Occupied:

       1A    -20.553949     2A    -20.548131     3A    -11.270842
       4A    -11.267272     5A     -1.377035     6A     -1.359681
       7A     -0.999864     8A     -0.845870     9A     -0.727892
      10A     -0.676142    11A     -0.651814    12A     -0.608747
      13A     -0.575468    14A     -0.526819    15A     -0.493622
      16A     -0.454723    17A     -0.436593

  @DF-RHF Final Energy:  -229.02313435858773

   => Energetics <=

    Nuclear Repulsion Energy =            132.3354067581642255
    One-Electron Energy =                -575.9681544947466136
    Two-Electron Energy =                 214.6096133779947479
    DFT Exchange-Correlation Energy =       0.0000000000000000
    Empirical Dispersion Energy =           0.0000000000000000
    PCM Polarization Energy =               0.0000000000000000
    EFP Energy =                            0.0000000000000000
    Total Energy =                       -229.0231343585876118
    Molecular point group: c1
  Basis Set: CC-PVTZ
  Basis Set:

  -Total Gradient:
     Atom            X                  Y                   Z
    ------   -----------------  -----------------  -----------------
       1       -0.000001122249     0.000002662887    -0.000000486800
       2        0.000009212106    -0.000002624836     0.000016692154
       3       -0.002288588502     0.006734929328    -0.005603520548
       4        0.002344113128    -0.004507657806     0.005887414643
       5        0.001431236802    -0.004745145683     0.003441182497
       6       -0.000003430401    -0.000003171209     0.000000803737
       7       -0.001504798808     0.002520473676    -0.003781207804
       8        0.000015395694     0.000025546674     0.000042530320
       9       -0.000004837261    -0.000008200107    -0.000002603366
      10        0.000002819490    -0.000016812924    -0.000000804832

  **** Optimization is complete! (in 6 steps) ****
    Final optimized geometry and variables:
    Molecular point group: c1

    Geometry (in Angstrom), charge = 0, multiplicity = 1:

    H            2.393920314900    -0.124493303417     0.250311776109
    O            1.516702653685    -0.062506281884     0.580746100568
    C            0.659898470973     0.461036440103    -0.408584663435
    C           -0.764574533190     0.418634631667     0.125438035374
    H            0.713581716552    -0.164597809985    -1.292865214972
    H            0.946340033751     1.477422730794    -0.658795162774
    O           -1.491860373400    -0.689508103722    -0.327381471761
    H           -1.309762168018     1.283242798774    -0.228331105474
    H           -0.732912453234     0.462899924986     1.208227174451
    H           -1.159072519571    -1.473553067757     0.071750404001

  Mulliken Charges: (a.u.)
   Center  Symbol    Alpha    Beta     Spin     Total
       1     H     0.39282  0.39282  0.00000  0.21435
       2     O     4.20372  4.20372  0.00000 -0.40743
       3     C     2.97760  2.97760  0.00000  0.04480
       4     C     2.96662  2.96662  0.00000  0.06677
       5     H     0.46844  0.46844  0.00000  0.06313
       6     H     0.47206  0.47206  0.00000  0.05588
       7     O     4.20449  4.20449  0.00000 -0.40897
       8     H     0.45967  0.45967  0.00000  0.08065
       9     H     0.46448  0.46448  0.00000  0.07104
      10     H     0.39011  0.39011  0.00000  0.21979

   Total alpha = 17.00000, Total beta = 17.00000, Total charge = -0.00000

*** Psi4 exiting successfully. Buy a developer a beer!
