  ==> Input File <==

--------------------------------------------------------------------------
set {
	reference rhf
	basis 6-31G*
}

set_num_threads( 1 )
memory 2 gb

molecule MOL {
0 1

H	 -2.397401	 -2.885389	 -1.782305
O	 -2.416862	 -2.073513	 -1.296113
C	 -1.108529	 -1.700407	 -0.947332
C	 -1.177863	 -0.397191	 -0.171080
H	 -0.639328	 -2.472387	 -0.338889
H	 -0.496420	 -1.571116	 -1.838930
C	 0.198102	 0.111031	 0.262842
H	 -1.811680	 -0.550330	 0.698145
H	 -1.673100	 0.344473	 -0.791686
C	 1.331804	 -0.827780	 -0.158768
H	 0.361943	 1.100838	 -0.156218
H	 0.217265	 0.229072	 1.345532
C	 2.723619	 -0.410569	 0.329459
H	 1.342964	 -0.912588	 -1.244120
H	 1.116806	 -1.824343	 0.220779
C	 3.243875	 0.895854	 -0.272975
H	 3.424222	 -1.207124	 0.091250
H	 2.714788	 -0.329854	 1.414619
H	 3.251977	 0.848779	 -1.358681
H	 2.637085	 1.747371	 0.016682
H	 4.259473	 1.094070	 0.055697

	symmetry c1
}
set optking {
	frozen_dihedral = ("
		2 3 4 8,
		4 7 10 14,
		16 13 10 14,
		1 2 3 5
	")
}

ee = energy('scf')
oeprop('DIPOLE', 'QUADRUPOLE', 'MULLIKEN_CHARGES')
f=open( 'psi4out.xyz', 'w' )
f.write( "21  " )
f.write( str(ee) + "\n" )
f.write( MOL.save_string_xyz() )
f.close()
--------------------------------------------------------------------------

    Molecular point group: c1

    Geometry (in Angstrom), charge = 0, multiplicity = 1:

       Center              X                  Y                   Z               Mass
    ------------   -----------------  -----------------  -----------------  -----------------
           H         -2.752718505274    -2.223783008639    -1.430485978727     1.007825032070
           O         -2.772179505274    -1.411907008639    -0.944293978727    15.994914619560
           C         -1.463846505274    -1.038801008639    -0.595512978727    12.000000000000
           C         -1.533180505274     0.264414991361     0.180739021273    12.000000000000
           H         -0.994645505274    -1.810781008639     0.012930021273     1.007825032070
           H         -0.851737505274    -0.909510008639    -1.487110978727     1.007825032070
           C         -0.157215505274     0.772636991361     0.614661021273    12.000000000000
           H         -2.166997505274     0.111275991361     1.049964021273     1.007825032070
           H         -2.028417505274     1.006078991361    -0.439866978727     1.007825032070
           C          0.976486494726    -0.166174008639     0.193051021273    12.000000000000
           H          0.006625494726     1.762443991361     0.195601021273     1.007825032070
           H         -0.138052505274     0.890677991361     1.697351021273     1.007825032070
           C          2.368301494726     0.251036991361     0.681278021273    12.000000000000
           H          0.987646494726    -0.250982008639    -0.892300978727     1.007825032070
           H          0.761488494726    -1.162737008639     0.572598021273     1.007825032070
           C          2.888557494726     1.557459991361     0.078844021273    12.000000000000
           H          3.068904494726    -0.545518008639     0.443069021273     1.007825032070
           H          2.359470494726     0.331751991361     1.766438021273     1.007825032070
           H          2.896659494726     1.510384991361    -1.006861978727     1.007825032070
           H          2.281767494726     2.408976991361     0.368501021273     1.007825032070
           H          3.904155494726     1.755675991361     0.407516021273     1.007825032070

  Charge       = 0
  Multiplicity = 1
  Basis Set: 6-31G*
  Basis Set:

    Orbital Energies (a.u.)
    -----------------------

    Doubly Occupied:

       1A    -20.549682     2A    -11.264557     3A    -11.216214
       4A    -11.215071     5A    -11.214054     6A    -11.209047
       7A    -11.208896     8A     -1.356783     9A     -1.090978
      10A     -1.031978    11A     -0.946405    12A     -0.890242
      13A     -0.818493    14A     -0.758425    15A     -0.696028
      16A     -0.665352    17A     -0.617974    18A     -0.606483
      19A     -0.588822    20A     -0.568536    21A     -0.542860
      22A     -0.525826    23A     -0.512772    24A     -0.490658
      25A     -0.481086    26A     -0.463440    27A     -0.451083
      28A     -0.440803    29A     -0.421847

  @DF-RHF Final Energy:  -310.19725144818494

   => Energetics <=

    Nuclear Repulsion Energy =            320.4696858452437027
    One-Electron Energy =               -1055.6455209072578327
    Two-Electron Energy =                 424.9785836138293575
    DFT Exchange-Correlation Energy =       0.0000000000000000
    Empirical Dispersion Energy =           0.0000000000000000
    PCM Polarization Energy =               0.0000000000000000
    EFP Energy =                            0.0000000000000000
    Total Energy =                       -310.1972514481847725

  Mulliken Charges: (a.u.)
   Center  Symbol    Alpha    Beta     Spin     Total
       1     H     0.28174  0.28174  0.00000  0.43651
       2     O     4.37532  4.37532  0.00000 -0.75064
       3     C     2.99200  2.99200  0.00000  0.01600
       4     C     3.16290  3.16290  0.00000 -0.32580
       5     H     0.43082  0.43082  0.00000  0.13835
       6     H     0.43085  0.43085  0.00000  0.13830
       7     C     3.16059  3.16059  0.00000 -0.32119
       8     H     0.41233  0.41233  0.00000  0.17535
       9     H     0.41221  0.41221  0.00000  0.17558
      10     C     3.16622  3.16622  0.00000 -0.33245
      11     H     0.41690  0.41690  0.00000  0.16620
      12     H     0.41951  0.41951  0.00000  0.16098
      13     C     3.14838  3.14838  0.00000 -0.29676
      14     H     0.42222  0.42222  0.00000  0.15556
      15     H     0.42039  0.42039  0.00000  0.15922
      16     C     3.24144  3.24144  0.00000 -0.48289
      17     H     0.42173  0.42173  0.00000  0.15655
      18     H     0.42319  0.42319  0.00000  0.15361
      19     H     0.42264  0.42264  0.00000  0.15471
      20     H     0.41952  0.41952  0.00000  0.16096
      21     H     0.41907  0.41907  0.00000  0.16186

   Total alpha = 29.00000, Total beta = 29.00000, Total charge =  0.00000
