  ==> Input File <==

--------------------------------------------------------------------------
set {
	reference rhf
	basis 6-31G*
}

set_num_threads( 4 )
memory 2 gb

molecule MOL {
0 1

H	 5.268524	 0.192471	 1.070992
C	 4.673736	 -0.214914	 0.259335
C	 3.185378	 -0.203514	 0.605509
H	 4.871837	 0.380453	 -0.627026
H	 5.025590	 -1.224632	 0.065769
C	 2.317601	 -0.778379	 -0.516234
H	 2.874655	 0.814325	 0.817774
H	 3.023650	 -0.778480	 1.515976
C	 1.063230	 -1.496272	 -0.017786
H	 2.023292	 0.016692	 -1.192169
H	 2.908001	 -1.484540	 -1.095721
C	 -0.003622	 -0.572228	 0.550731
H	 0.598152	 -2.037297	 -0.840443
H	 1.315990	 -2.250436	 0.724189
C	 -1.087459	 -1.197049	 1.411898
O	 -0.005705	 0.599120	 0.317611
C	 -1.955185	 -2.221870	 0.666272
H	 -1.702207	 -0.386665	 1.784828
H	 -0.615615	 -1.678520	 2.266436
C	 -3.095847	 -2.757883	 1.533561
H	 -2.369694	 -1.758577	 -0.226565
H	 -1.343375	 -3.054717	 0.329338
C	 -3.966682	 -3.778761	 0.802561
H	 -3.713505	 -1.927521	 1.866817
H	 -2.681835	 -3.211664	 2.431376
H	 -4.420808	 -3.343951	 -0.083123
H	 -3.383002	 -4.638774	 0.486639
H	 -4.766762	 -4.139050	 1.441264

	symmetry c1
}
set optking {
	frozen_dihedral = ("
		10 6 3 2
	")
}

ee = optimize('scf')
oeprop('DIPOLE', 'QUADRUPOLE', 'MULLIKEN_CHARGES')
f=open( 'psi4out.xyz', 'w' )
f.write( "28  " )
f.write( str(ee) + "\n" )
f.write( MOL.save_string_xyz() )
f.close()
--------------------------------------------------------------------------

    Molecular point group: c1
  Charge       = 0
  Multiplicity = 1
  Basis Set: 6-31G*
  Basis Set:
  @DF-RHF Final Energy:  -426.16610828662431
    Total Energy =                       -426.1661082866241941
    Molecular point group: c1
  Basis Set: 6-31G*
  Basis Set:
  Basis Set: 6-31G*
  Basis Set:
  @DF-RHF Final Energy:  -426.16638605197306
    Total Energy =                       -426.1663860519732907
  Basis Set: 6-31G*
  Basis Set:
  Basis Set: 6-31G*
  Basis Set:
  @DF-RHF Final Energy:  -426.16636462008967
    Total Energy =                       -426.1663646200890980
  Basis Set: 6-31G*
  Basis Set:
  Basis Set: 6-31G*
  Basis Set:
  @DF-RHF Final Energy:  -426.16648893063632
    Total Energy =                       -426.1664889306355235
  Basis Set: 6-31G*
  Basis Set:
  @DF-RHF Final Energy:  -426.16648980460639
    Total Energy =                       -426.1664898046064991
  @DF-RHF Final Energy:  -426.16649697532284
    Total Energy =                       -426.1664969753232981
  @DF-RHF Final Energy:  -426.16649961171481
    Total Energy =                       -426.1664996117150395
  @DF-RHF Final Energy:  -426.16650085924823
    Total Energy =                       -426.1665008592478898
  Basis Set: 6-31G*
  Basis Set:
  @DF-RHF Final Energy:  -426.16650272302400
    Total Energy =                       -426.1665027230242231
  Basis Set: 6-31G*
  Basis Set:
  Basis Set: 6-31G*
  Basis Set:
  @DF-RHF Final Energy:  -426.16649233483633
    Total Energy =                       -426.1664923348359935
  Basis Set: 6-31G*
  Basis Set:
  Basis Set: 6-31G*
  Basis Set:
  @DF-RHF Final Energy:  -426.16650371564765
    Total Energy =                       -426.1665037156478775
  Basis Set: 6-31G*
  Basis Set:
  Charge       = 0
  Multiplicity = 1
  Basis Set: 6-31G*
  Basis Set:

    Orbital Energies (a.u.)
    -----------------------

    Doubly Occupied:

       1A    -20.548187     2A    -11.321912     3A    -11.232369
       4A    -11.229631     5A    -11.228734     6A    -11.226073
       7A    -11.216444     8A    -11.216322     9A    -11.211622
      10A    -11.206739    11A     -1.393155    12A     -1.094989
      13A     -1.076271    14A     -1.022267    15A     -0.990765
      16A     -0.907311    17A     -0.872862    18A     -0.809241
      19A     -0.800272    20A     -0.722244    21A     -0.667459
      22A     -0.652767    23A     -0.632522    24A     -0.619937
      25A     -0.604473    26A     -0.583625    27A     -0.581736
      28A     -0.576096    29A     -0.542272    30A     -0.534710
      31A     -0.518198    32A     -0.504956    33A     -0.501051
      34A     -0.485089    35A     -0.480270    36A     -0.476106
      37A     -0.471267    38A     -0.461844    39A     -0.454711
      40A     -0.392148

  @DF-RHF Final Energy:  -426.16650401050481

   => Energetics <=

    Nuclear Repulsion Energy =            531.2201188039465478
    One-Electron Energy =               -1630.6359540437483702
    Two-Electron Energy =                 673.2493312292964447
    DFT Exchange-Correlation Energy =       0.0000000000000000
    Empirical Dispersion Energy =           0.0000000000000000
    PCM Polarization Energy =               0.0000000000000000
    EFP Energy =                            0.0000000000000000
    Total Energy =                       -426.1665040105052640
    Molecular point group: c1
  Basis Set: 6-31G*
  Basis Set:

  -Total Gradient:
     Atom            X                  Y                   Z
    ------   -----------------  -----------------  -----------------
       1        0.000000120963    -0.000002010131     0.000007131724
       2        0.000324847896    -0.002636292156     0.001254325900
       3       -0.001272161696     0.003787604184    -0.001224239604
       4       -0.000010591512     0.000003666549     0.000013616950
       5        0.000000673291    -0.000002529716    -0.000015991217
       6        0.004283273636    -0.001789738103    -0.002275200823
       7        0.000019995162     0.000003792620     0.000010353956
       8        0.000004243824     0.000028106007     0.000007977914
       9        0.000028160640    -0.000008605056     0.000007086151
      10       -0.003376328427     0.000626950329     0.002201353716
      11        0.000001868333    -0.000013151764     0.000013588328
      12       -0.000008632454    -0.000000949304    -0.000006189096
      13        0.000004695509     0.000000682542    -0.000000612802
      14       -0.000014418267    -0.000006010192     0.000008526350
      15        0.000007052960     0.000004969308    -0.000000067562
      16        0.000005610628     0.000001610610     0.000000830442
      17       -0.000000345247     0.000005602986    -0.000001827482
      18        0.000000228623    -0.000000300718     0.000000683854
      19        0.000002063154     0.000001355829     0.000001507851
      20        0.000001529341     0.000000923539    -0.000001862390
      21       -0.000002994167    -0.000003844709    -0.000003193434
      22        0.000002630893     0.000000438188     0.000001520384
      23       -0.000002231578    -0.000000626329     0.000001192965
      24        0.000001544529    -0.000000401304     0.000000563234
      25       -0.000000108531    -0.000000870251    -0.000000820399
      26        0.000000402017     0.000000001320     0.000000010103
      27       -0.000000139242     0.000000644623     0.000000360948
      28       -0.000000990282    -0.000001018903    -0.000000625963

  **** Optimization is complete! (in 12 steps) ****
    Final optimized geometry and variables:
    Molecular point group: c1

    Geometry (in Angstrom), charge = 0, multiplicity = 1:

    H            5.103270106893     1.601305208393     0.493906448179
    C            4.539561016997     1.121782423273    -0.300445975918
    C            3.046626395992     1.082725957058     0.026014536186
    H            4.729180806906     1.673075290619    -1.217587962869
    H            4.935871023857     0.118798776230    -0.431096178122
    C            2.206867985794     0.443397883250    -1.092816367556
    H            2.679829154480     2.081507498842     0.230769882725
    H            2.916150801206     0.515257459256     0.946369099467
    C            0.951360148287    -0.269332630335    -0.586629157515
    H            1.889737786186     1.209296442721    -1.791317499582
    H            2.806590609928    -0.278348176447    -1.640363992720
    C           -0.093760331800     0.662060296254     0.008569266441
    H            0.469521469041    -0.795365497041    -1.409575007087
    H            1.205937449481    -1.033946488842     0.143839520986
    C           -1.183655763578     0.041718291326     0.865167022523
    O           -0.073502741964     1.837928838118    -0.200336334343
    C           -2.076872415543    -0.950512970533     0.105713253986
    H           -1.779406892225     0.856469948013     1.258807425086
    H           -0.715632630560    -0.466077286850     1.706458781980
    C           -3.222629350095    -1.480120909709     0.970189567482
    H           -2.487584898560    -0.461709997778    -0.775188209385
    H           -1.484307837011    -1.788861019401    -0.251351544864
    C           -4.118988702182    -2.468413637237     0.225387731216
    H           -3.820901103550    -0.644057633022     1.323910508609
    H           -2.812169114244    -1.959880839866     1.856064298529
    H           -4.569798597988    -2.007066186194    -0.648483119518
    H           -3.555165742400    -3.333776356088    -0.111293890320
    H           -4.922168697419    -2.824805887826     0.862420748401

  Mulliken Charges: (a.u.)
   Center  Symbol    Alpha    Beta     Spin     Total
       1     H     0.41959  0.41959  0.00000  0.16081
       2     C     3.24048  3.24048  0.00000 -0.48097
       3     C     3.15735  3.15735  0.00000 -0.31470
       4     H     0.42070  0.42070  0.00000  0.15860
       5     H     0.42380  0.42380  0.00000  0.15240
       6     C     3.14964  3.14964  0.00000 -0.29927
       7     H     0.40535  0.40535  0.00000  0.18931
       8     H     0.42814  0.42814  0.00000  0.14371
       9     C     3.21298  3.21298  0.00000 -0.42596
      10     H     0.40640  0.40640  0.00000  0.18719
      11     H     0.42045  0.42045  0.00000  0.15909
      12     C     2.73113  2.73113  0.00000  0.53773
      13     H     0.40386  0.40386  0.00000  0.19228
      14     H     0.41326  0.41326  0.00000  0.17347
      15     C     3.20140  3.20140  0.00000 -0.40280
      16     O     4.26676  4.26676  0.00000 -0.53351
      17     C     3.16385  3.16385  0.00000 -0.32770
      18     H     0.39981  0.39981  0.00000  0.20039
      19     H     0.41293  0.41293  0.00000  0.17414
      20     C     3.15180  3.15180  0.00000 -0.30360
      21     H     0.41383  0.41383  0.00000  0.17234
      22     H     0.41863  0.41863  0.00000  0.16274
      23     C     3.24032  3.24032  0.00000 -0.48065
      24     H     0.41838  0.41838  0.00000  0.16323
      25     H     0.42144  0.42144  0.00000  0.15712
      26     H     0.41962  0.41962  0.00000  0.16077
      27     H     0.42120  0.42120  0.00000  0.15759
      28     H     0.41688  0.41688  0.00000  0.16623

   Total alpha = 40.00000, Total beta = 40.00000, Total charge =  0.00000
