  ==> Input File <==

--------------------------------------------------------------------------
set {
	reference rhf
	basis cc-pvtz
}

set_num_threads( 4 )
memory 2 gb

molecule MOL {
0 1

H	 2.867672	 -0.456275	 0.875795
C	 2.403497	 -0.020426	 0.000000
N	 0.989899	 -0.304564	 0.000000
H	 2.867672	 -0.456275	 -0.875795
H	 2.620366	 1.051270	 0.000000
C	 0.579246	 -1.069697	 -1.159096
C	 0.184933	 0.892029	 0.133268
H	 0.778970	 -0.526427	 -2.087920
H	 1.142105	 -1.995312	 -1.193045
C	 -0.902047	 -1.384659	 -1.076557
H	 0.458471	 1.405796	 1.047570
H	 0.354998	 1.582850	 -0.698350
C	 -1.286229	 0.526662	 0.182602
H	 -1.236449	 -1.875219	 -1.979969
H	 -1.086129	 -2.049155	 -0.234739
O	 -1.658937	 -0.218832	 -0.938323
H	 -1.898332	 1.417678	 0.189357
H	 -1.490192	 -0.038929	 1.089578

	symmetry c1
}
set optking {
	frozen_dihedral = ("
		6 3 2 5
	")
}

ee = optimize('scf')
oeprop('DIPOLE', 'QUADRUPOLE', 'MULLIKEN_CHARGES')
f=open( 'psi4out.xyz', 'w' )
f.write( "18  " )
f.write( str(ee) + "\n" )
f.write( MOL.save_string_xyz() )
f.close()
--------------------------------------------------------------------------

    Molecular point group: c1
  Charge       = 0
  Multiplicity = 1
  Basis Set: CC-PVTZ
  Basis Set:
  @DF-RHF Final Energy:  -325.13913372634880
    Total Energy =                       -325.1391337263487458
    Molecular point group: c1
  Basis Set: CC-PVTZ
  Basis Set:
  Basis Set: CC-PVTZ
  Basis Set:
  @DF-RHF Final Energy:  -325.13971482314906
    Total Energy =                       -325.1397148231487790
  Basis Set: CC-PVTZ
  Basis Set:
  Basis Set: CC-PVTZ
  Basis Set:
  @DF-RHF Final Energy:  -325.13983363744097
    Total Energy =                       -325.1398336374406881
  Basis Set: CC-PVTZ
  Basis Set:
  Basis Set: CC-PVTZ
  Basis Set:
  @DF-RHF Final Energy:  -325.13983810768150
    Total Energy =                       -325.1398381076811575
  Basis Set: CC-PVTZ
  Basis Set:
  Charge       = 0
  Multiplicity = 1
  Basis Set: CC-PVTZ
  Basis Set:

    Orbital Energies (a.u.)
    -----------------------

    Doubly Occupied:

       1A    -20.546925     2A    -15.540620     3A    -11.263484
       4A    -11.263451     5A    -11.242404     6A    -11.242370
       7A    -11.238878     8A     -1.385796     9A     -1.228926
      10A     -1.038745    11A     -0.980933    12A     -0.883541
      13A     -0.870446    14A     -0.773496    15A     -0.684308
      16A     -0.645601    17A     -0.644250    18A     -0.631917
      19A     -0.627619    20A     -0.572243    21A     -0.558336
      22A     -0.547488    23A     -0.527239    24A     -0.499851
      25A     -0.485075    26A     -0.453340    27A     -0.409801
      28A     -0.348099

  @DF-RHF Final Energy:  -325.13983868885140

   => Energetics <=

    Nuclear Repulsion Energy =            341.3446180653378974
    One-Electron Energy =               -1118.6985535095266187
    Two-Electron Energy =                 452.2140967553372093
    DFT Exchange-Correlation Energy =       0.0000000000000000
    Empirical Dispersion Energy =           0.0000000000000000
    PCM Polarization Energy =               0.0000000000000000
    EFP Energy =                            0.0000000000000000
    Total Energy =                       -325.1398386888514551
    Molecular point group: c1
  Basis Set: CC-PVTZ
  Basis Set:

  -Total Gradient:
     Atom            X                  Y                   Z
    ------   -----------------  -----------------  -----------------
       1       -0.000016708131    -0.000003609476    -0.000021039346
       2        0.000158332506    -0.000291874917    -0.001216623720
       3       -0.000196779378     0.001009377566    -0.000310774024
       4       -0.000008726224    -0.000005263310    -0.000003199440
       5       -0.000054320808     0.000020589601     0.001111453853
       6        0.000123538486    -0.000719177376     0.000468335244
       7        0.000022790329     0.000004825702    -0.000009717773
       8       -0.000002699441    -0.000001909785     0.000005863713
       9       -0.000007627790     0.000002377779    -0.000003190299
      10       -0.000016671772    -0.000009332613    -0.000020014251
      11       -0.000007231935    -0.000001131318    -0.000002762792
      12        0.000007577416    -0.000002441446    -0.000000377692
      13       -0.000013464602    -0.000020003446     0.000014363211
      14       -0.000019615685     0.000000165288    -0.000002646687
      15        0.000014529839     0.000002129436    -0.000003237864
      16        0.000020110505     0.000013326455    -0.000008427472
      17       -0.000007679744    -0.000005395560    -0.000009352063
      18        0.000004646425     0.000007347419     0.000011347402

  **** Optimization is complete! (in 5 steps) ****
    Final optimized geometry and variables:
    Molecular point group: c1

    Geometry (in Angstrom), charge = 0, multiplicity = 1:

    H            2.814988159920    -0.221017419850     1.338403472643
    C            2.377691013494     0.188970934468     0.434238221408
    N            0.948499767601    -0.065427163625     0.381842943996
    H            2.888219828912    -0.256527629680    -0.411783341195
    H            2.595236496692     1.252547023717     0.419378408515
    C            0.527883823322    -0.844422661850    -0.762805562991
    C            0.136735692855     1.121335613108     0.540937636307
    H            0.711385274409    -0.315274254733    -1.703264580418
    H            1.090187535255    -1.770289174007    -0.792159962813
    C           -0.950737554702    -1.165584668126    -0.655934115199
    H            0.415708706646     1.625998251343     1.458748329887
    H            0.287129910720     1.826203002973    -0.282791769118
    C           -1.330426680891     0.742604539478     0.608548763575
    H           -1.296941403197    -1.661086281894    -1.552365584037
    H           -1.117516646993    -1.828182657236     0.191130298264
    O           -1.711509487224    -0.003487286111    -0.508989737327
    H           -1.950249257851     1.628306620836     0.625984223452
    H           -1.516877557736     0.172888522823     1.516849936689

  Mulliken Charges: (a.u.)
   Center  Symbol    Alpha    Beta     Spin     Total
       1     H     0.44955  0.44955  0.00000  0.10090
       2     C     3.08973  3.08973  0.00000 -0.17946
       3     N     3.61946  3.61946  0.00000 -0.23892
       4     H     0.45911  0.45911  0.00000  0.08178
       5     H     0.46115  0.46115  0.00000  0.07769
       6     C     3.04152  3.04152  0.00000 -0.08304
       7     C     3.04177  3.04177  0.00000 -0.08354
       8     H     0.46893  0.46893  0.00000  0.06214
       9     H     0.45366  0.45366  0.00000  0.09267
      10     C     2.98446  2.98446  0.00000  0.03107
      11     H     0.45360  0.45360  0.00000  0.09280
      12     H     0.46886  0.46886  0.00000  0.06229
      13     C     2.98448  2.98448  0.00000  0.03105
      14     H     0.45013  0.45013  0.00000  0.09973
      15     H     0.46853  0.46853  0.00000  0.06293
      16     O     4.18638  4.18638  0.00000 -0.37277
      17     H     0.45016  0.45016  0.00000  0.09967
      18     H     0.46850  0.46850  0.00000  0.06300

   Total alpha = 28.00000, Total beta = 28.00000, Total charge =  0.00000
