  ==> Input File <==

--------------------------------------------------------------------------
set {
	reference rhf
	basis 6-31G*
}

set_num_threads( 1 )
memory 2 gb

molecule MOL {
0 1

H	 1.914825	 -2.484613	 -1.706158
O	 1.732351	 -2.096118	 -0.856140
C	 0.962692	 -1.025003	 -1.047853
C	 0.624473	 -0.343591	 0.253101
O	 0.610526	 -0.686200	 -2.130538
C	 -0.265902	 0.883932	 0.072916
H	 0.165294	 -1.090697	 0.892132
H	 1.564153	 -0.080208	 0.732041
C	 -1.728698	 0.646073	 0.462102
H	 -0.209144	 1.219470	 -0.958188
H	 0.135059	 1.692851	 0.673903
C	 -2.482460	 -0.343073	 -0.431425
H	 -2.245265	 1.602650	 0.432430
H	 -1.779332	 0.308348	 1.496285
C	 -3.960546	 -0.461025	 -0.060175
H	 -2.395034	 -0.026811	 -1.468912
H	 -2.024850	 -1.327147	 -0.371646
H	 -4.472726	 -1.168004	 -0.705284
H	 -4.465146	 0.496508	 -0.151489
H	 -4.081218	 -0.800940	 0.964585

	symmetry c1
}
set optking {
	frozen_dihedral = ("
		16 12 9 6,
		12 9 6 10,
		5 3 4 7,
		1 2 3 5
	")
}

ee = energy('scf')
oeprop('DIPOLE', 'QUADRUPOLE', 'MULLIKEN_CHARGES')
f=open( 'psi4out.xyz', 'w' )
f.write( "20  " )
f.write( str(ee) + "\n" )
f.write( MOL.save_string_xyz() )
f.close()
--------------------------------------------------------------------------

    Molecular point group: c1

    Geometry (in Angstrom), charge = 0, multiplicity = 1:

       Center              X                  Y                   Z               Mass
    ------------   -----------------  -----------------  -----------------  -----------------
           H          2.455508650739    -2.020407080941    -1.215483713419     1.007825032070
           O          2.273034650739    -1.631912080941    -0.365465713419    15.994914619560
           C          1.503375650739    -0.560797080941    -0.557178713419    12.000000000000
           C          1.165156650739     0.120614919059     0.743775286581    12.000000000000
           O          1.151209650739    -0.221994080941    -1.639863713419    15.994914619560
           C          0.274781650739     1.348137919059     0.563590286581    12.000000000000
           H          0.705977650739    -0.626491080941     1.382806286581     1.007825032070
           H          2.104836650739     0.383997919059     1.222715286581     1.007825032070
           C         -1.188014349261     1.110278919059     0.952776286581    12.000000000000
           H          0.331539650739     1.683675919059    -0.467513713419     1.007825032070
           H          0.675742650739     2.157056919059     1.164577286581     1.007825032070
           C         -1.941776349261     0.121132919059     0.059249286581    12.000000000000
           H         -1.704581349261     2.066855919059     0.923104286581     1.007825032070
           H         -1.238648349261     0.772553919059     1.986959286581     1.007825032070
           C         -3.419862349261     0.003180919059     0.430499286581    12.000000000000
           H         -1.854350349261     0.437394919059    -0.978237713419     1.007825032070
           H         -1.484166349261    -0.862941080941     0.119028286581     1.007825032070
           H         -3.932042349261    -0.703798080941    -0.214609713419     1.007825032070
           H         -3.924462349261     0.960713919059     0.339185286581     1.007825032070
           H         -3.540534349261    -0.336734080941     1.455259286581     1.007825032070

  Charge       = 0
  Multiplicity = 1
  Basis Set: 6-31G*
  Basis Set:

    Orbital Energies (a.u.)
    -----------------------

    Doubly Occupied:

       1A    -20.613405     2A    -20.552745     3A    -11.381700
       4A    -11.239403     5A    -11.219638     6A    -11.216881
       7A    -11.213755     8A    -11.207846     9A     -1.475527
      10A     -1.366879    11A     -1.093863    12A     -1.037360
      13A     -0.958271    14A     -0.868974    15A     -0.812102
      16A     -0.774018    17A     -0.701362    18A     -0.693787
      19A     -0.661740    20A     -0.630634    21A     -0.602264
      22A     -0.591443    23A     -0.573625    24A     -0.552833
      25A     -0.533824    26A     -0.511494    27A     -0.495367
      28A     -0.480719    29A     -0.464274    30A     -0.462618
      31A     -0.452698    32A     -0.445053

  @DF-RHF Final Energy:  -383.94533024086047

   => Energetics <=

    Nuclear Repulsion Energy =            387.2170155206343907
    One-Electron Energy =               -1290.5524657885389388
    Two-Electron Energy =                 519.3901200270447589
    DFT Exchange-Correlation Energy =       0.0000000000000000
    Empirical Dispersion Energy =           0.0000000000000000
    PCM Polarization Energy =               0.0000000000000000
    EFP Energy =                            0.0000000000000000
    Total Energy =                       -383.9453302408597892

  Mulliken Charges: (a.u.)
   Center  Symbol    Alpha    Beta     Spin     Total
       1     H     0.26777  0.26777  0.00000  0.46446
       2     O     4.35047  4.35047  0.00000 -0.70093
       3     C     2.62607  2.62607  0.00000  0.74786
       4     C     3.21336  3.21336  0.00000 -0.42672
       5     O     4.27932  4.27932  0.00000 -0.55863
       6     C     3.16346  3.16346  0.00000 -0.32691
       7     H     0.39605  0.39605  0.00000  0.20791
       8     H     0.39497  0.39497  0.00000  0.21005
       9     C     3.15507  3.15507  0.00000 -0.31014
      10     H     0.39598  0.39598  0.00000  0.20805
      11     H     0.41698  0.41698  0.00000  0.16605
      12     C     3.15366  3.15366  0.00000 -0.30732
      13     H     0.42031  0.42031  0.00000  0.15938
      14     H     0.42520  0.42520  0.00000  0.14960
      15     C     3.23958  3.23958  0.00000 -0.47915
      16     H     0.41280  0.41280  0.00000  0.17441
      17     H     0.42603  0.42603  0.00000  0.14794
      18     H     0.41829  0.41829  0.00000  0.16342
      19     H     0.42145  0.42145  0.00000  0.15710
      20     H     0.42320  0.42320  0.00000  0.15359

   Total alpha = 32.00000, Total beta = 32.00000, Total charge =  0.00000
