  ==> Input File <==

--------------------------------------------------------------------------
set {
	reference rhf
	basis 6-31G*
}

set_num_threads( 4 )
memory 2 gb

molecule MOL {
0 1

H	 -3.400836	 -0.393100	 -1.069848
O	 -3.517110	 -0.026191	 -0.205115
C	 -2.306886	 0.532354	 0.237577
C	 -1.177863	 -0.397191	 -0.171080
H	 -2.156308	 1.517575	 -0.201710
H	 -2.315015	 0.655684	 1.319734
C	 0.198102	 0.111031	 0.262842
H	 -1.208843	 -0.518759	 -1.250427
H	 -1.368741	 -1.376554	 0.258909
C	 1.331804	 -0.827780	 -0.158768
H	 0.361943	 1.100838	 -0.156218
H	 0.217265	 0.229072	 1.345532
C	 2.723619	 -0.410569	 0.329459
H	 1.342964	 -0.912588	 -1.244120
H	 1.116806	 -1.824343	 0.220779
C	 3.243875	 0.895854	 -0.272975
H	 3.424222	 -1.207124	 0.091250
H	 2.714788	 -0.329854	 1.414619
H	 3.251977	 0.848779	 -1.358681
H	 2.637085	 1.747371	 0.016682
H	 4.259473	 1.094070	 0.055697

	symmetry c1
}
set optking {
	frozen_dihedral = ("
		1 2 3 5
	")
}

ee = optimize('scf')
oeprop('DIPOLE', 'QUADRUPOLE', 'MULLIKEN_CHARGES')
f=open( 'psi4out.xyz', 'w' )
f.write( "21  " )
f.write( str(ee) + "\n" )
f.write( MOL.save_string_xyz() )
f.close()
--------------------------------------------------------------------------

    Molecular point group: c1
  Charge       = 0
  Multiplicity = 1
  Basis Set: 6-31G*
  Basis Set:
  @DF-RHF Final Energy:  -310.21012142860138
    Total Energy =                       -310.2101214286013828
    Molecular point group: c1
  Basis Set: 6-31G*
  Basis Set:
  Basis Set: 6-31G*
  Basis Set:
  @DF-RHF Final Energy:  -310.21185717816491
    Total Energy =                       -310.2118571781648484
  Basis Set: 6-31G*
  Basis Set:
  Basis Set: 6-31G*
  Basis Set:
  @DF-RHF Final Energy:  -310.21224027049573
    Total Energy =                       -310.2122402704959541
  Basis Set: 6-31G*
  Basis Set:
  Basis Set: 6-31G*
  Basis Set:
  @DF-RHF Final Energy:  -310.21224555512100
    Total Energy =                       -310.2122455551206599
  Basis Set: 6-31G*
  Basis Set:
  Basis Set: 6-31G*
  Basis Set:
  @DF-RHF Final Energy:  -310.21223936726301
    Total Energy =                       -310.2122393672632370
  Basis Set: 6-31G*
  Basis Set:
  Basis Set: 6-31G*
  Basis Set:
  @DF-RHF Final Energy:  -310.21224699585133
    Total Energy =                       -310.2122469958515012
  Basis Set: 6-31G*
  Basis Set:
  Charge       = 0
  Multiplicity = 1
  Basis Set: 6-31G*
  Basis Set:

    Orbital Energies (a.u.)
    -----------------------

    Doubly Occupied:

       1A    -20.551155     2A    -11.266323     3A    -11.221352
       4A    -11.220362     5A    -11.218812     6A    -11.218227
       7A    -11.211033     8A     -1.358288     9A     -1.091022
      10A     -1.036447    11A     -0.956261    12A     -0.880699
      13A     -0.823044    14A     -0.782752    15A     -0.685222
      16A     -0.645944    17A     -0.624965    18A     -0.619549
      19A     -0.590875    20A     -0.572566    21A     -0.551515
      22A     -0.525301    23A     -0.505486    24A     -0.502290
      25A     -0.481439    26A     -0.465492    27A     -0.460280
      28A     -0.453409    29A     -0.424842

  @DF-RHF Final Energy:  -310.21224690369650

   => Energetics <=

    Nuclear Repulsion Energy =            312.3533690542058139
    One-Electron Energy =               -1039.2413273716233562
    Two-Electron Energy =                 416.6757114137212170
    DFT Exchange-Correlation Energy =       0.0000000000000000
    Empirical Dispersion Energy =           0.0000000000000000
    PCM Polarization Energy =               0.0000000000000000
    EFP Energy =                            0.0000000000000000
    Total Energy =                       -310.2122469036963253
    Molecular point group: c1
  Basis Set: 6-31G*
  Basis Set:

  -Total Gradient:
     Atom            X                  Y                   Z
    ------   -----------------  -----------------  -----------------
       1        0.000442375191    -0.001641906233     0.000658458061
       2       -0.000757662796     0.002152830274    -0.000475411437
       3        0.000891668599    -0.001182623072    -0.001501254358
       4        0.000025174472    -0.000002814428     0.000017091827
       5       -0.000605467069     0.000662512057     0.001316926326
       6        0.000018135879     0.000004980733     0.000000669519
       7        0.000014442154     0.000003251018    -0.000015882077
       8       -0.000001436427     0.000009964520     0.000001272863
       9        0.000001586785    -0.000006293496    -0.000004830951
      10       -0.000005153388    -0.000013056339     0.000008578901
      11        0.000002869319     0.000007932156    -0.000008528815
      12        0.000002694127     0.000001250810    -0.000006074947
      13       -0.000007012430    -0.000000241622     0.000009258081
      14        0.000002850813     0.000000174950    -0.000000513957
      15       -0.000014970290    -0.000001698005     0.000000447703
      16       -0.000006655808     0.000004015962     0.000001489155
      17       -0.000009141700     0.000002715578    -0.000008049792
      18        0.000010158498    -0.000006589784     0.000004635747
      19        0.000003467960    -0.000001967916     0.000002879489
      20       -0.000006604551     0.000004081980    -0.000004305666
      21       -0.000001319341     0.000003480857     0.000003144328

  **** Optimization is complete! (in 7 steps) ****
    Final optimized geometry and variables:
    Molecular point group: c1

    Geometry (in Angstrom), charge = 0, multiplicity = 1:

    H           -3.542047132688    -0.322003705548    -1.018629179369
    O           -3.574467538621     0.024379663364    -0.137827411192
    C           -2.310752792481     0.523355582454     0.216662115048
    C           -1.172602032695    -0.408363801454    -0.179057664508
    H           -2.160640072161     1.513793031310    -0.210859051203
    H           -2.332609336744     0.645492183117     1.292857845749
    C            0.200250238479     0.108267843149     0.255458199345
    H           -1.181356993917    -0.541556094439    -1.261467911966
    H           -1.360066440809    -1.386365166998     0.256844349641
    C            1.341429988022    -0.826632179119    -0.154234090290
    H            0.358894540168     1.096552754629    -0.168375868054
    H            0.210751691679     0.232553433313     1.337090882962
    C            2.727040778073    -0.399534759129     0.343027785678
    H            1.361919194496    -0.915402664481    -1.239319904894
    H            1.129020741261    -1.822821253598     0.227812394823
    C            3.242558136841     0.909598887397    -0.257520973139
    H            3.434129227603    -1.191918084658     0.110528107742
    H            2.709974048910    -0.317788575058     1.427892142030
    H            3.259125896243     0.861143915472    -1.343093530455
    H            2.628214625564     1.757491761044     0.026703027141
    H            4.254278991152     1.114912967909     0.078314886669

  Mulliken Charges: (a.u.)
   Center  Symbol    Alpha    Beta     Spin     Total
       1     H     0.28310  0.28310  0.00000  0.43381
       2     O     4.37319  4.37319  0.00000 -0.74638
       3     C     2.98023  2.98023  0.00000  0.03954
       4     C     3.17583  3.17583  0.00000 -0.35166
       5     H     0.43123  0.43123  0.00000  0.13754
       6     H     0.41823  0.41823  0.00000  0.16353
       7     C     3.16075  3.16075  0.00000 -0.32149
       8     H     0.42805  0.42805  0.00000  0.14390
       9     H     0.41412  0.41412  0.00000  0.17176
      10     C     3.15210  3.15210  0.00000 -0.30420
      11     H     0.41975  0.41975  0.00000  0.16051
      12     H     0.42106  0.42106  0.00000  0.15788
      13     C     3.15277  3.15277  0.00000 -0.30554
      14     H     0.42389  0.42389  0.00000  0.15223
      15     H     0.42080  0.42080  0.00000  0.15841
      16     C     3.24153  3.24153  0.00000 -0.48307
      17     H     0.42015  0.42015  0.00000  0.15971
      18     H     0.42257  0.42257  0.00000  0.15486
      19     H     0.42219  0.42219  0.00000  0.15562
      20     H     0.42006  0.42006  0.00000  0.15989
      21     H     0.41841  0.41841  0.00000  0.16318

   Total alpha = 29.00000, Total beta = 29.00000, Total charge =  0.00000
