  ==> Input File <==

--------------------------------------------------------------------------
set {
	reference rhf
	basis 6-31G*
}

set_num_threads( 4 )
memory 2 gb

molecule MOL {
0 1

O	 -2.554592	 0.678445	 0.288606
C	 -2.174160	 -0.449812	 0.206495
C	 -0.914986	 -0.792165	 -0.570409
C	 -2.901087	 -1.584682	 0.892806
C	 0.342009	 -0.474514	 0.255547
H	 -0.914052	 -0.194184	 -1.475241
H	 -0.915830	 -1.839887	 -0.857294
C	 1.631333	 -0.777471	 -0.511575
H	 0.304018	 0.570788	 0.540651
H	 0.329929	 -1.052683	 1.178218
C	 2.915987	 -0.544314	 0.291766
H	 1.659391	 -0.173919	 -1.416927
H	 1.609903	 -1.815346	 -0.837467
C	 3.373361	 0.914346	 0.347591
H	 3.708709	 -1.142521	 -0.150311
H	 2.780642	 -0.921148	 1.303579
H	 3.506512	 1.320010	 -0.651625
H	 4.322697	 0.999599	 0.867103
H	 2.660624	 1.545032	 0.868198
H	 -3.323102	 -2.252543	 0.146395
H	 -3.694589	 -1.193911	 1.514448
H	 -2.214714	 -2.171830	 1.496091

	symmetry c1
}
set optking {
	frozen_dihedral = ("
		12 8 11 15
	")
}

ee = optimize('scf')
oeprop('DIPOLE', 'QUADRUPOLE', 'MULLIKEN_CHARGES')
f=open( 'psi4out.xyz', 'w' )
f.write( "22  " )
f.write( str(ee) + "\n" )
f.write( MOL.save_string_xyz() )
f.close()
--------------------------------------------------------------------------

    Molecular point group: c1
  Charge       = 0
  Multiplicity = 1
  Basis Set: 6-31G*
  Basis Set:
  @DF-RHF Final Energy:  -348.09743354411080
    Total Energy =                       -348.0974335441109702
    Molecular point group: c1
  Basis Set: 6-31G*
  Basis Set:
  Basis Set: 6-31G*
  Basis Set:
  @DF-RHF Final Energy:  -348.09750605777828
    Total Energy =                       -348.0975060577778208
  Basis Set: 6-31G*
  Basis Set:
  Basis Set: 6-31G*
  Basis Set:
  @DF-RHF Final Energy:  -348.09629697530397
    Total Energy =                       -348.0962969753041421
  Basis Set: 6-31G*
  Basis Set:
  Basis Set: 6-31G*
  Basis Set:
  @DF-RHF Final Energy:  -348.09765444781243
    Total Energy =                       -348.0976544478123742
  Basis Set: 6-31G*
  Basis Set:
  @DF-RHF Final Energy:  -348.09748975877091
    Total Energy =                       -348.0974897587709052
  @DF-RHF Final Energy:  -348.09756023565387
    Total Energy =                       -348.0975602356537024
  Basis Set: 6-31G*
  Basis Set:
  @DF-RHF Final Energy:  -348.09767287027387
    Total Energy =                       -348.0976728702739251
  Basis Set: 6-31G*
  Basis Set:
  Basis Set: 6-31G*
  Basis Set:
  @DF-RHF Final Energy:  -348.09767197195896
    Total Energy =                       -348.0976719719585617
  Basis Set: 6-31G*
  Basis Set:
  Basis Set: 6-31G*
  Basis Set:
  @DF-RHF Final Energy:  -348.09771343967537
    Total Energy =                       -348.0977134396754309
  Basis Set: 6-31G*
  Basis Set:
  Charge       = 0
  Multiplicity = 1
  Basis Set: 6-31G*
  Basis Set:

    Orbital Energies (a.u.)
    -----------------------

    Doubly Occupied:

       1A    -20.547358     2A    -11.324506     3A    -11.229646
       4A    -11.228999     5A    -11.228210     6A    -11.222367
       7A    -11.220426     8A    -11.211399     9A     -1.393113
      10A     -1.095543    11A     -1.044253    12A     -0.999635
      13A     -0.937796    14A     -0.854618    15A     -0.790045
      16A     -0.732825    17A     -0.662321    18A     -0.644017
      19A     -0.625033    20A     -0.620614    21A     -0.597604
      22A     -0.581377    23A     -0.563219    24A     -0.543994
      25A     -0.533352    26A     -0.515021    27A     -0.500320
      28A     -0.488241    29A     -0.472004    30A     -0.463766
      31A     -0.459282    32A     -0.396142

  @DF-RHF Final Energy:  -348.09771437239840

   => Energetics <=

    Nuclear Repulsion Energy =            372.3596522988671040
    One-Electron Energy =               -1209.4606394216193621
    Two-Electron Energy =                 489.0032727503538581
    DFT Exchange-Correlation Energy =       0.0000000000000000
    Empirical Dispersion Energy =           0.0000000000000000
    PCM Polarization Energy =               0.0000000000000000
    EFP Energy =                            0.0000000000000000
    Total Energy =                       -348.0977143723984000
    Molecular point group: c1
  Basis Set: 6-31G*
  Basis Set:

  -Total Gradient:
     Atom            X                  Y                   Z
    ------   -----------------  -----------------  -----------------
       1       -0.000005531570     0.000031332089     0.000008664157
       2        0.000014204264    -0.000000862060     0.000026911088
       3        0.000055360650    -0.000008380117     0.000049091957
       4       -0.000009466930    -0.000002240797    -0.000009346971
       5       -0.000030700980     0.000006249545    -0.000043454368
       6       -0.000009640335     0.000014140425     0.000002940667
       7        0.000045000005    -0.000014546913    -0.000021165862
       8        0.001087619903    -0.002611262497    -0.000977432595
       9       -0.000040127339    -0.000001757542    -0.000021531324
      10        0.000040323113     0.000053054971     0.000017588361
      11        0.000430117362     0.002485121096    -0.001555128305
      12       -0.000987489101     0.001722712766     0.001119566392
      13       -0.000056184099    -0.000020395780    -0.000050068515
      14       -0.000020107788     0.000033504692     0.000088395893
      15       -0.000489553375    -0.001738116357     0.001399172852
      16       -0.000013319497     0.000034581444    -0.000041596491
      17        0.000001947582    -0.000034836831     0.000009949367
      18       -0.000000473710     0.000019191424     0.000012898859
      19       -0.000013436137     0.000042983142    -0.000006419761
      20       -0.000011171515    -0.000026532802     0.000001026337
      21        0.000011608387     0.000003743164    -0.000002525664
      22        0.000001021127     0.000012316934    -0.000007536074

  **** Optimization is complete! (in 10 steps) ****
    Final optimized geometry and variables:
    Molecular point group: c1

    Geometry (in Angstrom), charge = 0, multiplicity = 1:

    O           -2.490880548768     1.069509674485     0.171418176792
    C           -2.128490546741    -0.062194989599     0.060722076270
    C           -0.879842850087    -0.405909216565    -0.732419420269
    C           -2.872215342783    -1.202356692087     0.720044461221
    C            0.386351418624    -0.139167114888     0.096624484981
    H           -0.871108295760     0.218674706460    -1.619012745204
    H           -0.902735023638    -1.444499143374    -1.050453090334
    C            1.668997389674    -0.460609394568    -0.676075545909
    H            0.378833175654     0.901105487473     0.404173880179
    H            0.360332996302    -0.734535077572     1.007580559124
    C            2.951571529887    -0.181148321109     0.120256634494
    H            1.678410024389     0.128088443368    -1.591354961872
    H            1.647120975134    -1.506039922628    -0.974097838566
    C            3.346877698058     1.294993680791     0.168510219971
    H            3.767027688080    -0.760627221420    -0.304544518848
    H            2.828245959726    -0.554675124209     1.135020022858
    H            3.529821668495     1.681096487363    -0.830195255315
    H            4.253995570595     1.434994218896     0.748130364996
    H            2.572464121251     1.905709673729     0.621677077749
    H           -3.309702353065    -1.842258548518    -0.041784363809
    H           -3.655571240056    -0.814370314089     1.356082986233
    H           -2.193609037734    -1.817596316587     1.303713227323

  Mulliken Charges: (a.u.)
   Center  Symbol    Alpha    Beta     Spin     Total
       1     O     4.26246  4.26246  0.00000 -0.52492
       2     C     2.73710  2.73710  0.00000  0.52580
       3     C     3.19973  3.19973  0.00000 -0.39946
       4     C     3.28950  3.28950  0.00000 -0.57900
       5     C     3.16363  3.16363  0.00000 -0.32726
       6     H     0.40115  0.40115  0.00000  0.19770
       7     H     0.41704  0.41704  0.00000  0.16593
       8     C     3.15317  3.15317  0.00000 -0.30633
       9     H     0.40473  0.40473  0.00000  0.19054
      10     H     0.42097  0.42097  0.00000  0.15806
      11     C     3.15481  3.15481  0.00000 -0.30962
      12     H     0.42043  0.42043  0.00000  0.15914
      13     H     0.42112  0.42112  0.00000  0.15775
      14     C     3.24110  3.24110  0.00000 -0.48221
      15     H     0.41920  0.41920  0.00000  0.16161
      16     H     0.42270  0.42270  0.00000  0.15459
      17     H     0.42069  0.42069  0.00000  0.15861
      18     H     0.41828  0.41828  0.00000  0.16345
      19     H     0.41849  0.41849  0.00000  0.16303
      20     H     0.40684  0.40684  0.00000  0.18632
      21     H     0.39709  0.39709  0.00000  0.20581
      22     H     0.40977  0.40977  0.00000  0.18047

   Total alpha = 32.00000, Total beta = 32.00000, Total charge =  0.00000
