                              Psi4 1.0.54 Driver

  ==> Input File <==

--------------------------------------------------------------------------
set {
	reference rhf
	basis cc-pvtz
}

set_num_threads( 4 )
memory 2 gb

molecule MOL {
0 1

O	 1.641424	 -0.252270	 0.712297
C	 0.860843	 0.273204	 -0.013120
C	 -0.623368	 -0.117453	 -0.005652
C	 1.332444	 1.347260	 -0.973338
C	 -0.892588	 -1.253841	 -1.002900
C	 -1.473463	 1.100646	 -0.372896
C	 -0.981836	 -0.579025	 1.418506
H	 -0.609333	 -0.970024	 -2.010649
H	 -1.950451	 -1.487353	 -1.013175
H	 -0.360848	 -2.161259	 -0.746463
H	 -1.232203	 1.461623	 -1.364827
H	 -2.524364	 0.834451	 -0.354500
H	 -1.312381	 1.914833	 0.318657
H	 -2.035706	 -0.826342	 1.468082
H	 -0.425078	 -1.458934	 1.716857
H	 -0.788494	 0.205047	 2.140903
H	 1.074297	 2.321256	 -0.572769
H	 2.405770	 1.283719	 -1.065007
H	 0.872524	 1.263451	 -1.948367

	symmetry c1
}
set optking {
	frozen_dihedral = ("
		1 2 3 5
	")
}

ee,wfn = optimize('scf', return_wfn=True)
oeprop( wfn, 'DIPOLE', 'QUADRUPOLE', 'MULLIKEN_CHARGES')
f=open( 'psi4out.xyz', 'w' )
f.write( "19  " )
f.write( str(ee) + "\n" )
f.write( MOL.save_string_xyz() )
f.close()
--------------------------------------------------------------------------

    Molecular point group: c1
  Charge       = 0
  Multiplicity = 1
  Basis Set: CC-PVTZ
  Basis Set:
  @DF-RHF Final Energy:  -309.17217270063412
    Total Energy =                       -309.1721727006339506
    Molecular point group: c1
  Basis Set: CC-PVTZ
  Basis Set:
  Basis Set: CC-PVTZ
  Basis Set:
  @DF-RHF Final Energy:  -309.17198769720898
    Total Energy =                       -309.1719876972089764
  Basis Set: CC-PVTZ
  Basis Set:
  Basis Set: CC-PVTZ
  Basis Set:
  @DF-RHF Final Energy:  -309.17256791243989
    Total Energy =                       -309.1725679124400585
  Basis Set: CC-PVTZ
  Basis Set:
  Basis Set: CC-PVTZ
  Basis Set:
  @DF-RHF Final Energy:  -309.17376277040182
    Total Energy =                       -309.1737627704017086
  Basis Set: CC-PVTZ
  Basis Set:
  @DF-RHF Final Energy:  -309.17399396975060
    Total Energy =                       -309.1739939697506543
  Basis Set: CC-PVTZ
  Basis Set:
  @DF-RHF Final Energy:  -309.17400653550163
    Total Energy =                       -309.1740065355015190
  Basis Set: CC-PVTZ
  Basis Set:
  Basis Set: CC-PVTZ
  Basis Set:
  @DF-RHF Final Energy:  -309.17401227196802
    Total Energy =                       -309.1740122719678538
  Basis Set: CC-PVTZ
  Basis Set:
  Basis Set: CC-PVTZ
  Basis Set:
  @DF-RHF Final Energy:  -309.17401419632364
    Total Energy =                       -309.1740141963238102
  Basis Set: CC-PVTZ
  Basis Set:
  Charge       = 0
  Multiplicity = 1
  Basis Set: CC-PVTZ
  Basis Set:

    Orbital Energies (a.u.)
    -----------------------

    Doubly Occupied:

       1A    -20.537020     2A    -11.318046     3A    -11.245650
       4A    -11.225563     5A    -11.221398     6A    -11.221115
       7A    -11.207604     8A     -1.398354     9A     -1.110419
      10A     -1.003799    11A     -0.946833    12A     -0.936541
      13A     -0.835173    14A     -0.705546    15A     -0.666790
      16A     -0.634142    17A     -0.622656    18A     -0.595594
      19A     -0.590710    20A     -0.568265    21A     -0.547398
      22A     -0.546793    23A     -0.525353    24A     -0.514109
      25A     -0.502848    26A     -0.473249    27A     -0.465946
      28A     -0.394217

  @DF-RHF Final Energy:  -309.17401446511280

   => Energetics <=

    Nuclear Repulsion Energy =            326.9281360317893359
    One-Electron Energy =               -1067.0820374874297158
    Two-Electron Energy =                 430.9798869905276888
    DFT Exchange-Correlation Energy =       0.0000000000000000
    Empirical Dispersion Energy =           0.0000000000000000
    PCM Polarization Energy =               0.0000000000000000
    EFP Energy =                            0.0000000000000000
    Total Energy =                       -309.1740144651126911
    Molecular point group: c1
  Basis Set: CC-PVTZ
  Basis Set:

  -Total Gradient:
     Atom            X                  Y                   Z
    ------   -----------------  -----------------  -----------------
       1        0.000154326593    -0.000772865454    -0.000735170535
       2       -0.000171531651     0.000933131719     0.001186362632
       3       -0.000090958418     0.000338020995    -0.001014241742
       4        0.000003057394    -0.000002684674     0.000019586567
       5        0.000110371164    -0.000511418824     0.000555034801
       6       -0.000001729362     0.000006885959     0.000012122696
       7        0.000002639908     0.000004395172    -0.000008766350
       8       -0.000001125985     0.000004123634    -0.000003065049
       9        0.000003829036     0.000001314137     0.000002787135
      10        0.000002802586    -0.000010969219    -0.000000190342
      11        0.000005827307    -0.000001631689    -0.000002447680
      12       -0.000008381897    -0.000000707482    -0.000003414864
      13       -0.000003097690     0.000004909764     0.000004898962
      14       -0.000000464053     0.000000738744    -0.000004487673
      15        0.000002560630    -0.000001399696    -0.000001426312
      16       -0.000000645710     0.000004173859     0.000003455377
      17        0.000006023734     0.000008565072     0.000001017995
      18       -0.000000570675    -0.000003985782    -0.000005074574
      19       -0.000012932906    -0.000000596236    -0.000006981046

  **** Optimization is complete! (in 9 steps) ****
    Final optimized geometry and variables:
    Molecular point group: c1

    Geometry (in Angstrom), charge = 0, multiplicity = 1:

    O            1.633060674860    -0.394121389034     0.764012814213
    C            0.888093018173     0.169993972223     0.029955566493
    C           -0.617517094195    -0.135723485548     0.049318463938
    C            1.427747843289     1.162979664364    -0.978057087556
    C           -0.847009531588    -1.276718481778    -0.958717103163
    C           -1.462543851507     1.082967867919    -0.342404978053
    C           -1.019374140222    -0.607822606376     1.449896946234
    H           -0.565140960342    -0.990427599518    -1.965961192443
    H           -1.896319615892    -1.547267593729    -0.976191058414
    H           -0.275122752760    -2.153790291288    -0.683746445651
    H           -1.264201243291     1.416313246698    -1.353001336330
    H           -2.514266376003     0.829631155838    -0.284284262529
    H           -1.290612895952     1.917937141210     0.328013934816
    H           -2.071807550102    -0.868069180406     1.463260850663
    H           -0.445707472517    -1.471273541443     1.751288375123
    H           -0.856372185245     0.170543418495     2.186275613320
    H            1.123132601055     2.167616205536    -0.708903028300
    H            2.505178316573     1.106922538401    -0.979072703038
    H            1.048701715788     0.965599521868    -1.972897484422

  Mulliken Charges: (a.u.)
   Center  Symbol    Alpha    Beta     Spin     Total
       1     O     4.17822  4.17822  0.00000 -0.35645
       2     C     2.85012  2.85012  0.00000  0.29977
       3     C     3.00727  3.00727  0.00000 -0.01453
       4     C     3.16449  3.16449  0.00000 -0.32897
       5     C     3.15603  3.15603  0.00000 -0.31205
       6     C     3.16494  3.16494  0.00000 -0.32987
       7     C     3.15174  3.15174  0.00000 -0.30347
       8     H     0.44731  0.44731  0.00000  0.10539
       9     H     0.44666  0.44666  0.00000  0.10667
      10     H     0.43985  0.43985  0.00000  0.12029
      11     H     0.44566  0.44566  0.00000  0.10869
      12     H     0.44263  0.44263  0.00000  0.11475
      13     H     0.44392  0.44392  0.00000  0.11217
      14     H     0.45168  0.45168  0.00000  0.09664
      15     H     0.43633  0.43633  0.00000  0.12735
      16     H     0.44891  0.44891  0.00000  0.10219
      17     H     0.44611  0.44611  0.00000  0.10777
      18     H     0.43177  0.43177  0.00000  0.13646
      19     H     0.44639  0.44639  0.00000  0.10723

   Total alpha = 28.00000, Total beta = 28.00000, Total charge = -0.00000

*** Psi4 exiting successfully. Buy a developer a beer!
