                              Psi4 1.0.54 Driver

  ==> Input File <==

--------------------------------------------------------------------------
set {
	reference rhf
	basis cc-pvtz
}

set_num_threads( 4 )
memory 2 gb

molecule MOL {
0 1

O	 -1.785104	 -3.679099	 0.135110
C	 -1.013788	 -3.600536	 -0.765074
C	 -0.321457	 -2.291542	 -1.089513
C	 -0.668171	 -4.797624	 -1.618478
C	 0.917955	 -2.091062	 -0.208317
H	 -1.029283	 -1.492704	 -0.907984
H	 -0.037976	 -2.265148	 -2.136321
C	 1.630207	 -0.772146	 -0.501001
H	 0.608026	 -2.132979	 0.828223
H	 1.613049	 -2.913166	 -0.360927
C	 2.907848	 -0.545876	 0.309149
H	 0.942728	 0.051289	 -0.324065
H	 1.880433	 -0.737648	 -1.557789
C	 3.373802	 0.906639	 0.372125
H	 3.699140	 -1.146831	 -0.127906
H	 2.764321	 -0.923458	 1.318191
H	 3.519798	 1.311927	 -0.623875
H	 4.316899	 0.983758	 0.900700
H	 2.661122	 1.540651	 0.885346
H	 -1.052352	 -4.643344	 -2.621773
H	 -1.103974	 -5.691522	 -1.199441
H	 0.406916	 -4.911269	 -1.701315

	symmetry c1
}
set optking {
	frozen_dihedral = ("
		12 8 11 15
	")
}

ee,wfn = optimize('scf', return_wfn=True)
oeprop( wfn, 'DIPOLE', 'QUADRUPOLE', 'MULLIKEN_CHARGES')
f=open( 'psi4out.xyz', 'w' )
f.write( "22  " )
f.write( str(ee) + "\n" )
f.write( MOL.save_string_xyz() )
f.close()
--------------------------------------------------------------------------

    Molecular point group: c1
  Charge       = 0
  Multiplicity = 1
  Basis Set: CC-PVTZ
  Basis Set:
  @DF-RHF Final Energy:  -348.22356057176711
    Total Energy =                       -348.2235605717677913
    Molecular point group: c1
  Basis Set: CC-PVTZ
  Basis Set:
  Basis Set: CC-PVTZ
  Basis Set:
  @DF-RHF Final Energy:  -348.22392136042959
    Total Energy =                       -348.2239213604299266
  Basis Set: CC-PVTZ
  Basis Set:
  Basis Set: CC-PVTZ
  Basis Set:
  @DF-RHF Final Energy:  -348.22372694396790
    Total Energy =                       -348.2237269439679039
  Basis Set: CC-PVTZ
  Basis Set:
  Basis Set: CC-PVTZ
  Basis Set:
  @DF-RHF Final Energy:  -348.22394959787601
    Total Energy =                       -348.2239495978758441
  Basis Set: CC-PVTZ
  Basis Set:
  @DF-RHF Final Energy:  -348.22391469371564
    Total Energy =                       -348.2239146937160967
  Basis Set: CC-PVTZ
  Basis Set:
  @DF-RHF Final Energy:  -348.22395251181695
    Total Energy =                       -348.2239525118168331
  Basis Set: CC-PVTZ
  Basis Set:
  Basis Set: CC-PVTZ
  Basis Set:
  @DF-RHF Final Energy:  -348.22395408710236
    Total Energy =                       -348.2239540871021859
  Basis Set: CC-PVTZ
  Basis Set:
  Basis Set: CC-PVTZ
  Basis Set:
  @DF-RHF Final Energy:  -348.22395422847831
    Total Energy =                       -348.2239542284786467
  Basis Set: CC-PVTZ
  Basis Set:
  Charge       = 0
  Multiplicity = 1
  Basis Set: CC-PVTZ
  Basis Set:

    Orbital Energies (a.u.)
    -----------------------

    Doubly Occupied:

       1A    -20.536769     2A    -11.319290     3A    -11.228651
       4A    -11.227645     5A    -11.226889     6A    -11.220298
       7A    -11.218823     8A    -11.210701     9A     -1.396907
      10A     -1.097431    11A     -1.047112    12A     -1.001694
      13A     -0.939815    14A     -0.846525    15A     -0.799554
      16A     -0.733850    17A     -0.666915    18A     -0.648965
      19A     -0.633691    20A     -0.610563    21A     -0.595974
      22A     -0.584295    23A     -0.562239    24A     -0.554483
      25A     -0.529510    26A     -0.517191    27A     -0.499323
      28A     -0.487143    29A     -0.476216    30A     -0.468652
      31A     -0.462166    32A     -0.398483

  @DF-RHF Final Energy:  -348.22395417908342

   => Energetics <=

    Nuclear Repulsion Energy =            369.2809458124763751
    One-Electron Energy =               -1203.5142797223588786
    Two-Electron Energy =                 486.0093797307989689
    DFT Exchange-Correlation Energy =       0.0000000000000000
    Empirical Dispersion Energy =           0.0000000000000000
    PCM Polarization Energy =               0.0000000000000000
    EFP Energy =                            0.0000000000000000
    Total Energy =                       -348.2239541790835347
    Molecular point group: c1
  Basis Set: CC-PVTZ
  Basis Set:

  -Total Gradient:
     Atom            X                  Y                   Z
    ------   -----------------  -----------------  -----------------
       1        0.000031536898     0.000004742767    -0.000015017537
       2        0.000010858425    -0.000013595262    -0.000004356474
       3       -0.000006206278    -0.000006404260    -0.000002644652
       4       -0.000043770999     0.000002907515    -0.000001839851
       5       -0.000014330177     0.000006124377     0.000009733586
       6        0.000000526193    -0.000009224455    -0.000009888683
       7       -0.000003428623    -0.000002921897     0.000019278493
       8       -0.001510145476    -0.001523817478     0.002786445743
       9        0.000006268998    -0.000003226243    -0.000024721362
      10       -0.000003774885     0.000014128931    -0.000001242328
      11       -0.000763141257    -0.002807110044     0.001879960321
      12        0.001395547403     0.001696757685    -0.002627683839
      13       -0.000003590266    -0.000002842389     0.000009455366
      14        0.000009284789     0.000006243667     0.000013112800
      15        0.000868070499     0.002618394903    -0.002026439510
      16        0.000007078880     0.000011778697    -0.000019751482
      17       -0.000005858616    -0.000009064014     0.000014064787
      18       -0.000007648268     0.000003888668    -0.000006069553
      19        0.000012812963    -0.000014536428    -0.000010945347
      20        0.000010269417     0.000001443053     0.000006706866
      21        0.000007182318     0.000017906190    -0.000000453386
      22        0.000002458055     0.000008426013     0.000012296045

  **** Optimization is complete! (in 8 steps) ****
    Final optimized geometry and variables:
    Molecular point group: c1

    Geometry (in Angstrom), charge = 0, multiplicity = 1:

    O           -2.418280814986    -1.568569579306     0.577589215334
    C           -1.652500557432    -1.490372445292    -0.327209884881
    C           -0.968416546484    -0.179795488819    -0.661763609323
    C           -1.307420755500    -2.689384346999    -1.178018608787
    C            0.287294286377     0.021565429568     0.195088922290
    H           -1.673874840614     0.617530936916    -0.465625678657
    H           -0.704569729240    -0.151587071336    -1.713668525037
    C            0.990534894749     1.343504310250    -0.091611368841
    H            0.004261617791    -0.022483633493     1.240889566833
    H            0.982516997275    -0.797093836234     0.026554350916
    C            2.273391267696     1.541728160526     0.717101455048
    H            0.312710008210     2.173426415566     0.089534624521
    H            1.233241278543     1.398592729654    -1.150463985702
    C            2.739482227420     2.994968119698     0.738233860318
    H            3.064666127127     0.936637932875     0.284331407992
    H            2.126495175354     1.195815503811     1.735481174120
    H            2.898417624661     3.369047690125    -0.267986227431
    H            3.672224425750     3.100030508701     1.280164849647
    H            2.004832521301     3.634704128250     1.215161453649
    H           -1.702927954757    -2.542212914360    -2.177951010865
    H           -1.733741250107    -3.583711821520    -0.750341042088
    H           -0.232653726652    -2.797233845554    -1.271355001095

  Mulliken Charges: (a.u.)
   Center  Symbol    Alpha    Beta     Spin     Total
       1     O     4.17798  4.17798  0.00000 -0.35596
       2     C     2.85837  2.85837  0.00000  0.28326
       3     C     3.09810  3.09810  0.00000 -0.19620
       4     C     3.15523  3.15523  0.00000 -0.31046
       5     C     3.10060  3.10060  0.00000 -0.20120
       6     H     0.43896  0.43896  0.00000  0.12208
       7     H     0.44913  0.44913  0.00000  0.10175
       8     C     3.08918  3.08918  0.00000 -0.17836
       9     H     0.44063  0.44063  0.00000  0.11874
      10     H     0.45192  0.45192  0.00000  0.09615
      11     C     3.08490  3.08490  0.00000 -0.16981
      12     H     0.45204  0.45204  0.00000  0.09593
      13     H     0.45414  0.45414  0.00000  0.09173
      14     C     3.14971  3.14971  0.00000 -0.29943
      15     H     0.45368  0.45368  0.00000  0.09263
      16     H     0.45298  0.45298  0.00000  0.09404
      17     H     0.45507  0.45507  0.00000  0.08985
      18     H     0.44794  0.44794  0.00000  0.10412
      19     H     0.45421  0.45421  0.00000  0.09159
      20     H     0.44835  0.44835  0.00000  0.10330
      21     H     0.43601  0.43601  0.00000  0.12799
      22     H     0.45088  0.45088  0.00000  0.09824

   Total alpha = 32.00000, Total beta = 32.00000, Total charge = -0.00000

*** Psi4 exiting successfully. Buy a developer a beer!
