  ==> Input File <==

--------------------------------------------------------------------------
set {
	reference rhf
	basis 6-31G*
}

set_num_threads( 4 )
memory 2 gb

molecule MOL {
0 1

H	 -0.367348	 2.047014	 -0.308205
C	 0.352277	 1.337084	 0.083769
N	 -0.000016	 0.000074	 -0.335546
H	 1.328359	 1.600444	 -0.307950
H	 0.381933	 1.450534	 1.172486
C	 -0.875456	 0.007918	 -1.485247
C	 1.167551	 -0.823507	 -0.551548
H	 -1.174768	 -1.005787	 -1.726423
H	 -1.771299	 0.576144	 -1.261531
H	 -0.410057	 0.444842	 -2.374845
H	 1.762946	 -0.862359	 0.353642
H	 0.863993	 -1.835470	 -0.794907
H	 1.806296	 -0.456867	 -1.361799

	symmetry c1
}
set optking {
	frozen_dihedral = ("
		6 3 2 1
	")
}

ee = optimize('scf')
oeprop('DIPOLE', 'QUADRUPOLE', 'MULLIKEN_CHARGES')
f=open( 'psi4out.xyz', 'w' )
f.write( "13  " )
f.write( str(ee) + "\n" )
f.write( MOL.save_string_xyz() )
f.close()
--------------------------------------------------------------------------

    Molecular point group: c1
  Charge       = 0
  Multiplicity = 1
  Basis Set: 6-31G*
  Basis Set:
  @DF-RHF Final Energy:  -173.26387282497376
    Total Energy =                       -173.2638728249738733
    Molecular point group: c1
  Basis Set: 6-31G*
  Basis Set:
  Basis Set: 6-31G*
  Basis Set:
  @DF-RHF Final Energy:  -173.26481995759974
    Total Energy =                       -173.2648199575996841
  Basis Set: 6-31G*
  Basis Set:
  Basis Set: 6-31G*
  Basis Set:
  @DF-RHF Final Energy:  -173.26497297318298
    Total Energy =                       -173.2649729731830348
  Basis Set: 6-31G*
  Basis Set:
  Basis Set: 6-31G*
  Basis Set:
  @DF-RHF Final Energy:  -173.26498261657909
    Total Energy =                       -173.2649826165790046
  Basis Set: 6-31G*
  Basis Set:
  Charge       = 0
  Multiplicity = 1
  Basis Set: 6-31G*
  Basis Set:

    Orbital Energies (a.u.)
    -----------------------

    Doubly Occupied:

       1A    -15.539442     2A    -11.235965     3A    -11.235601
       4A    -11.235501     5A     -1.220843     6A     -0.952478
       7A     -0.951287     8A     -0.805182     9A     -0.637643
      10A     -0.630064    11A     -0.628742    12A     -0.548006
      13A     -0.544480    14A     -0.515617    15A     -0.502665
      16A     -0.501647    17A     -0.337650

  @DF-RHF Final Energy:  -173.26498352212170

   => Energetics <=

    Nuclear Repulsion Energy =            138.8586000639332667
    One-Electron Energy =                -508.2015368479837889
    Two-Electron Energy =                 196.0779532619287977
    DFT Exchange-Correlation Energy =       0.0000000000000000
    Empirical Dispersion Energy =           0.0000000000000000
    PCM Polarization Energy =               0.0000000000000000
    EFP Energy =                            0.0000000000000000
    Total Energy =                       -173.2649835221216961
    Molecular point group: c1
  Basis Set: 6-31G*
  Basis Set:

  -Total Gradient:
     Atom            X                  Y                   Z
    ------   -----------------  -----------------  -----------------
       1        0.002611177056     0.000744762035    -0.004065723151
       2       -0.004482456973    -0.000965460608     0.006088255208
       3        0.004783585888     0.000239949807    -0.004389382584
       4        0.000007756197     0.000021393796    -0.000014872063
       5       -0.000000078372    -0.000032542008    -0.000021147257
       6       -0.002948010435    -0.000027109661     0.002384081246
       7        0.000020518943     0.000034491864     0.000048649177
       8        0.000005608736     0.000005227461    -0.000000733007
       9       -0.000015350755    -0.000001231789    -0.000022057903
      10        0.000005094239    -0.000006371494     0.000004526280
      11        0.000022755590    -0.000018243620    -0.000002245925
      12       -0.000003837263     0.000004252841    -0.000003173090
      13       -0.000006762850     0.000000881376    -0.000006176929

  **** Optimization is complete! (in 5 steps) ****
    Final optimized geometry and variables:
    Molecular point group: c1

    Geometry (in Angstrom), charge = 0, multiplicity = 1:

    H           -0.547605603972     1.927588115277     0.352922978359
    C            0.186169276421     1.205490548567     0.689582196124
    N           -0.157632040575    -0.121356531646     0.218660190226
    H            1.146873615878     1.546703683399     0.296115276670
    H            0.241393533642     1.232284335087     1.773047018983
    C           -1.060103790533    -0.139223439910    -0.906897841729
    C            0.991060271784    -0.975908936308     0.056248705438
    H           -1.349507489954    -1.161580386085    -1.123604314911
    H           -1.959684406547     0.414936993831    -0.666384071562
    H           -0.631734422768     0.287407175111    -1.820360686243
    H            1.564597053148    -0.998431735278     0.976635876185
    H            0.672423355901    -1.989420805500    -0.160709488384
    H            1.658842818882    -0.649196496125    -0.748007398658

  Mulliken Charges: (a.u.)
   Center  Symbol    Alpha    Beta     Spin     Total
       1     H     0.41940  0.41940  0.00000  0.16120
       2     C     3.14139  3.14139  0.00000 -0.28278
       3     N     3.77168  3.77168  0.00000 -0.54335
       4     H     0.43125  0.43125  0.00000  0.13751
       5     H     0.41583  0.41583  0.00000  0.16834
       6     C     3.13932  3.13932  0.00000 -0.27865
       7     C     3.14002  3.14002  0.00000 -0.28003
       8     H     0.41816  0.41816  0.00000  0.16368
       9     H     0.41670  0.41670  0.00000  0.16659
      10     H     0.43604  0.43604  0.00000  0.12792
      11     H     0.41697  0.41697  0.00000  0.16606
      12     H     0.41783  0.41783  0.00000  0.16435
      13     H     0.43542  0.43542  0.00000  0.12916

   Total alpha = 17.00000, Total beta = 17.00000, Total charge =  0.00000
