  ==> Input File <==

--------------------------------------------------------------------------
set {
	reference rhf
	basis 6-31G*
}

set_num_threads( 4 )
memory 2 gb

molecule MOL {
0 1

H	 -1.836216	 1.387520	 -0.000064
C	 -1.301823	 0.443321	 -0.000031
O	 -0.003969	 0.658512	 0.000451
O	 -1.829879	 -0.616434	 -0.000857
C	 0.850537	 -0.484732	 0.000380
C	 1.493857	 -0.570752	 1.367515
H	 1.586501	 -0.369772	 -0.783495
H	 0.259244	 -1.362447	 -0.221622
H	 2.075285	 0.320045	 1.575975
H	 2.154759	 -1.430201	 1.409819
H	 0.741723	 -0.677437	 2.140691

	symmetry c1
}
set optking {
	frozen_dihedral = ("
		7 5 3 2
	")
}

ee = optimize('scf')
oeprop('DIPOLE', 'QUADRUPOLE', 'MULLIKEN_CHARGES')
f=open( 'psi4out.xyz', 'w' )
f.write( "11  " )
f.write( str(ee) + "\n" )
f.write( MOL.save_string_xyz() )
f.close()
--------------------------------------------------------------------------

    Molecular point group: c1
  Charge       = 0
  Multiplicity = 1
  Basis Set: 6-31G*
  Basis Set:
  @DF-RHF Final Energy:  -266.82621760793927
    Total Energy =                       -266.8262176079392702
    Molecular point group: c1
  Basis Set: 6-31G*
  Basis Set:
  Basis Set: 6-31G*
  Basis Set:
  @DF-RHF Final Energy:  -266.82669796374068
    Total Energy =                       -266.8266979637406848
  Basis Set: 6-31G*
  Basis Set:
  Basis Set: 6-31G*
  Basis Set:
  @DF-RHF Final Energy:  -266.82097062794907
    Total Energy =                       -266.8209706279488955
  Basis Set: 6-31G*
  Basis Set:
  Basis Set: 6-31G*
  Basis Set:
  @DF-RHF Final Energy:  -266.82715313279641
    Total Energy =                       -266.8271531327963544
  Basis Set: 6-31G*
  Basis Set:
  Basis Set: 6-31G*
  Basis Set:
  @DF-RHF Final Energy:  -266.82724235729688
    Total Energy =                       -266.8272423572968250
  Basis Set: 6-31G*
  Basis Set:
  Basis Set: 6-31G*
  Basis Set:
  @DF-RHF Final Energy:  -266.82725438926116
    Total Energy =                       -266.8272543892610429
  Basis Set: 6-31G*
  Basis Set:
  Charge       = 0
  Multiplicity = 1
  Basis Set: 6-31G*
  Basis Set:

    Orbital Energies (a.u.)
    -----------------------

    Doubly Occupied:

       1A    -20.612171     2A    -20.556312     3A    -11.379750
       4A    -11.290570     5A    -11.225911     6A     -1.474063
       7A     -1.374254     8A     -1.050690     9A     -0.909240
      10A     -0.799094    11A     -0.745872    12A     -0.683516
      13A     -0.659610    14A     -0.616987    15A     -0.572207
      16A     -0.546799    17A     -0.536455    18A     -0.502056
      19A     -0.455369    20A     -0.454793

  @DF-RHF Final Energy:  -266.82725550343912

   => Energetics <=

    Nuclear Repulsion Energy =            180.3166204054435866
    One-Electron Energy =                -721.3963181969057814
    Two-Electron Energy =                 274.2524422880230190
    DFT Exchange-Correlation Energy =       0.0000000000000000
    Empirical Dispersion Energy =           0.0000000000000000
    PCM Polarization Energy =               0.0000000000000000
    EFP Energy =                            0.0000000000000000
    Total Energy =                       -266.8272555034391758
    Molecular point group: c1
  Basis Set: 6-31G*
  Basis Set:

  -Total Gradient:
     Atom            X                  Y                   Z
    ------   -----------------  -----------------  -----------------
       1       -0.000022241920     0.000014385551     0.000008428925
       2       -0.000003882561    -0.000004230588    -0.000947322464
       3       -0.000135069174    -0.000093293605     0.001181237395
       4        0.000076387488     0.000006888891    -0.000000101633
       5        0.000693357592     0.000597967886     0.000416718027
       6        0.000027317612    -0.000014355338     0.000000326693
       7       -0.000637384750    -0.000470258391    -0.000649158403
       8       -0.000014986770    -0.000029959621    -0.000010327186
       9       -0.000001285503    -0.000002618999     0.000002475366
      10        0.000015986153    -0.000007671921     0.000014885029
      11        0.000001801836     0.000003146133    -0.000017161750

  **** Optimization is complete! (in 7 steps) ****
    Final optimized geometry and variables:
    Molecular point group: c1

    Geometry (in Angstrom), charge = 0, multiplicity = 1:

    H           -1.650373743962     1.536117796278    -0.345688905604
    C           -1.149413288338     0.574897788215    -0.302527106281
    O            0.154721442302     0.756727743178    -0.290434171688
    O           -1.719045626394    -0.462502491067    -0.270034366438
    C            1.021608440080    -0.379146825604    -0.255073797628
    C            1.696866872652    -0.467357642071     1.099290530192
    H            1.739919874976    -0.221770342416    -1.047444940368
    H            0.452288288946    -1.268057560934    -0.472839500787
    H            2.236638474861     0.446232186871     1.320638186800
    H            2.400790390555    -1.293549978030     1.108751871087
    H            0.965143999703    -0.634566165092     1.881820131043

  Mulliken Charges: (a.u.)
   Center  Symbol    Alpha    Beta     Spin     Total
       1     H     0.41189  0.41189  0.00000  0.17622
       2     C     2.72646  2.72646  0.00000  0.54708
       3     O     4.29235  4.29235  0.00000 -0.58471
       4     O     4.26382  4.26382  0.00000 -0.52764
       5     C     3.01574  3.01574  0.00000 -0.03148
       6     C     3.24845  3.24845  0.00000 -0.49691
       7     H     0.40975  0.40975  0.00000  0.18050
       8     H     0.39455  0.39455  0.00000  0.21091
       9     H     0.41089  0.41089  0.00000  0.17822
      10     H     0.41610  0.41610  0.00000  0.16779
      11     H     0.40999  0.40999  0.00000  0.18001

   Total alpha = 20.00000, Total beta = 20.00000, Total charge = -0.00000
