  ==> Input File <==

--------------------------------------------------------------------------
set {
	reference rhf
	basis 6-31G*
}

set_num_threads( 4 )
memory 2 gb

molecule MOL {
0 1

H	 0.375093	 -5.233062	 2.973750
C	 0.612018	 -4.442057	 2.269529
C	 -0.578112	 -3.503479	 2.075563
H	 1.475623	 -3.906586	 2.653826
H	 0.903389	 -4.910166	 1.333460
C	 -0.286947	 -2.375918	 1.090562
H	 -0.869301	 -3.066125	 3.025468
H	 -1.434230	 -4.076058	 1.722565
N	 -1.426833	 -1.490587	 0.955268
H	 0.551109	 -1.788380	 1.455835
H	 0.027604	 -2.799895	 0.131041
C	 -1.217365	 -0.386708	 0.039277
H	 -2.226208	 -2.019621	 0.661734
C	 -2.452633	 0.504241	 -0.042481
H	 -0.377780	 0.197510	 0.406352
H	 -0.942729	 -0.725190	 -0.965406
C	 -3.758029	 -0.289423	 -0.010781
H	 -2.394220	 1.093569	 -0.952170
H	 -2.440793	 1.210787	 0.785871
H	 -3.816659	 -0.981993	 -0.845726
H	 -4.617837	 0.370165	 -0.069296
H	 -3.847478	 -0.867502	 0.904682

	symmetry c1
}
set optking {
	frozen_dihedral = ("
		15 12 14 18
	")
}

ee = optimize('scf')
oeprop('DIPOLE', 'QUADRUPOLE', 'MULLIKEN_CHARGES')
f=open( 'psi4out.xyz', 'w' )
f.write( "22  " )
f.write( str(ee) + "\n" )
f.write( MOL.save_string_xyz() )
f.close()
--------------------------------------------------------------------------

    Molecular point group: c1
  Charge       = 0
  Multiplicity = 1
  Basis Set: 6-31G*
  Basis Set:
  @DF-RHF Final Energy:  -290.37768152581788
    Total Energy =                       -290.3776815258180477
    Molecular point group: c1
  Basis Set: 6-31G*
  Basis Set:
  Basis Set: 6-31G*
  Basis Set:
  @DF-RHF Final Energy:  -290.37819312436659
    Total Energy =                       -290.3781931243667600
  Basis Set: 6-31G*
  Basis Set:
  Basis Set: 6-31G*
  Basis Set:
  @DF-RHF Final Energy:  -290.37951808723011
    Total Energy =                       -290.3795180872305082
  Basis Set: 6-31G*
  Basis Set:
  Basis Set: 6-31G*
  Basis Set:
  @DF-RHF Final Energy:  -290.37962164926728
    Total Energy =                       -290.3796216492668805
  Basis Set: 6-31G*
  Basis Set:
  Basis Set: 6-31G*
  Basis Set:
  @DF-RHF Final Energy:  -290.37962991156263
    Total Energy =                       -290.3796299115619490
  Basis Set: 6-31G*
  Basis Set:
  Basis Set: 6-31G*
  Basis Set:
  @DF-RHF Final Energy:  -290.37963243870269
    Total Energy =                       -290.3796324387028562
  Basis Set: 6-31G*
  Basis Set:
  Charge       = 0
  Multiplicity = 1
  Basis Set: 6-31G*
  Basis Set:

    Orbital Energies (a.u.)
    -----------------------

    Doubly Occupied:

       1A    -15.533043     2A    -11.238444     3A    -11.237981
       4A    -11.213721     5A    -11.213469     6A    -11.209851
       7A    -11.207742     8A     -1.205251     9A     -1.057718
      10A     -1.022033    11A     -0.927751    12A     -0.880705
      13A     -0.804668    14A     -0.785970    15A     -0.669959
      16A     -0.631595    17A     -0.624536    18A     -0.588952
      19A     -0.575075    20A     -0.569883    21A     -0.539879
      22A     -0.528962    23A     -0.504154    24A     -0.486443
      25A     -0.481343    26A     -0.472093    27A     -0.466415
      28A     -0.450400    29A     -0.358280

  @DF-RHF Final Energy:  -290.37963316016709

   => Energetics <=

    Nuclear Repulsion Energy =            318.1851606631459504
    One-Electron Energy =               -1022.1569574681988115
    Two-Electron Energy =                 413.5921636448861136
    DFT Exchange-Correlation Energy =       0.0000000000000000
    Empirical Dispersion Energy =           0.0000000000000000
    PCM Polarization Energy =               0.0000000000000000
    EFP Energy =                            0.0000000000000000
    Total Energy =                       -290.3796331601668044
    Molecular point group: c1
  Basis Set: 6-31G*
  Basis Set:

  -Total Gradient:
     Atom            X                  Y                   Z
    ------   -----------------  -----------------  -----------------
       1        0.000003398539    -0.000002548473     0.000001258201
       2       -0.000000074771    -0.000004669457     0.000005425118
       3        0.000004897625     0.000002502527    -0.000000837884
       4       -0.000000715902    -0.000000155891    -0.000001226958
       5       -0.000001074945     0.000000147503     0.000000758406
       6       -0.000008862891     0.000005961953    -0.000004806458
       7       -0.000000386392    -0.000001820815    -0.000000439289
       8        0.000000900551     0.000000831821    -0.000000735334
       9        0.000002911337     0.000022333487    -0.000011232459
      10        0.000001748234    -0.000002887898    -0.000000376801
      11        0.000004586814    -0.000001160089     0.000001391382
      12        0.000842760774     0.000912506088    -0.006874957560
      13       -0.000003006649     0.000007773154    -0.000003785455
      14        0.003296419610     0.004160274047     0.004467101241
      15       -0.001221971597    -0.001419158349     0.005137371637
      16        0.000004183907    -0.000002062633    -0.000001190388
      17        0.000012219906    -0.000000011586    -0.000001277540
      18       -0.002936716539    -0.003682902673    -0.002718346933
      19       -0.000003946917     0.000001327749     0.000001268159
      20        0.000003835399     0.000001112944     0.000002093239
      21       -0.000000554286     0.000004086583    -0.000001470254
      22       -0.000000551805    -0.000001479997     0.000004015932

  **** Optimization is complete! (in 7 steps) ****
    Final optimized geometry and variables:
    Molecular point group: c1

    Geometry (in Angstrom), charge = 0, multiplicity = 1:

    H            1.759708926858    -3.494665527864     2.090202746456
    C            1.983150061799    -2.691500622554     1.395374928178
    C            0.759064045533    -1.806065662327     1.166071103469
    H            2.809595925916    -2.119524182812     1.807657590489
    H            2.324131944929    -3.142974371252     0.467936651124
    C            1.030824594410    -0.662680464445     0.193799439839
    H            0.419003762454    -1.385798785998     2.107445368252
    H           -0.059058510469    -2.415057466044     0.784815160178
    N           -0.142360443157     0.173539311877     0.027889269556
    H            1.832841889319    -0.042788012042     0.585323012965
    H            1.390644305872    -1.069357677772    -0.757408124367
    C            0.049274425233     1.276132289899    -0.898800118573
    H           -0.907194514035    -0.396531148477    -0.276192212663
    C           -1.142786169958     2.241319968353    -0.915663676767
    H            0.921700312370     1.814562944109    -0.542420316249
    H            0.265097100681     0.929357272560    -1.913305991031
    C           -2.513118280842     1.558013791577    -0.941902899141
    H           -1.069026512502     2.847772128749    -1.815084371081
    H           -1.089626114818     2.902135424241    -0.057005451861
    H           -2.597640117811     0.869311072557    -1.779860306745
    H           -3.302258687998     2.295652151580    -1.048100002035
    H           -2.701313447872     1.006159458504    -0.028156823253

  Mulliken Charges: (a.u.)
   Center  Symbol    Alpha    Beta     Spin     Total
       1     H     0.41772  0.41772  0.00000  0.16455
       2     C     3.24325  3.24325  0.00000 -0.48650
       3     C     3.15608  3.15608  0.00000 -0.31216
       4     H     0.42066  0.42066  0.00000  0.15869
       5     H     0.42162  0.42162  0.00000  0.15676
       6     C     3.04596  3.04596  0.00000 -0.09192
       7     H     0.41308  0.41308  0.00000  0.17385
       8     H     0.42670  0.42670  0.00000  0.14661
       9     N     3.85956  3.85956  0.00000 -0.71912
      10     H     0.42194  0.42194  0.00000  0.15612
      11     H     0.43644  0.43644  0.00000  0.12712
      12     C     3.05475  3.05475  0.00000 -0.10949
      13     H     0.33173  0.33173  0.00000  0.33654
      14     C     3.14886  3.14886  0.00000 -0.29772
      15     H     0.41968  0.41968  0.00000  0.16065
      16     H     0.43450  0.43450  0.00000  0.13100
      17     C     3.25077  3.25077  0.00000 -0.50154
      18     H     0.42361  0.42361  0.00000  0.15279
      19     H     0.41668  0.41668  0.00000  0.16664
      20     H     0.42572  0.42572  0.00000  0.14855
      21     H     0.41780  0.41780  0.00000  0.16439
      22     H     0.41291  0.41291  0.00000  0.17417

   Total alpha = 29.00000, Total beta = 29.00000, Total charge =  0.00000
