                              Psi4 1.0.54 Driver

  ==> Input File <==

--------------------------------------------------------------------------
set {
	reference rhf
	basis cc-pvtz
}

set_num_threads( 4 )
memory 2 gb

molecule MOL {
0 1

H	 0.368304	 0.067705	 -2.090550
C	 0.209556	 -0.484932	 -1.189482
C	 0.208240	 -1.865032	 -1.182027
C	 0.000000	 0.179985	 0.000046
H	 0.369367	 -2.400757	 -2.096659
C	 0.000003	 -2.552036	 -0.000010
N	 0.000000	 1.644631	 0.000076
C	 -0.209558	 -0.484981	 1.189546
H	 0.000000	 -3.625035	 -0.000032
C	 -0.208238	 -1.865081	 1.182036
O	 1.050559	 2.194174	 -0.000073
O	 -1.050559	 2.194174	 -0.000074
H	 -0.368297	 0.067620	 2.090638
H	 -0.369368	 -2.400843	 2.096645

	symmetry c1
}
set optking {
	frozen_dihedral = ("
		2 4 7 11
	")
}

ee,wfn = optimize('scf', return_wfn=True)
oeprop( wfn, 'DIPOLE', 'QUADRUPOLE', 'MULLIKEN_CHARGES')
f=open( 'psi4out.xyz', 'w' )
f.write( "14  " )
f.write( str(ee) + "\n" )
f.write( MOL.save_string_xyz() )
f.close()
--------------------------------------------------------------------------

    Molecular point group: c1
  Charge       = 0
  Multiplicity = 1
  Basis Set: CC-PVTZ
  Basis Set:
  @DF-RHF Final Energy:  -434.32010274946555
    Total Energy =                       -434.3201027494656046
    Molecular point group: c1
  Basis Set: CC-PVTZ
  Basis Set:
  Basis Set: CC-PVTZ
  Basis Set:
  @DF-RHF Final Energy:  -434.31598096255550
    Total Energy =                       -434.3159809625551588
  Basis Set: CC-PVTZ
  Basis Set:
  Basis Set: CC-PVTZ
  Basis Set:
  @DF-RHF Final Energy:  -434.31950037225045
    Total Energy =                       -434.3195003722504453
  Basis Set: CC-PVTZ
  Basis Set:
  Basis Set: CC-PVTZ
  Basis Set:
  @DF-RHF Final Energy:  -434.32033914254203
    Total Energy =                       -434.3203391425421387
  Basis Set: CC-PVTZ
  Basis Set:
  Basis Set: CC-PVTZ
  Basis Set:
  @DF-RHF Final Energy:  -434.32036127357389
    Total Energy =                       -434.3203612735737806
  Basis Set: CC-PVTZ
  Basis Set:
  Basis Set: CC-PVTZ
  Basis Set:
  @DF-RHF Final Energy:  -434.32038540396024
    Total Energy =                       -434.3203854039601310
  Basis Set: CC-PVTZ
  Basis Set:
  Charge       = 0
  Multiplicity = 1
  Basis Set: CC-PVTZ
  Basis Set:

    Orbital Energies (a.u.)
    -----------------------

    Doubly Occupied:

       1A    -20.598508     2A    -20.598441     3A    -15.848343
       4A    -11.308160     5A    -11.267364     6A    -11.267291
       7A    -11.260879     8A    -11.260560     9A    -11.258003
      10A     -1.645807    11A     -1.428976    12A     -1.206522
      13A     -1.096681    14A     -1.056879    15A     -0.959242
      16A     -0.874947    17A     -0.831519    18A     -0.786430
      19A     -0.740737    20A     -0.738665    21A     -0.718223
      22A     -0.652006    23A     -0.650498    24A     -0.625874
      25A     -0.561725    26A     -0.553009    27A     -0.533712
      28A     -0.500823    29A     -0.485663    30A     -0.459464
      31A     -0.371622    32A     -0.370568

  @DF-RHF Final Energy:  -434.32038547938657

   => Energetics <=

    Nuclear Repulsion Energy =            417.3182917286945894
    One-Electron Energy =               -1418.2430721219657244
    Two-Electron Energy =                 566.6043949138845619
    DFT Exchange-Correlation Energy =       0.0000000000000000
    Empirical Dispersion Energy =           0.0000000000000000
    PCM Polarization Energy =               0.0000000000000000
    EFP Energy =                            0.0000000000000000
    Total Energy =                       -434.3203854793865730
    Molecular point group: c1
  Basis Set: CC-PVTZ
  Basis Set:

  -Total Gradient:
     Atom            X                  Y                   Z
    ------   -----------------  -----------------  -----------------
       1       -0.000003336552     0.000003233653    -0.000002049708
       2       -0.002233455087    -0.000042984775    -0.000330650192
       3       -0.000009370942     0.000013561901    -0.000007932121
       4        0.003291677430     0.000059645374     0.001453441503
       5       -0.000004475936    -0.000000391792     0.000000135090
       6        0.000008796507    -0.000002302247     0.000011376409
       7       -0.001096055937    -0.000036256524    -0.003718023926
       8        0.000032865570     0.000001060251    -0.000003774058
       9        0.000002431348     0.000000111756     0.000000000553
      10       -0.000022710826    -0.000004489491    -0.000010422127
      11        0.000053282330    -0.000007234343     0.002606210133
      12       -0.000012322321     0.000013247817     0.000000161288
      13       -0.000004647260     0.000001812655     0.000001928730
      14       -0.000002678323     0.000000985773    -0.000000401577

  **** Optimization is complete! (in 7 steps) ****
    Final optimized geometry and variables:
    Molecular point group: c1

    Geometry (in Angstrom), charge = 0, multiplicity = 1:

    H            0.352745966337     0.070807946956    -2.100224835693
    C            0.199091910467    -0.479378318776    -1.193185591532
    C            0.183401587167    -1.860865063075    -1.185869140716
    C            0.017114156502     0.177831343685    -0.000799797870
    H            0.321019071496    -2.397239336339    -2.104156222412
    C           -0.008279968338    -2.547341814507    -0.001565614880
    N            0.002795741760     1.643681120552    -0.003190763748
    C           -0.191731052129    -0.476348532476     1.189137935018
    H           -0.015950684324    -3.619909689895    -0.001338151077
    C           -0.193379450705    -1.857667783051     1.182236613065
    O            1.050960417997     2.194047063841    -0.034090265663
    O           -1.055871441529     2.172043961736     0.045168485611
    H           -0.347922335261     0.076242404820     2.094214192991
    H           -0.344822458650    -2.391850833941     2.099630416985

  Mulliken Charges: (a.u.)
   Center  Symbol    Alpha    Beta     Spin     Total
       1     H     0.41445  0.41445  0.00000  0.17111
       2     C     3.08501  3.08501  0.00000 -0.17002
       3     C     3.06412  3.06412  0.00000 -0.12824
       4     C     2.92408  2.92408  0.00000  0.15185
       5     H     0.41735  0.41735  0.00000  0.16529
       6     C     3.07821  3.07821  0.00000 -0.15642
       7     N     3.29232  3.29232  0.00000  0.41536
       8     C     3.08452  3.08452  0.00000 -0.16905
       9     H     0.41801  0.41801  0.00000  0.16399
      10     C     3.06402  3.06402  0.00000 -0.12805
      11     O     4.16320  4.16320  0.00000 -0.32640
      12     O     4.16302  4.16302  0.00000 -0.32604
      13     H     0.41433  0.41433  0.00000  0.17134
      14     H     0.41735  0.41735  0.00000  0.16529

   Total alpha = 32.00000, Total beta = 32.00000, Total charge = -0.00000

*** Psi4 exiting successfully. Buy a developer a beer!
