  ==> Input File <==

--------------------------------------------------------------------------
set {
	reference rhf
	basis cc-pvtz
}

set_num_threads( 4 )
memory 2 gb

molecule MOL {
0 1

H	 -4.204544	 0.638886	 -0.118856
O	 -3.489883	 0.078539	 -0.358578
C	 -2.302264	 0.528872	 0.237390
C	 -1.175688	 -0.398187	 -0.171891
H	 -2.079104	 1.545552	 -0.079366
H	 -2.399606	 0.537494	 1.321032
C	 0.196029	 0.106276	 0.266738
H	 -1.201873	 -0.515469	 -1.250677
H	 -1.365975	 -1.378728	 0.252664
C	 1.330220	 -0.826136	 -0.155230
H	 0.359542	 1.097229	 -0.145561
H	 0.212134	 0.218135	 1.348778
C	 2.719700	 -0.407669	 0.328325
H	 1.339388	 -0.911200	 -1.239363
H	 1.119001	 -1.821953	 0.224128
C	 3.241564	 0.893452	 -0.276737
H	 3.418299	 -1.204729	 0.093035
H	 2.711776	 -0.323368	 1.411960
H	 3.254204	 0.841071	 -1.360784
H	 2.634460	 1.745075	 0.005842
H	 4.254264	 1.092401	 0.054971

	symmetry c1
}
set optking {
	frozen_dihedral = ("
		2 3 4 8
	")
}

ee = optimize('scf')
oeprop('DIPOLE', 'QUADRUPOLE', 'MULLIKEN_CHARGES')
f=open( 'psi4out.xyz', 'w' )
f.write( "21  " )
f.write( str(ee) + "\n" )
f.write( MOL.save_string_xyz() )
f.close()
--------------------------------------------------------------------------

    Molecular point group: c1
  Charge       = 0
  Multiplicity = 1
  Basis Set: CC-PVTZ
  Basis Set:
  @DF-RHF Final Energy:  -310.33280172101018
    Total Energy =                       -310.3328017210101279
    Molecular point group: c1
  Basis Set: CC-PVTZ
  Basis Set:
  Basis Set: CC-PVTZ
  Basis Set:
  @DF-RHF Final Energy:  -310.33283170288598
    Total Energy =                       -310.3328317028862102
  Basis Set: CC-PVTZ
  Basis Set:
  Basis Set: CC-PVTZ
  Basis Set:
  @DF-RHF Final Energy:  -310.33284034286572
    Total Energy =                       -310.3328403428660067
  Basis Set: CC-PVTZ
  Basis Set:
  Charge       = 0
  Multiplicity = 1
  Basis Set: CC-PVTZ
  Basis Set:

    Orbital Energies (a.u.)
    -----------------------

    Doubly Occupied:

       1A    -20.545441     2A    -11.264981     3A    -11.213203
       4A    -11.213069     5A    -11.211254     6A    -11.208848
       7A    -11.206013     8A     -1.363280     9A     -1.087364
      10A     -1.034351    11A     -0.955567    12A     -0.876442
      13A     -0.807628    14A     -0.779472    15A     -0.696613
      16A     -0.662173    17A     -0.621976    18A     -0.609252
      19A     -0.589232    20A     -0.569751    21A     -0.538452
      22A     -0.520769    23A     -0.511430    24A     -0.488621
      25A     -0.479426    26A     -0.460686    27A     -0.456197
      28A     -0.444274    29A     -0.437097

  @DF-RHF Final Energy:  -310.33284004025779

   => Energetics <=

    Nuclear Repulsion Energy =            312.8807251112383483
    One-Electron Energy =               -1040.7214013498546592
    Two-Electron Energy =                 417.5078361983584045
    DFT Exchange-Correlation Energy =       0.0000000000000000
    Empirical Dispersion Energy =           0.0000000000000000
    PCM Polarization Energy =               0.0000000000000000
    EFP Energy =                            0.0000000000000000
    Total Energy =                       -310.3328400402579064
    Molecular point group: c1
  Basis Set: CC-PVTZ
  Basis Set:

  -Total Gradient:
     Atom            X                  Y                   Z
    ------   -----------------  -----------------  -----------------
       1        0.000021241901     0.000001951803     0.000010949393
       2        0.000225524998     0.000691513303    -0.001003671501
       3       -0.000526141065    -0.001195335141     0.001312357696
       4        0.001373447940     0.001882467208    -0.000402688335
       5        0.000020435715     0.000040064411    -0.000011989338
       6        0.000019103103    -0.000006800299    -0.000036166302
       7       -0.000022544960     0.000013542124    -0.000006814595
       8       -0.001051910237    -0.001324274727     0.000229369148
       9       -0.000018673910    -0.000114406374    -0.000068580963
      10       -0.000003258672     0.000031772568    -0.000070127376
      11       -0.000051618775    -0.000068418772     0.000018088485
      12       -0.000031675526    -0.000000581980     0.000014957683
      13       -0.000043768156     0.000047579833     0.000055897488
      14       -0.000001277051     0.000017003934    -0.000022893171
      15        0.000015186519     0.000009323677    -0.000017228163
      16        0.000038009232     0.000001648448    -0.000013995393
      17       -0.000019204668    -0.000013777529     0.000021031642
      18       -0.000005903108     0.000024785824     0.000011325068
      19       -0.000006433053     0.000010575608    -0.000013260911
      20        0.000066727998    -0.000032839400     0.000006533726
      21        0.000002731768    -0.000015794517    -0.000013094282

  **** Optimization is complete! (in 4 steps) ****
    Final optimized geometry and variables:
    Molecular point group: c1

    Geometry (in Angstrom), charge = 0, multiplicity = 1:

    H           -4.222491575885     0.584458229885    -0.049045152258
    O           -3.498777064154     0.054162147121    -0.326777452097
    C           -2.311230443614     0.509690905222     0.265401733524
    C           -1.178043197887    -0.400818100034    -0.164371804862
    H           -2.102452397984     1.531110022498    -0.046666004706
    H           -2.398072956207     0.510272888012     1.349689300465
    C            0.191783666489     0.100150511197     0.281319049906
    H           -1.215315853325    -0.502351674843    -1.244126050645
    H           -1.360323278343    -1.392546207369     0.238721053203
    C            1.325715723679    -0.837409783672    -0.129227056357
    H            0.360382073860     1.088989555818    -0.133182108903
    H            0.200903946730     0.215661208208     1.363271479802
    C            2.713212385288    -0.422100060994     0.362736283424
    H            1.341987017097    -0.926448300281    -1.212958616027
    H            1.108476286284    -1.831012564269     0.252338548133
    C            3.250373268604     0.867542837843    -0.253298821701
    H            3.408471752020    -1.226728907845     0.144036089759
    H            2.695492200112    -0.324394938580     1.445134724801
    H            3.270432877978     0.802513275334    -1.336513051274
    H            2.648549206171     1.727413872122     0.014993428873
    H            4.262277201674     1.061750142806     0.083569187940

  Mulliken Charges: (a.u.)
   Center  Symbol    Alpha    Beta     Spin     Total
       1     H     0.39742  0.39742  0.00000  0.20515
       2     O     4.19448  4.19448  0.00000 -0.38897
       3     C     2.96305  2.96305  0.00000  0.07389
       4     C     3.08445  3.08445  0.00000 -0.16889
       5     H     0.47635  0.47635  0.00000  0.04731
       6     H     0.47374  0.47374  0.00000  0.05251
       7     C     3.10279  3.10279  0.00000 -0.20558
       8     H     0.44955  0.44955  0.00000  0.10091
       9     H     0.45203  0.45203  0.00000  0.09593
      10     C     3.09433  3.09433  0.00000 -0.18865
      11     H     0.45281  0.45281  0.00000  0.09439
      12     H     0.45601  0.45601  0.00000  0.08799
      13     C     3.08988  3.08988  0.00000 -0.17975
      14     H     0.45301  0.45301  0.00000  0.09397
      15     H     0.44888  0.44888  0.00000  0.10223
      16     C     3.15222  3.15222  0.00000 -0.30443
      17     H     0.44845  0.44845  0.00000  0.10310
      18     H     0.45512  0.45512  0.00000  0.08975
      19     H     0.45460  0.45460  0.00000  0.09080
      20     H     0.45427  0.45427  0.00000  0.09146
      21     H     0.44655  0.44655  0.00000  0.10690

   Total alpha = 29.00000, Total beta = 29.00000, Total charge =  0.00000
