                              Psi4 1.0.54 Driver

  ==> Input File <==

--------------------------------------------------------------------------
set {
	reference rhf
	basis cc-pvtz
}

set_num_threads( 4 )
memory 2 gb

molecule MOL {
0 1

H	 3.741123	 -0.780435	 2.386189
C	 3.245879	 -0.955780	 1.438510
C	 1.945914	 -0.164667	 1.344265
H	 3.934601	 -0.672636	 0.649504
H	 3.066477	 -2.022291	 1.352558
C	 1.215950	 -0.382441	 0.027187
H	 2.145058	 0.894963	 1.459546
H	 1.292203	 -0.447517	 2.165992
N	 0.000002	 0.398953	 -0.040851
H	 1.858413	 -0.077103	 -0.793287
H	 1.027791	 -1.451450	 -0.110292
C	 -1.215959	 -0.382435	 0.027143
H	 -0.000012	 1.086078	 0.683841
C	 -2.451944	 0.502410	 -0.038737
H	 -1.221867	 -1.069392	 -0.813828
H	 -1.259993	 -0.999709	 0.929424
C	 -3.752217	 -0.292550	 0.005776
H	 -2.407325	 1.093801	 -0.946480
H	 -2.431979	 1.206234	 0.790023
H	 -3.817783	 -0.982946	 -0.828547
H	 -4.612613	 0.364348	 -0.042306
H	 -3.830160	 -0.871666	 0.919868

	symmetry c1
}
set optking {
	frozen_dihedral = ("
		10 6 9 12
	")
}

ee,wfn = optimize('scf', return_wfn=True)
oeprop( wfn, 'DIPOLE', 'QUADRUPOLE', 'MULLIKEN_CHARGES')
f=open( 'psi4out.xyz', 'w' )
f.write( "22  " )
f.write( str(ee) + "\n" )
f.write( MOL.save_string_xyz() )
f.close()
--------------------------------------------------------------------------

    Molecular point group: c1
  Charge       = 0
  Multiplicity = 1
  Basis Set: CC-PVTZ
  Basis Set:
  @DF-RHF Final Energy:  -290.48401939658663
    Total Energy =                       -290.4840193965868593
    Molecular point group: c1
  Basis Set: CC-PVTZ
  Basis Set:
  Basis Set: CC-PVTZ
  Basis Set:
  @DF-RHF Final Energy:  -290.48492342765223
    Total Energy =                       -290.4849234276519496
  Basis Set: CC-PVTZ
  Basis Set:
  Basis Set: CC-PVTZ
  Basis Set:
  @DF-RHF Final Energy:  -290.48509272249976
    Total Energy =                       -290.4850927224996440
  Basis Set: CC-PVTZ
  Basis Set:
  Basis Set: CC-PVTZ
  Basis Set:
  @DF-RHF Final Energy:  -290.48510512506556
    Total Energy =                       -290.4851051250656724
  Basis Set: CC-PVTZ
  Basis Set:
  Basis Set: CC-PVTZ
  Basis Set:
  @DF-RHF Final Energy:  -290.48510749745253
    Total Energy =                       -290.4851074974523044
  Basis Set: CC-PVTZ
  Basis Set:
  Charge       = 0
  Multiplicity = 1
  Basis Set: CC-PVTZ
  Basis Set:

    Orbital Energies (a.u.)
    -----------------------

    Doubly Occupied:

       1A    -15.524007     2A    -11.236359     3A    -11.235667
       4A    -11.215464     5A    -11.211350     6A    -11.209614
       7A    -11.207274     8A     -1.202737     9A     -1.060282
      10A     -1.027599    11A     -0.929200    12A     -0.869970
      13A     -0.811652    14A     -0.800716    15A     -0.651983
      16A     -0.644946    17A     -0.615941    18A     -0.606806
      19A     -0.575762    20A     -0.552708    21A     -0.548471
      22A     -0.519240    23A     -0.518067    24A     -0.485944
      25A     -0.485115    26A     -0.476622    27A     -0.471187
      28A     -0.456210    29A     -0.351627

  @DF-RHF Final Energy:  -290.48510771335276

   => Energetics <=

    Nuclear Repulsion Energy =            315.3025223608813690
    One-Electron Energy =               -1016.5702188596015958
    Two-Electron Energy =                 410.7825887853675226
    DFT Exchange-Correlation Energy =       0.0000000000000000
    Empirical Dispersion Energy =           0.0000000000000000
    PCM Polarization Energy =               0.0000000000000000
    EFP Energy =                            0.0000000000000000
    Total Energy =                       -290.4851077133526474
    Molecular point group: c1
  Basis Set: CC-PVTZ
  Basis Set:

  -Total Gradient:
     Atom            X                  Y                   Z
    ------   -----------------  -----------------  -----------------
       1        0.000001997434    -0.000004735666    -0.000002653323
       2        0.000012863452    -0.000000664040     0.000009619785
       3       -0.000039415437     0.000019731931    -0.000025578498
       4       -0.000002983652     0.000006223872    -0.000002433629
       5       -0.000006551375     0.000000434404     0.000002011956
       6        0.000808481423     0.001308522327     0.000603456863
       7        0.000007419936    -0.000010975021     0.000010133777
       8        0.000006685024     0.000002087386     0.000006706074
       9       -0.000190369433    -0.000085731467     0.001497600918
      10       -0.000630021801    -0.001075923378    -0.000887179109
      11       -0.000019806578    -0.000009149775    -0.000008296516
      12        0.000015465992    -0.000149264401    -0.001195116084
      13        0.000016220679    -0.000007424434    -0.000003977557
      14        0.000002903045     0.000011224460     0.000005415137
      15       -0.000009644869    -0.000004573053    -0.000004447271
      16       -0.000001270301     0.000007183314    -0.000001911955
      17        0.000016243098    -0.000009232934    -0.000003537554
      18       -0.000000587105     0.000000015046    -0.000004275962
      19        0.000001813727    -0.000000988454     0.000004134450
      20       -0.000001514605    -0.000001801859    -0.000001409071
      21        0.000011325874     0.000005245315    -0.000000529244
      22        0.000000745469    -0.000000203574     0.000002266816

  **** Optimization is complete! (in 6 steps) ****
    Final optimized geometry and variables:
    Molecular point group: c1

    Geometry (in Angstrom), charge = 0, multiplicity = 1:

    H            3.895182062231    -0.731277195693     1.980395510751
    C            3.392553415780    -0.863552633453     1.029579034796
    C            2.103479626670    -0.051686576714     0.969389162913
    H            4.081067066130    -0.562840237692     0.247158051711
    H            3.194364035113    -1.922931155692     0.905225519586
    C            1.371932786418    -0.196505036242    -0.361190621304
    H            2.331813306793     0.998674987001     1.133400435630
    H            1.441151945096    -0.354070516292     1.775993133504
    N            0.147275868632     0.582953912795    -0.451188274947
    H            2.040851250705     0.079863886066    -1.171849099905
    H            1.132070250168    -1.243486107710    -0.519311474561
    C           -1.088770709071    -0.166977324340    -0.385359587996
    H            0.146024552509     1.316295975808     0.223548097666
    C           -2.297497559044     0.754595051744    -0.448474716791
    H           -1.117253407261    -0.848019152623    -1.230042303668
    H           -1.157061423391    -0.786164863241     0.514198863706
    C           -3.620970160895    -0.001686581941    -0.417245552744
    H           -2.230805747028     1.352379256093    -1.350799461885
    H           -2.260702925897     1.449850939511     0.387000097237
    H           -3.702732894064    -0.682551194631    -1.257908070205
    H           -4.461074906473     0.681102941712    -0.463874333540
    H           -3.720900679254    -0.585826904676     0.491489472047

  Mulliken Charges: (a.u.)
   Center  Symbol    Alpha    Beta     Spin     Total
       1     H     0.44783  0.44783  0.00000  0.10435
       2     C     3.15258  3.15258  0.00000 -0.30516
       3     C     3.08925  3.08925  0.00000 -0.17849
       4     H     0.45407  0.45407  0.00000  0.09186
       5     H     0.45443  0.45443  0.00000  0.09114
       6     C     3.02926  3.02926  0.00000 -0.05851
       7     H     0.45669  0.45669  0.00000  0.08661
       8     H     0.45326  0.45326  0.00000  0.09347
       9     N     3.64542  3.64542  0.00000 -0.29083
      10     H     0.45277  0.45277  0.00000  0.09446
      11     H     0.46233  0.46233  0.00000  0.07533
      12     C     3.02014  3.02014  0.00000 -0.04028
      13     H     0.44348  0.44348  0.00000  0.11305
      14     C     3.08245  3.08245  0.00000 -0.16489
      15     H     0.45859  0.45859  0.00000  0.08283
      16     H     0.47687  0.47687  0.00000  0.04626
      17     C     3.15313  3.15313  0.00000 -0.30626
      18     H     0.44901  0.44901  0.00000  0.10198
      19     H     0.45981  0.45981  0.00000  0.08039
      20     H     0.45475  0.45475  0.00000  0.09049
      21     H     0.44776  0.44776  0.00000  0.10448
      22     H     0.45614  0.45614  0.00000  0.08772

   Total alpha = 29.00000, Total beta = 29.00000, Total charge = -0.00000

*** Psi4 exiting successfully. Buy a developer a beer!
