  ==> Input File <==

--------------------------------------------------------------------------
set {
	reference rhf
	basis 6-31G*
}

set_num_threads( 4 )
memory 2 gb

molecule MOL {
0 1

H	 -2.791217	 -0.466690	 -0.777400
O	 -2.315789	 -0.143634	 -0.024262
C	 -0.945151	 -0.064130	 -0.333158
H	 -0.813375	 -0.223047	 -1.403232
C	 -0.232801	 -1.184051	 0.407206
C	 -0.355424	 1.302939	 0.054523
H	 -0.318824	 -0.992899	 1.473524
H	 -0.742411	 -2.122033	 0.217954
C	 1.248522	 -1.270719	 -0.013048
H	 -0.546144	 2.018388	 -0.742941
H	 -0.890929	 1.656788	 0.930149
C	 1.156425	 1.235120	 0.355905
H	 1.825384	 -1.683246	 0.809111
H	 1.357782	 -1.965923	 -0.840362
C	 1.828244	 0.099899	 -0.419275
H	 1.626109	 2.185622	 0.123525
H	 1.309438	 1.071213	 1.419539
H	 2.901447	 0.112642	 -0.255830
H	 1.681817	 0.263413	 -1.484607

	symmetry c1
}
set optking {
	frozen_dihedral = ("
		1 2 3 4
	")
}

ee = optimize('scf')
oeprop('DIPOLE', 'QUADRUPOLE', 'MULLIKEN_CHARGES')
f=open( 'psi4out.xyz', 'w' )
f.write( "19  " )
f.write( str(ee) + "\n" )
f.write( MOL.save_string_xyz() )
f.close()
--------------------------------------------------------------------------

    Molecular point group: c1
  Charge       = 0
  Multiplicity = 1
  Basis Set: 6-31G*
  Basis Set:
  @DF-RHF Final Energy:  -309.04601837357046
    Total Energy =                       -309.0460183735699502
    Molecular point group: c1
  Basis Set: 6-31G*
  Basis Set:
  Basis Set: 6-31G*
  Basis Set:
  @DF-RHF Final Energy:  -309.04677103343153
    Total Energy =                       -309.0467710334315825
  Basis Set: 6-31G*
  Basis Set:
  Basis Set: 6-31G*
  Basis Set:
  @DF-RHF Final Energy:  -309.04692997795229
    Total Energy =                       -309.0469299779523453
  Basis Set: 6-31G*
  Basis Set:
  Charge       = 0
  Multiplicity = 1
  Basis Set: 6-31G*
  Basis Set:

    Orbital Energies (a.u.)
    -----------------------

    Doubly Occupied:

       1A    -20.548950     2A    -11.270158     3A    -11.215317
       4A    -11.214644     5A    -11.213407     6A    -11.207945
       7A    -11.207728     8A     -1.357294     9A     -1.107104
      10A     -0.999374    11A     -0.987874    12A     -0.841962
      13A     -0.831072    14A     -0.730638    15A     -0.711829
      16A     -0.653130    17A     -0.622051    18A     -0.595185
      19A     -0.559643    20A     -0.542954    21A     -0.538507
      22A     -0.516738    23A     -0.496577    24A     -0.486492
      25A     -0.462339    26A     -0.448777    27A     -0.430127
      28A     -0.404875

  @DF-RHF Final Energy:  -309.04693260958686

   => Energetics <=

    Nuclear Repulsion Energy =            331.0609637863543639
    One-Electron Energy =               -1075.8104117502498411
    Two-Electron Energy =                 435.7025153543084457
    DFT Exchange-Correlation Energy =       0.0000000000000000
    Empirical Dispersion Energy =           0.0000000000000000
    PCM Polarization Energy =               0.0000000000000000
    EFP Energy =                            0.0000000000000000
    Total Energy =                       -309.0469326095870315
    Molecular point group: c1
  Basis Set: 6-31G*
  Basis Set:

  -Total Gradient:
     Atom            X                  Y                   Z
    ------   -----------------  -----------------  -----------------
       1       -0.000093619157     0.001254339630    -0.000432367569
       2        0.000236143740    -0.001823908056     0.000552461262
       3       -0.000151994360     0.001778004968    -0.000310555375
       4        0.000009690966    -0.001078170539     0.000194267797
       5        0.000065072851     0.000055834371     0.000055342396
       6       -0.000087700975     0.000012528630    -0.000042304541
       7       -0.000020368225    -0.000010491745     0.000025302134
       8       -0.000018271434    -0.000000270116    -0.000009065842
       9        0.000000524358     0.000049897264    -0.000031326607
      10       -0.000045306233    -0.000011439905    -0.000015464877
      11       -0.000012802990    -0.000050143678    -0.000028167944
      12        0.000010978514    -0.000105728708     0.000050791885
      13        0.000021323383     0.000020516861    -0.000003160477
      14        0.000039482558     0.000043053164    -0.000006778822
      15        0.000023372576    -0.000034650362     0.000009641036
      16        0.000006563127    -0.000021776640    -0.000016960749
      17        0.000006531056     0.000000011179     0.000024166969
      18        0.000014798681    -0.000032949026     0.000000070298
      19       -0.000004418433    -0.000044657294    -0.000015890973

  **** Optimization is complete! (in 4 steps) ****
    Final optimized geometry and variables:
    Molecular point group: c1

    Geometry (in Angstrom), charge = 0, multiplicity = 1:

    H           -2.826898608565    -0.376590945394    -0.754407876760
    O           -2.322534839404    -0.078952378826    -0.013084832916
    C           -0.946362682435    -0.071780786541    -0.330484447936
    H           -0.825840466135    -0.239745589064    -1.399171331929
    C           -0.220131340274    -1.190746808437     0.407195549684
    C           -0.362621295171     1.296231696007     0.045361188835
    H           -0.309934176993    -1.003668511955     1.473946236685
    H           -0.719757573539    -2.135744243672     0.218524086412
    C            1.263353986571    -1.266808085813    -0.009434526742
    H           -0.556559280775     1.999900263695    -0.759350980242
    H           -0.911164184862     1.655073192853     0.909501899526
    C            1.145826122030     1.235782815745     0.360625972773
    H            1.842347968679    -1.674270935533     0.813848449473
    H            1.381304489183    -1.961342405289    -0.836486779475
    C            1.831981900005     0.108866290553    -0.413784014666
    H            1.611249258038     2.190433890235     0.136158177686
    H            1.292751053242     1.068649872954     1.424914135205
    H            2.904809726315     0.130207020554    -0.248493313966
    H            1.686129790090     0.271981284545    -1.479531768197

  Mulliken Charges: (a.u.)
   Center  Symbol    Alpha    Beta     Spin     Total
       1     H     0.28050  0.28050  0.00000  0.43900
       2     O     4.38037  4.38037  0.00000 -0.76074
       3     C     2.91451  2.91451  0.00000  0.17098
       4     H     0.43053  0.43053  0.00000  0.13893
       5     C     3.16505  3.16505  0.00000 -0.33011
       6     C     3.16206  3.16206  0.00000 -0.32412
       7     H     0.41586  0.41586  0.00000  0.16829
       8     H     0.41798  0.41798  0.00000  0.16405
       9     C     3.16132  3.16132  0.00000 -0.32263
      10     H     0.42070  0.42070  0.00000  0.15860
      11     H     0.40803  0.40803  0.00000  0.18393
      12     C     3.16504  3.16504  0.00000 -0.33008
      13     H     0.41778  0.41778  0.00000  0.16444
      14     H     0.42030  0.42030  0.00000  0.15940
      15     C     3.16370  3.16370  0.00000 -0.32739
      16     H     0.41706  0.41706  0.00000  0.16588
      17     H     0.41949  0.41949  0.00000  0.16103
      18     H     0.41683  0.41683  0.00000  0.16635
      19     H     0.42291  0.42291  0.00000  0.15419

   Total alpha = 28.00000, Total beta = 28.00000, Total charge =  0.00000
