                              Psi4 1.0.54 Driver

  ==> Input File <==

--------------------------------------------------------------------------
set {
	reference rhf
	basis cc-pvtz
}

set_num_threads( 4 )
memory 2 gb

molecule MOL {
0 1

O	 1.240595	 -2.513123	 -1.085586
C	 0.368834	 -1.894857	 -0.577985
C	 -1.066652	 -2.330425	 -0.505085
O	 0.550743	 -0.719877	 0.000412
H	 -1.375152	 -2.391870	 0.530510
H	 -1.177922	 -3.289553	 -0.983859
H	 -1.694080	 -1.595048	 -0.991904
C	 1.863204	 -0.194033	 0.000410
H	 2.031502	 0.409177	 -0.879273
H	 2.524488	 -1.045142	 0.000793
H	 2.031291	 0.409823	 0.879686

	symmetry c1
}
set optking {
	frozen_dihedral = ("
		2 4 8 9
	")
}

ee,wfn = optimize('scf', return_wfn=True)
oeprop( wfn, 'DIPOLE', 'QUADRUPOLE', 'MULLIKEN_CHARGES')
f=open( 'psi4out.xyz', 'w' )
f.write( "11  " )
f.write( str(ee) + "\n" )
f.write( MOL.save_string_xyz() )
f.close()
--------------------------------------------------------------------------

    Molecular point group: c1
  Charge       = 0
  Multiplicity = 1
  Basis Set: CC-PVTZ
  Basis Set:
  @DF-RHF Final Energy:  -266.93637877408099
    Total Energy =                       -266.9363787740809926
    Molecular point group: c1
  Basis Set: CC-PVTZ
  Basis Set:
  Basis Set: CC-PVTZ
  Basis Set:
  @DF-RHF Final Energy:  -266.90542322048822
    Total Energy =                       -266.9054232204883306
  Basis Set: CC-PVTZ
  Basis Set:
  Basis Set: CC-PVTZ
  Basis Set:
  @DF-RHF Final Energy:  -266.93756390468349
    Total Energy =                       -266.9375639046835431
  Basis Set: CC-PVTZ
  Basis Set:
  Basis Set: CC-PVTZ
  Basis Set:
  @DF-RHF Final Energy:  -266.93813212537259
    Total Energy =                       -266.9381321253728174
  Basis Set: CC-PVTZ
  Basis Set:
  Basis Set: CC-PVTZ
  Basis Set:
  @DF-RHF Final Energy:  -266.93636558107960
    Total Energy =                       -266.9363655810795422
  Basis Set: CC-PVTZ
  Basis Set:
  Basis Set: CC-PVTZ
  Basis Set:
  @DF-RHF Final Energy:  -266.93817760732560
    Total Energy =                       -266.9381776073253718
  Basis Set: CC-PVTZ
  Basis Set:
  Basis Set: CC-PVTZ
  Basis Set:
  @DF-RHF Final Energy:  -266.93818740137306
    Total Energy =                       -266.9381874013729998
  Basis Set: CC-PVTZ
  Basis Set:
  Charge       = 0
  Multiplicity = 1
  Basis Set: CC-PVTZ
  Basis Set:

    Orbital Energies (a.u.)
    -----------------------

    Doubly Occupied:

       1A    -20.598281     2A    -20.534851     3A    -11.369445
       4A    -11.279369     5A    -11.232897     6A     -1.472928
       7A     -1.367935     8A     -1.036998     9A     -0.954053
      10A     -0.779579    11A     -0.698781    12A     -0.683310
      13A     -0.681084    14A     -0.597083    15A     -0.592995
      16A     -0.561738    17A     -0.529049    18A     -0.522870
      19A     -0.460693    20A     -0.445714

  @DF-RHF Final Energy:  -266.93818772777445

   => Energetics <=

    Nuclear Repulsion Energy =            183.4505908470616475
    One-Electron Energy =                -727.9782510168070075
    Two-Electron Energy =                 277.5894724419709974
    DFT Exchange-Correlation Energy =       0.0000000000000000
    Empirical Dispersion Energy =           0.0000000000000000
    PCM Polarization Energy =               0.0000000000000000
    EFP Energy =                            0.0000000000000000
    Total Energy =                       -266.9381877277743342
    Molecular point group: c1
  Basis Set: CC-PVTZ
  Basis Set:

  -Total Gradient:
     Atom            X                  Y                   Z
    ------   -----------------  -----------------  -----------------
       1       -0.000021399133     0.000016521974     0.000031853076
       2        0.000536922975    -0.000993683910     0.000841430776
       3       -0.000016004687    -0.000015792790     0.000005832739
       4       -0.000895538398     0.001596383816    -0.000880913451
       5        0.000007455183     0.000010083368    -0.000019080746
       6        0.000000444098     0.000003854505     0.000003253119
       7        0.000004261423    -0.000003141247    -0.000005523149
       8        0.000669376915    -0.001493342369    -0.001271394878
       9       -0.000298971103     0.000896017120     0.001296241475
      10        0.000011220924    -0.000018490002    -0.000006465209
      11        0.000002231807     0.000001589534     0.000004766249

  **** Optimization is complete! (in 8 steps) ****
    Final optimized geometry and variables:
    Molecular point group: c1

    Geometry (in Angstrom), charge = 0, multiplicity = 1:

    O            0.423927654775    -0.648994525803    -1.120062204369
    C           -0.271606320568    -0.321918682237    -0.220830810093
    C           -1.640667680210    -0.877279045395     0.050581412099
    O            0.064266711898     0.589398546316     0.677219405730
    H           -1.661712053222    -1.325613177317     1.035392853540
    H           -1.887432263515    -1.611987701070    -0.698300954707
    H           -2.366216513831    -0.074272699165     0.039338243019
    C            1.341323120249     1.190923963324     0.583810403574
    H            1.285368326182     2.075590552687    -0.035314222131
    H            2.063854324955     0.504299545852     0.175872906256
    H            1.616353627654     1.476329215416     1.587047707831

  Mulliken Charges: (a.u.)
   Center  Symbol    Alpha    Beta     Spin     Total
       1     O     4.19704  4.19704  0.00000 -0.39408
       2     C     2.79981  2.79981  0.00000  0.40037
       3     C     3.13900  3.13900  0.00000 -0.27801
       4     O     4.14883  4.14883  0.00000 -0.29766
       5     H     0.44577  0.44577  0.00000  0.10845
       6     H     0.43791  0.43791  0.00000  0.12418
       7     H     0.44524  0.44524  0.00000  0.10951
       8     C     3.03433  3.03433  0.00000 -0.06867
       9     H     0.45645  0.45645  0.00000  0.08709
      10     H     0.44754  0.44754  0.00000  0.10492
      11     H     0.44806  0.44806  0.00000  0.10388

   Total alpha = 20.00000, Total beta = 20.00000, Total charge = -0.00000

*** Psi4 exiting successfully. Buy a developer a beer!
