  ==> Input File <==

--------------------------------------------------------------------------
set {
	reference rhf
	basis 6-31G*
}

set_num_threads( 4 )
memory 2 gb

molecule MOL {
0 1

H	 -2.646374	 -0.642757	 1.268656
C	 -2.083525	 -0.384536	 0.393091
O	 -0.807605	 -0.127164	 0.768327
F	 -2.118945	 -1.383102	 -0.486752
F	 -2.621877	 0.670592	 -0.209486
C	 -0.307461	 -0.808120	 1.863243
C	 0.384720	 0.220286	 2.748356
Cl	 0.833558	 -2.064994	 1.357715
H	 -1.082379	 -1.283208	 2.439063
F	 0.877418	 -0.356389	 3.823919
F	 -0.503442	 1.114653	 3.133989
F	 1.353551	 0.841137	 2.120754

	symmetry c1
}
set optking {
	frozen_dihedral = ("
		6 3 2 4
	")
}

ee = optimize('scf')
oeprop('DIPOLE', 'QUADRUPOLE', 'MULLIKEN_CHARGES')
f=open( 'psi4out.xyz', 'w' )
f.write( "12  " )
f.write( str(ee) + "\n" )
f.write( MOL.save_string_xyz() )
f.close()
--------------------------------------------------------------------------

    Molecular point group: c1
  Charge       = 0
  Multiplicity = 1
  Basis Set: 6-31G*
  Basis Set:
  @DF-RHF Final Energy: -1146.30633250031246
    Total Energy =                      -1146.3063325003129194
    Molecular point group: c1
  Basis Set: 6-31G*
  Basis Set:
  Basis Set: 6-31G*
  Basis Set:
  @DF-RHF Final Energy: -1146.30795365814652
    Total Energy =                      -1146.3079536581467437
  Basis Set: 6-31G*
  Basis Set:
  Basis Set: 6-31G*
  Basis Set:
  @DF-RHF Final Energy: -1146.30850403805630
    Total Energy =                      -1146.3085040380569808
  Basis Set: 6-31G*
  Basis Set:
  Basis Set: 6-31G*
  Basis Set:
  @DF-RHF Final Energy: -1146.30863467293830
    Total Energy =                      -1146.3086346729392062
  Basis Set: 6-31G*
  Basis Set:
  @DF-RHF Final Energy: -1146.30883976195173
    Total Energy =                      -1146.3088397619510488
  @DF-RHF Final Energy: -1146.30890888696058
    Total Energy =                      -1146.3089088869603529
  Basis Set: 6-31G*
  Basis Set:
  @DF-RHF Final Energy: -1146.30893210277895
    Total Energy =                      -1146.3089321027791812
  Basis Set: 6-31G*
  Basis Set:
  Basis Set: 6-31G*
  Basis Set:
  @DF-RHF Final Energy: -1146.30893791182143
    Total Energy =                      -1146.3089379118218858
  Basis Set: 6-31G*
  Basis Set:
  Basis Set: 6-31G*
  Basis Set:
  @DF-RHF Final Energy: -1146.30893978363429
    Total Energy =                      -1146.3089397836333774
  Basis Set: 6-31G*
  Basis Set:
  Charge       = 0
  Multiplicity = 1
  Basis Set: 6-31G*
  Basis Set:

    Orbital Energies (a.u.)
    -----------------------

    Doubly Occupied:

       1A   -104.848194     2A    -26.364502     3A    -26.363042
       4A    -26.361533     5A    -26.343394     6A    -26.339491
       7A    -20.651690     8A    -11.533038     9A    -11.491264
      10A    -11.409638    11A    -10.583028    12A     -8.052360
      13A     -8.048832    14A     -8.048742    15A     -1.765723
      16A     -1.715045    17A     -1.662058    18A     -1.660697
      19A     -1.636278    20A     -1.490639    21A     -1.181803
      22A     -1.057022    23A     -0.984407    24A     -0.932076
      25A     -0.860453    26A     -0.858009    27A     -0.848804
      28A     -0.823869    29A     -0.808432    30A     -0.793113
      31A     -0.732381    32A     -0.728255    33A     -0.702373
      34A     -0.691106    35A     -0.682735    36A     -0.677615
      37A     -0.662085    38A     -0.657678    39A     -0.650911
      40A     -0.641015    41A     -0.613630    42A     -0.564183
      43A     -0.523311    44A     -0.481746    45A     -0.474731

  @DF-RHF Final Energy: -1146.30893989589595

   => Energetics <=

    Nuclear Repulsion Energy =            727.1748400487755362
    One-Electron Energy =               -3036.9657038692403148
    Two-Electron Energy =                1163.4819239245682638
    DFT Exchange-Correlation Energy =       0.0000000000000000
    Empirical Dispersion Energy =           0.0000000000000000
    PCM Polarization Energy =               0.0000000000000000
    EFP Energy =                            0.0000000000000000
    Total Energy =                      -1146.3089398958966285
    Molecular point group: c1
  Basis Set: 6-31G*
  Basis Set:

  -Total Gradient:
     Atom            X                  Y                   Z
    ------   -----------------  -----------------  -----------------
       1        0.000002012546     0.000010723310     0.000013514518
       2       -0.000141276318    -0.000458605813     0.000672368556
       3        0.000408915351    -0.000320532539    -0.000726805335
       4        0.000027843821     0.000417389240    -0.000373999446
       5       -0.000001215560     0.000034315715     0.000013787661
       6       -0.000296734209     0.000329746666     0.000392167083
       7       -0.000013555800     0.000001551410     0.000032650104
       8       -0.000002017456    -0.000000999221     0.000002052427
       9        0.000000886012    -0.000002477141     0.000001570493
      10        0.000009998437    -0.000022607190     0.000013365349
      11        0.000012685167    -0.000005381616    -0.000028897977
      12       -0.000007542054     0.000016877178    -0.000011773424

  **** Optimization is complete! (in 10 steps) ****
    Final optimized geometry and variables:
    Molecular point group: c1

    Geometry (in Angstrom), charge = 0, multiplicity = 1:

    H           -2.361778694849    -0.561031731508    -0.470633954006
    C           -1.721753109209    -0.070642147089    -1.187368378953
    O           -0.553033483298     0.357670147738    -0.635901994042
    F           -1.481330268939    -0.902754310663    -2.189964178336
    F           -2.329101804218     0.991049410994    -1.677787586008
    C           -0.008235273762    -0.362463826293     0.395784625269
    C            0.829350489356     0.614229064619     1.214059679231
    CL           0.988828101380    -1.718136517123    -0.172828696284
    H           -0.763357937724    -0.777642689317     1.046615050887
    F            1.364797661239    -0.000730889902     2.247020462816
    F            0.042403661287     1.567434261883     1.670959485805
    F            1.783430493278     1.162924231236     0.505851183139

  Mulliken Charges: (a.u.)
   Center  Symbol    Alpha    Beta     Spin     Total
       1     H     0.42394  0.42394  0.00000  0.15213
       2     C     2.56549  2.56549  0.00000  0.86902
       3     O     4.29583  4.29583  0.00000 -0.59165
       4     F     4.67577  4.67577  0.00000 -0.35154
       5     F     4.67153  4.67153  0.00000 -0.34307
       6     C     3.04019  3.04019  0.00000 -0.08037
       7     C     2.42983  2.42983  0.00000  1.14033
       8    CL     8.50128  8.50128  0.00000 -0.00256
       9     H     0.37969  0.37969  0.00000  0.24062
      10     F     4.67441  4.67441  0.00000 -0.34882
      11     F     4.67601  4.67601  0.00000 -0.35201
      12     F     4.66604  4.66604  0.00000 -0.33208

   Total alpha = 45.00000, Total beta = 45.00000, Total charge =  0.00000
