  ==> Input File <==

--------------------------------------------------------------------------
set {
	reference rhf
	basis 6-31G*
}

set_num_threads( 4 )
memory 2 gb

molecule MOL {
0 1

H	 -1.100110	 -1.848552	 0.276788
C	 -1.559770	 -0.872115	 0.164431
N	 -0.528168	 0.128977	 -0.000000
H	 -2.125407	 -0.667827	 1.066294
H	 -2.259195	 -0.928389	 -0.673963
C	 0.248044	 -0.037491	 -1.209632
H	 -0.937144	 1.041938	 0.016467
H	 0.998722	 0.743888	 -1.266824
H	 -0.398417	 0.061950	 -2.074060
H	 0.763621	 -0.999315	 -1.275517

	symmetry c1
}
set optking {
	frozen_dihedral = ("
		2 3 6 8
	")
}

ee = optimize('scf')
oeprop('DIPOLE', 'QUADRUPOLE', 'MULLIKEN_CHARGES')
f=open( 'psi4out.xyz', 'w' )
f.write( "10  " )
f.write( str(ee) + "\n" )
f.write( MOL.save_string_xyz() )
f.close()
--------------------------------------------------------------------------

    Molecular point group: c1
  Charge       = 0
  Multiplicity = 1
  Basis Set: 6-31G*
  Basis Set:
  @DF-RHF Final Energy:  -134.23726669225189
    Total Energy =                       -134.2372666922518647
    Molecular point group: c1
  Basis Set: 6-31G*
  Basis Set:
  Basis Set: 6-31G*
  Basis Set:
  @DF-RHF Final Energy:  -134.23858364637937
    Total Energy =                       -134.2385836463794817
  Basis Set: 6-31G*
  Basis Set:
  Basis Set: 6-31G*
  Basis Set:
  @DF-RHF Final Energy:  -134.23877527916775
    Total Energy =                       -134.2387752791678679
  Basis Set: 6-31G*
  Basis Set:
  Charge       = 0
  Multiplicity = 1
  Basis Set: 6-31G*
  Basis Set:

    Orbital Energies (a.u.)
    -----------------------

    Doubly Occupied:

       1A    -15.538116     2A    -11.236034     3A    -11.235972
       4A     -1.199615     5A     -0.947850     6A     -0.854262
       7A     -0.662112     8A     -0.612158     9A     -0.591618
      10A     -0.539435    11A     -0.510812    12A     -0.506799
      13A     -0.361449

  @DF-RHF Final Energy:  -134.23877704791215

   => Energetics <=

    Nuclear Repulsion Energy =             84.6609460200377839
    One-Electron Energy =                -348.2069810634111491
    Two-Electron Energy =                 129.3072579954612138
    DFT Exchange-Correlation Energy =       0.0000000000000000
    Empirical Dispersion Energy =           0.0000000000000000
    PCM Polarization Energy =               0.0000000000000000
    EFP Energy =                            0.0000000000000000
    Total Energy =                       -134.2387770479121514
    Molecular point group: c1
  Basis Set: 6-31G*
  Basis Set:

  -Total Gradient:
     Atom            X                  Y                   Z
    ------   -----------------  -----------------  -----------------
       1       -0.000000312654     0.000001505463    -0.000002258846
       2        0.000209217040    -0.000259569871     0.000079849652
       3       -0.000123771426     0.000225308171    -0.000157230502
       4        0.000009803203     0.000018199143     0.000007567391
       5        0.000015435359     0.000010939454     0.000013788971
       6       -0.000315379237     0.000276199657    -0.000260430138
       7        0.000034211937    -0.000006473352    -0.000065428667
       8        0.000235467099    -0.000254867217     0.000277154925
       9       -0.000040013557     0.000006064046     0.000028397945
      10       -0.000024657763    -0.000017305495     0.000078589269

  **** Optimization is complete! (in 4 steps) ****
    Final optimized geometry and variables:
    Molecular point group: c1

    Geometry (in Angstrom), charge = 0, multiplicity = 1:

    H           -0.476082076497    -1.595957795562     0.617438983285
    C           -0.930756111027    -0.614607533238     0.531147936120
    N            0.105097846092     0.382734778408     0.371175265431
    H           -1.481466023805    -0.424412283178     1.445258366319
    H           -1.643203549129    -0.649874492509    -0.297354911472
    C            0.862730619185     0.235439012461    -0.852305739260
    H           -0.295515834266     1.298600430434     0.413605579903
    H            1.618316533982     1.010619134634    -0.908794282984
    H            0.253548466278     0.279399718631    -1.758941248915
    H            1.374104074882    -0.721531164383    -0.844480692558

  Mulliken Charges: (a.u.)
   Center  Symbol    Alpha    Beta     Spin     Total
       1     H     0.41804  0.41804  0.00000  0.16392
       2     C     3.14522  3.14522  0.00000 -0.29044
       3     N     3.83807  3.83807  0.00000 -0.67614
       4     H     0.41674  0.41674  0.00000  0.16653
       5     H     0.43470  0.43470  0.00000  0.13060
       6     C     3.14531  3.14531  0.00000 -0.29061
       7     H     0.33261  0.33261  0.00000  0.33478
       8     H     0.41651  0.41651  0.00000  0.16698
       9     H     0.43456  0.43456  0.00000  0.13088
      10     H     0.41825  0.41825  0.00000  0.16350

   Total alpha = 13.00000, Total beta = 13.00000, Total charge =  0.00000
