                              Psi4 1.0.54 Driver

  ==> Input File <==

--------------------------------------------------------------------------
set {
	reference rhf
	basis cc-pvtz
}

set_num_threads( 4 )
memory 2 gb

molecule MOL {
0 1

O	 1.127672	 -0.349825	 -0.111557
C	 0.029490	 0.077183	 0.000078
C	 -1.232113	 -0.748027	 0.000015
O	 -0.237283	 1.364736	 0.142456
C	 -2.501422	 0.088592	 -0.000052
H	 -1.188777	 -1.400384	 -0.865133
H	 -1.188857	 -1.400312	 0.865225
H	 -2.548170	 0.725504	 -0.873205
H	 -3.371613	 -0.556398	 -0.000040
H	 -2.548215	 0.725571	 0.873047
C	 0.859087	 2.256542	 0.159669
H	 1.522499	 2.029254	 0.980924
H	 0.439590	 3.241899	 0.281812
H	 1.411892	 2.198783	 -0.766244

	symmetry c1
}
set optking {
	frozen_dihedral = ("
		4 2 3 6
	")
}

ee,wfn = optimize('scf', return_wfn=True)
oeprop( wfn, 'DIPOLE', 'QUADRUPOLE', 'MULLIKEN_CHARGES')
f=open( 'psi4out.xyz', 'w' )
f.write( "14  " )
f.write( str(ee) + "\n" )
f.write( MOL.save_string_xyz() )
f.close()
--------------------------------------------------------------------------

    Molecular point group: c1
  Charge       = 0
  Multiplicity = 1
  Basis Set: CC-PVTZ
  Basis Set:
  @DF-RHF Final Energy:  -305.98376292495055
    Total Energy =                       -305.9837629249506676
    Molecular point group: c1
  Basis Set: CC-PVTZ
  Basis Set:
  Basis Set: CC-PVTZ
  Basis Set:
  @DF-RHF Final Energy:  -305.98463285513390
    Total Energy =                       -305.9846328551338956
  Basis Set: CC-PVTZ
  Basis Set:
  Basis Set: CC-PVTZ
  Basis Set:
  @DF-RHF Final Energy:  -305.98508411934114
    Total Energy =                       -305.9850841193407973
  Basis Set: CC-PVTZ
  Basis Set:
  Basis Set: CC-PVTZ
  Basis Set:
  @DF-RHF Final Energy:  -305.98510132908314
    Total Energy =                       -305.9851013290829655
  Basis Set: CC-PVTZ
  Basis Set:
  Basis Set: CC-PVTZ
  Basis Set:
  @DF-RHF Final Energy:  -305.98505409032146
    Total Energy =                       -305.9850540903216825
  Basis Set: CC-PVTZ
  Basis Set:
  Charge       = 0
  Multiplicity = 1
  Basis Set: CC-PVTZ
  Basis Set:

    Orbital Energies (a.u.)
    -----------------------

    Doubly Occupied:

       1A    -20.600308     2A    -20.530041     3A    -11.365645
       4A    -11.280129     5A    -11.237532     6A    -11.219254
       7A     -1.474282     8A     -1.364941     9A     -1.066966
      10A     -0.976317    11A     -0.888293    12A     -0.777482
      13A     -0.697063    14A     -0.686523    15A     -0.675045
      16A     -0.622462    17A     -0.587245    18A     -0.559117
      19A     -0.549491    20A     -0.524148    21A     -0.517647
      22A     -0.500410    23A     -0.457415    24A     -0.437048

  @DF-RHF Final Energy:  -305.98510457769339

   => Energetics <=

    Nuclear Repulsion Energy =            248.8631981925200591
    One-Electron Energy =                -910.5070053816832569
    Two-Electron Energy =                 355.6587026114699484
    DFT Exchange-Correlation Energy =       0.0000000000000000
    Empirical Dispersion Energy =           0.0000000000000000
    PCM Polarization Energy =               0.0000000000000000
    EFP Energy =                            0.0000000000000000
    Total Energy =                       -305.9851045776932779
    Molecular point group: c1
  Basis Set: CC-PVTZ
  Basis Set:

  -Total Gradient:
     Atom            X                  Y                   Z
    ------   -----------------  -----------------  -----------------
       1       -0.000066095252    -0.000007430757     0.000010173943
       2        0.000087691119    -0.000134861364     0.000166816404
       3        0.000135439743    -0.000136103056     0.000066983140
       4       -0.000045711083     0.000180464106    -0.000141762031
       5        0.000012593168     0.000008857560    -0.000001362518
       6       -0.000090039149     0.000126734431    -0.000106976934
       7       -0.000001579382    -0.000015385833     0.000007180880
       8       -0.000002777164    -0.000000087118     0.000007684175
       9       -0.000003758994     0.000007043161     0.000001672678
      10        0.000000676321     0.000003374775    -0.000006971707
      11       -0.000030901739    -0.000053314179    -0.000005805929
      12        0.000007935865     0.000009442299     0.000004382373
      13       -0.000013447643    -0.000002720508    -0.000000347855
      14        0.000009974190     0.000013986485    -0.000001666621

  **** Optimization is complete! (in 6 steps) ****
    Final optimized geometry and variables:
    Molecular point group: c1

    Geometry (in Angstrom), charge = 0, multiplicity = 1:

    O            1.420960190229    -0.820127743318    -0.139333214985
    C            0.332630002378    -0.364158469599    -0.034876347667
    C           -0.918896701334    -1.212140424213    -0.038304252312
    O            0.101564371656     0.927698258565     0.102669217137
    C           -2.250842590223    -0.474531219336    -0.024066636870
    H           -0.839074093674    -1.852987071627    -0.907728466547
    H           -0.832654978133    -1.867202609663     0.821435478168
    H           -2.356036158777     0.169371546032    -0.887493265080
    H           -3.063835244676    -1.190236729690    -0.037260165793
    H           -2.355564811245     0.138755415191     0.860675881290
    C            1.224251097315     1.787118349170     0.125372387327
    H            1.874488018220     1.541108174462     0.951449133606
    H            0.832347100060     2.784361469089     0.242470697982
    H            1.780786683878     1.709578462804    -0.796546389818

  Mulliken Charges: (a.u.)
   Center  Symbol    Alpha    Beta     Spin     Total
       1     O     4.20479  4.20479  0.00000 -0.40958
       2     C     2.80442  2.80442  0.00000  0.39115
       3     C     3.09194  3.09194  0.00000 -0.18389
       4     O     4.14149  4.14149  0.00000 -0.28299
       5     C     3.13973  3.13973  0.00000 -0.27947
       6     H     0.43798  0.43798  0.00000  0.12404
       7     H     0.44041  0.44041  0.00000  0.11918
       8     H     0.45048  0.45048  0.00000  0.09904
       9     H     0.44948  0.44948  0.00000  0.10103
      10     H     0.44959  0.44959  0.00000  0.10083
      11     C     3.03636  3.03636  0.00000 -0.07273
      12     H     0.45330  0.45330  0.00000  0.09340
      13     H     0.44680  0.44680  0.00000  0.10641
      14     H     0.45321  0.45321  0.00000  0.09358

   Total alpha = 24.00000, Total beta = 24.00000, Total charge =  0.00000

*** Psi4 exiting successfully. Buy a developer a beer!
