                              Psi4 1.0.54 Driver

  ==> Input File <==

--------------------------------------------------------------------------
set {
	reference rhf
	basis cc-pvtz
}

set_num_threads( 4 )
memory 2 gb

molecule MOL {
0 1

H	 3.181736	 -1.433987	 2.713146
O	 3.891526	 -1.498065	 2.101654
C	 3.606786	 -2.466555	 1.126860
C	 2.545691	 -2.028441	 0.128451
H	 4.538869	 -2.646844	 0.608499
H	 3.313256	 -3.403211	 1.596929
C	 1.158694	 -1.827616	 0.734882
H	 2.875125	 -1.107910	 -0.344045
H	 2.490767	 -2.782445	 -0.653124
C	 0.113298	 -1.420414	 -0.302504
H	 1.212445	 -1.070529	 1.510081
H	 0.840423	 -2.749333	 1.219059
C	 -1.311023	 -1.277304	 0.237018
H	 0.416711	 -0.485258	 -0.766885
H	 0.106843	 -2.162980	 -1.095614
C	 -2.041121	 -0.006551	 -0.194127
H	 -1.888548	 -2.136293	 -0.093331
H	 -1.289731	 -1.328757	 1.323321
C	 -3.489218	 0.042606	 0.286507
H	 -2.022185	 0.066287	 -1.279394
H	 -1.518764	 0.869305	 0.178730
C	 -4.219984	 1.311773	 -0.139038
H	 -4.022855	 -0.824300	 -0.093339
H	 -3.510372	 -0.038577	 1.370031
H	 -4.244251	 1.405725	 -1.219696
H	 -5.244345	 1.313233	 0.215630
H	 -3.732090	 2.196311	 0.257073

	symmetry c1
}
set optking {
	frozen_dihedral = ("
		14 10 13 16
	")
}

ee,wfn = optimize('scf', return_wfn=True)
oeprop( wfn, 'DIPOLE', 'QUADRUPOLE', 'MULLIKEN_CHARGES')
f=open( 'psi4out.xyz', 'w' )
f.write( "27  " )
f.write( str(ee) + "\n" )
f.write( MOL.save_string_xyz() )
f.close()
--------------------------------------------------------------------------

    Molecular point group: c1
  Charge       = 0
  Multiplicity = 1
  Basis Set: CC-PVTZ
  Basis Set:
  @DF-RHF Final Energy:  -388.42429131397961
    Total Energy =                       -388.4242913139804614
    Molecular point group: c1
  Basis Set: CC-PVTZ
  Basis Set:
  Basis Set: CC-PVTZ
  Basis Set:
  @DF-RHF Final Energy:  -388.42466953520955
    Total Energy =                       -388.4246695352095458
  Basis Set: CC-PVTZ
  Basis Set:
  Basis Set: CC-PVTZ
  Basis Set:
  @DF-RHF Final Energy:  -388.42482173387134
    Total Energy =                       -388.4248217338715676
  Basis Set: CC-PVTZ
  Basis Set:
  Basis Set: CC-PVTZ
  Basis Set:
  @DF-RHF Final Energy:  -388.42482434319186
    Total Energy =                       -388.4248243431919718
  Basis Set: CC-PVTZ
  Basis Set:
  Charge       = 0
  Multiplicity = 1
  Basis Set: CC-PVTZ
  Basis Set:

    Orbital Energies (a.u.)
    -----------------------

    Doubly Occupied:

       1A    -20.545303     2A    -11.265101     3A    -11.217947
       4A    -11.214026     5A    -11.213362     6A    -11.213252
       7A    -11.212712     8A    -11.211952     9A    -11.206840
      10A     -1.363208    11A     -1.094732    12A     -1.063537
      13A     -1.011790    14A     -0.951344    15A     -0.883274
      16A     -0.821224    17A     -0.792794    18A     -0.790657
      19A     -0.696662    20A     -0.653011    21A     -0.639723
      22A     -0.614272    23A     -0.600700    24A     -0.588006
      25A     -0.575859    26A     -0.553221    27A     -0.543665
      28A     -0.522575    29A     -0.510778    30A     -0.488187
      31A     -0.485981    32A     -0.477038    33A     -0.469302
      34A     -0.461931    35A     -0.455016    36A     -0.443925
      37A     -0.422859

  @DF-RHF Final Energy:  -388.42482527711593

   => Energetics <=

    Nuclear Repulsion Energy =            453.2231072789617201
    One-Electron Energy =               -1424.7443328686954374
    Two-Electron Energy =                 583.0964003126176749
    DFT Exchange-Correlation Energy =       0.0000000000000000
    Empirical Dispersion Energy =           0.0000000000000000
    PCM Polarization Energy =               0.0000000000000000
    EFP Energy =                            0.0000000000000000
    Total Energy =                       -388.4248252771160423
    Molecular point group: c1
  Basis Set: CC-PVTZ
  Basis Set:

  -Total Gradient:
     Atom            X                  Y                   Z
    ------   -----------------  -----------------  -----------------
       1        0.000029356430     0.000018379109     0.000013593104
       2       -0.000016282851     0.000062652060     0.000074760684
       3        0.000011241965    -0.000023712557    -0.000030510913
       4        0.000044670501    -0.000017046395    -0.000010894350
       5       -0.000014323669    -0.000025420861    -0.000015759166
       6       -0.000002637939    -0.000012337887    -0.000028417363
       7        0.000030664425     0.000005856614     0.000000126811
       8        0.000015807061    -0.000004618099     0.000004910263
       9       -0.000002808522     0.000005951832    -0.000014230348
      10        0.001522608603     0.001496185832     0.003615323688
      11       -0.000026810957     0.000002805784    -0.000031533302
      12       -0.000045121160     0.000006065841    -0.000009135095
      13       -0.001237838639    -0.001576083351    -0.002829589799
      14       -0.001015552649    -0.000917300465    -0.002365410649
      15       -0.000004587720    -0.000008774875    -0.000002094927
      16        0.000699435815     0.001032019700     0.001612298139
      17        0.000014969269    -0.000005266244    -0.000000899486
      18        0.000003859884     0.000027607615    -0.000022906037
      19       -0.000044575345    -0.000011388262    -0.000008693021
      20        0.000055526807    -0.000018343158    -0.000000532349
      21        0.000032585894    -0.000025532226     0.000003101012
      22        0.000002846775    -0.000023375482     0.000035926270
      23       -0.000026446707     0.000004526926     0.000013600303
      24       -0.000038996311     0.000024377235    -0.000001015636
      25        0.000007188456    -0.000013790103     0.000003347398
      26        0.000001396717    -0.000005152157    -0.000006669295
      27        0.000003823864     0.000001713571     0.000001304063

  **** Optimization is complete! (in 5 steps) ****
    Final optimized geometry and variables:
    Molecular point group: c1

    Geometry (in Angstrom), charge = 0, multiplicity = 1:

    H            3.037352056363    -0.390432558970     2.263463953238
    O            3.764820845468    -0.424254382402     1.670781491038
    C            3.535746002231    -1.385449670503     0.674345948710
    C            2.483449161196    -0.966905650640    -0.341607843261
    H            4.485066491095    -1.525689276027     0.175341938796
    H            3.263460097732    -2.339128299538     1.122366919236
    C            1.077966521284    -0.820890141410     0.235121896183
    H            2.792870238500    -0.029258956568    -0.793399586326
    H            2.470412518616    -1.710448628853    -1.134960006840
    C            0.034394355980    -0.437645286966    -0.810330216521
    H            1.078010764806    -0.065288976662     1.016537011900
    H            0.782217335579    -1.755577903596     0.707989925575
    C           -1.395325070780    -0.315734868124    -0.250606436013
    H            0.322412872831     0.494984195565    -1.286360610349
    H            0.048641793169    -1.177271959708    -1.605815302937
    C           -2.124174002718     0.948107421209    -0.700700303137
    H           -1.977204202464    -1.188537126982    -0.529362588272
    H           -1.358744793620    -0.318334441901     0.835572986617
    C           -3.547669596356     1.054742329898    -0.162280130543
    H           -2.148849229001     0.983233575148    -1.787743050524
    H           -1.552964131406     1.817274909798    -0.383133732967
    C           -4.264296946554     2.324989986274    -0.608092042875
    H           -4.118725474629     0.187907078225    -0.483677130250
    H           -3.524468209962     1.017268162112     0.923595942874
    H           -4.334565728003     2.375386119528    -1.689607391016
    H           -5.271319401355     2.368940461208    -0.209366983962
    H           -3.736438073923     3.211010760565    -0.271169843960

  Mulliken Charges: (a.u.)
   Center  Symbol    Alpha    Beta     Spin     Total
       1     H     0.39238  0.39238  0.00000  0.21525
       2     O     4.20573  4.20573  0.00000 -0.41145
       3     C     2.98007  2.98007  0.00000  0.03986
       4     C     3.08984  3.08984  0.00000 -0.17968
       5     H     0.44847  0.44847  0.00000  0.10306
       6     H     0.46998  0.46998  0.00000  0.06004
       7     C     3.10152  3.10152  0.00000 -0.20304
       8     H     0.45046  0.45046  0.00000  0.09908
       9     H     0.45589  0.45589  0.00000  0.08821
      10     C     3.09550  3.09550  0.00000 -0.19100
      11     H     0.45702  0.45702  0.00000  0.08595
      12     H     0.45220  0.45220  0.00000  0.09560
      13     C     3.09420  3.09420  0.00000 -0.18840
      14     H     0.45151  0.45151  0.00000  0.09697
      15     H     0.45108  0.45108  0.00000  0.09784
      16     C     3.08655  3.08655  0.00000 -0.17310
      17     H     0.45035  0.45035  0.00000  0.09930
      18     H     0.45591  0.45591  0.00000  0.08818
      19     C     3.08495  3.08495  0.00000 -0.16990
      20     H     0.45380  0.45380  0.00000  0.09239
      21     H     0.45431  0.45431  0.00000  0.09138
      22     C     3.15000  3.15000  0.00000 -0.30001
      23     H     0.45479  0.45479  0.00000  0.09041
      24     H     0.45463  0.45463  0.00000  0.09074
      25     H     0.45514  0.45514  0.00000  0.08971
      26     H     0.44854  0.44854  0.00000  0.10292
      27     H     0.45516  0.45516  0.00000  0.08968

   Total alpha = 37.00000, Total beta = 37.00000, Total charge = -0.00000

*** Psi4 exiting successfully. Buy a developer a beer!
