                              Psi4 1.0.54 Driver

  ==> Input File <==

--------------------------------------------------------------------------
set {
	reference rhf
	basis cc-pvtz
}

set_num_threads( 4 )
memory 2 gb

molecule MOL {
0 1

H	 0.978273	 0.684179	 -1.932772
O	 1.211945	 1.212173	 -1.190431
C	 0.706474	 0.636793	 -0.025501
C	 -0.793473	 0.591216	 0.050087
H	 1.087254	 1.228182	 0.798858
H	 1.095934	 -0.370499	 0.110086
C	 -1.534243	 -0.493009	 -0.013340
H	 -1.266611	 1.552628	 0.164437
H	 -1.101195	 -1.466332	 -0.144046
H	 -2.604242	 -0.437780	 0.050785

	symmetry c1
}
set optking {
	frozen_dihedral = ("
		5 3 4 7
	")
}

ee,wfn = optimize('scf', return_wfn=True)
oeprop( wfn, 'DIPOLE', 'QUADRUPOLE', 'MULLIKEN_CHARGES')
f=open( 'psi4out.xyz', 'w' )
f.write( "10  " )
f.write( str(ee) + "\n" )
f.write( MOL.save_string_xyz() )
f.close()
--------------------------------------------------------------------------

    Molecular point group: c1
  Charge       = 0
  Multiplicity = 1
  Basis Set: CC-PVTZ
  Basis Set:
  @DF-RHF Final Energy:  -191.99789080588241
    Total Energy =                       -191.9978908058824345
    Molecular point group: c1
  Basis Set: CC-PVTZ
  Basis Set:
  Basis Set: CC-PVTZ
  Basis Set:
  @DF-RHF Final Energy:  -191.99673077718876
    Total Energy =                       -191.9967307771886453
  Basis Set: CC-PVTZ
  Basis Set:
  Basis Set: CC-PVTZ
  Basis Set:
  @DF-RHF Final Energy:  -191.99875652022001
    Total Energy =                       -191.9987565202199278
  Basis Set: CC-PVTZ
  Basis Set:
  Basis Set: CC-PVTZ
  Basis Set:
  @DF-RHF Final Energy:  -191.99878760532346
    Total Energy =                       -191.9987876053234856
  Basis Set: CC-PVTZ
  Basis Set:
  Basis Set: CC-PVTZ
  Basis Set:
  @DF-RHF Final Energy:  -191.99879189014928
    Total Energy =                       -191.9987918901493060
  Basis Set: CC-PVTZ
  Basis Set:
  Charge       = 0
  Multiplicity = 1
  Basis Set: CC-PVTZ
  Basis Set:

    Orbital Energies (a.u.)
    -----------------------

    Doubly Occupied:

       1A    -20.550931     2A    -11.275506     3A    -11.231905
       4A    -11.226611     5A     -1.369175     6A     -1.068472
       7A     -0.925402     8A     -0.778624     9A     -0.707332
      10A     -0.626549    11A     -0.622941    12A     -0.604969
      13A     -0.533944    14A     -0.491924    15A     -0.447967
      16A     -0.380575

  @DF-RHF Final Energy:  -191.99879211168565

   => Energetics <=

    Nuclear Repulsion Energy =            117.9448347789397644
    One-Electron Energy =                -494.2016008502185969
    Two-Electron Energy =                 184.2579739595931869
    DFT Exchange-Correlation Energy =       0.0000000000000000
    Empirical Dispersion Energy =           0.0000000000000000
    PCM Polarization Energy =               0.0000000000000000
    EFP Energy =                            0.0000000000000000
    Total Energy =                       -191.9987921116856455
    Molecular point group: c1
  Basis Set: CC-PVTZ
  Basis Set:

  -Total Gradient:
     Atom            X                  Y                   Z
    ------   -----------------  -----------------  -----------------
       1        0.000001865224     0.000002545696     0.000013129249
       2        0.000012660728     0.000004876354    -0.000017441392
       3       -0.000185115738    -0.001603664670     0.000605910979
       4       -0.000139365461     0.000366523875     0.002093887599
       5        0.000167737011     0.001249640555    -0.001120456641
       6        0.000002829000     0.000003796632     0.000002782972
       7        0.000130074298    -0.000020891100    -0.001549072713
       8        0.000006157849    -0.000003197399    -0.000008417159
       9       -0.000003174771     0.000003986459    -0.000009854409
      10        0.000006331863    -0.000003616402    -0.000010468484

  **** Optimization is complete! (in 6 steps) ****
    Final optimized geometry and variables:
    Molecular point group: c1

    Geometry (in Angstrom), charge = 0, multiplicity = 1:

    H            1.041827752656     0.022908670801    -1.512543796246
    O            1.360052288450     0.514825858998    -0.776904274653
    C            0.719961553754     0.075442038759     0.392372602949
    C           -0.773190031855     0.196474771687     0.292171105078
    H            1.093897968328     0.716774932268     1.179415577868
    H            0.997112183391    -0.947204912032     0.628902039757
    C           -1.597851170808    -0.828272279087     0.266159965958
    H           -1.157495243309     1.197272446623     0.192015974376
    H           -1.242255087869    -1.839590467833     0.353877938928
    H           -2.658981833831    -0.696391399697     0.168501114502

  Mulliken Charges: (a.u.)
   Center  Symbol    Alpha    Beta     Spin     Total
       1     H     0.39410  0.39410  0.00000  0.21179
       2     O     4.20015  4.20015  0.00000 -0.40030
       3     C     2.94992  2.94992  0.00000  0.10016
       4     C     3.08118  3.08118  0.00000 -0.16237
       5     H     0.45916  0.45916  0.00000  0.08168
       6     H     0.47027  0.47027  0.00000  0.05946
       7     C     3.17208  3.17208  0.00000 -0.34416
       8     H     0.41862  0.41862  0.00000  0.16276
       9     H     0.42856  0.42856  0.00000  0.14288
      10     H     0.42595  0.42595  0.00000  0.14810

   Total alpha = 16.00000, Total beta = 16.00000, Total charge = -0.00000

*** Psi4 exiting successfully. Buy a developer a beer!
