                              Psi4 1.0.54 Driver

  ==> Input File <==

--------------------------------------------------------------------------
set {
	reference rhf
	basis cc-pvtz
}

set_num_threads( 4 )
memory 2 gb

molecule MOL {
0 1

O	 -2.081319	 -0.951530	 -0.502732
N	 -1.613558	 0.006676	 0.014756
C	 -0.329345	 -0.171618	 0.743966
O	 -2.068523	 1.100482	 -0.024385
C	 0.835904	 0.041968	 -0.213982
H	 -0.346048	 -1.174374	 1.137184
H	 -0.333613	 0.555559	 1.538590
C	 2.177039	 -0.130175	 0.494460
H	 0.754456	 -0.665923	 -1.030569
H	 0.765464	 1.037260	 -0.637266
C	 2.106221	 -1.136244	 1.637827
H	 2.508568	 0.830246	 0.878019
H	 2.925944	 -0.451157	 -0.223537
H	 1.388861	 -0.824484	 2.388758
H	 1.807120	 -2.114865	 1.279282
H	 3.069472	 -1.240363	 2.122048

	symmetry c1
}
set optking {
	frozen_dihedral = ("
		11 8 5 9
	")
}

ee,wfn = optimize('scf', return_wfn=True)
oeprop( wfn, 'DIPOLE', 'QUADRUPOLE', 'MULLIKEN_CHARGES')
f=open( 'psi4out.xyz', 'w' )
f.write( "16  " )
f.write( str(ee) + "\n" )
f.write( MOL.save_string_xyz() )
f.close()
--------------------------------------------------------------------------

    Molecular point group: c1
  Charge       = 0
  Multiplicity = 1
  Basis Set: CC-PVTZ
  Basis Set:
  @DF-RHF Final Energy:  -360.90146300297101
    Total Energy =                       -360.9014630029707860
    Molecular point group: c1
  Basis Set: CC-PVTZ
  Basis Set:
  Basis Set: CC-PVTZ
  Basis Set:
  @DF-RHF Final Energy:  -360.66219287608277
    Total Energy =                       -360.6621928760825995
  Basis Set: CC-PVTZ
  Basis Set:
  Basis Set: CC-PVTZ
  Basis Set:
  @DF-RHF Final Energy:  -360.81089751409553
    Total Energy =                       -360.8108975140955863
  Basis Set: CC-PVTZ
  Basis Set:
  Basis Set: CC-PVTZ
  Basis Set:
  @DF-RHF Final Energy:  -360.89366091017951
    Total Energy =                       -360.8936609101792783
  Basis Set: CC-PVTZ
  Basis Set:
  @DF-RHF Final Energy:  -360.90196148111164
    Total Energy =                       -360.9019614811116980
  @DF-RHF Final Energy:  -360.90225679751705
    Total Energy =                       -360.9022567975169409
  @DF-RHF Final Energy:  -360.90293659565287
    Total Energy =                       -360.9029365956529887
  Basis Set: CC-PVTZ
  Basis Set:
  @DF-RHF Final Energy:  -360.90417330032528
    Total Energy =                       -360.9041733003253967
  Basis Set: CC-PVTZ
  Basis Set:
  Basis Set: CC-PVTZ
  Basis Set:
  @DF-RHF Final Energy:  -360.90426183504081
    Total Energy =                       -360.9042618350408702
  Basis Set: CC-PVTZ
  Basis Set:
  Basis Set: CC-PVTZ
  Basis Set:
  @DF-RHF Final Energy:  -360.90426712537243
    Total Energy =                       -360.9042671253723711
  Basis Set: CC-PVTZ
  Basis Set:
  Charge       = 0
  Multiplicity = 1
  Basis Set: CC-PVTZ
  Basis Set:

    Orbital Energies (a.u.)
    -----------------------

    Doubly Occupied:

       1A    -20.589789     2A    -20.589220     3A    -15.836079
       4A    -11.296209     5A    -11.250498     6A    -11.241968
       7A    -11.229611     8A     -1.635084     9A     -1.419378
      10A     -1.135794    11A     -1.056970    12A     -0.952774
      13A     -0.856851    14A     -0.816120    15A     -0.761651
      16A     -0.737536    17A     -0.722857    18A     -0.672370
      19A     -0.621903    20A     -0.606473    21A     -0.576785
      22A     -0.553865    23A     -0.511077    24A     -0.501920
      25A     -0.490775    26A     -0.483914    27A     -0.472097
      28A     -0.451476

  @DF-RHF Final Energy:  -360.90426788855729

   => Energetics <=

    Nuclear Repulsion Energy =            316.8845331334054549
    One-Electron Energy =               -1119.4355136320646125
    Two-Electron Energy =                 441.6467126101019858
    DFT Exchange-Correlation Energy =       0.0000000000000000
    Empirical Dispersion Energy =           0.0000000000000000
    PCM Polarization Energy =               0.0000000000000000
    EFP Energy =                            0.0000000000000000
    Total Energy =                       -360.9042678885571149
    Molecular point group: c1
  Basis Set: CC-PVTZ
  Basis Set:

  -Total Gradient:
     Atom            X                  Y                   Z
    ------   -----------------  -----------------  -----------------
       1       -0.000015805437     0.000040382243     0.000076097246
       2        0.000002329726    -0.000094979563    -0.000046612156
       3        0.000003924032     0.000024047246     0.000011502514
       4        0.000006388802     0.000033803584    -0.000043304391
       5       -0.001323410047    -0.001470607343     0.007202483512
       6        0.000014068675    -0.000012969539    -0.000040155449
       7       -0.000013494727    -0.000013231411     0.000045032226
       8        0.002433706940    -0.004663031269    -0.003593546326
       9        0.000492292194     0.002501974792    -0.005253136481
      10       -0.000009565983    -0.000000142648     0.000032239898
      11       -0.001597903883     0.003680196174     0.001621472501
      12       -0.000004909033    -0.000018904071    -0.000006421986
      13        0.000013432103    -0.000015704746     0.000002720864
      14        0.000001390787    -0.000000365998     0.000005164678
      15       -0.000001226624     0.000012033490    -0.000011850591
      16       -0.000001217516    -0.000002500936    -0.000001686060

  **** Optimization is complete! (in 11 steps) ****
    Final optimized geometry and variables:
    Molecular point group: c1

    Geometry (in Angstrom), charge = 0, multiplicity = 1:

    O           -1.782519247694    -1.387261567388    -0.014985399857
    N           -1.487549890648    -0.239445633018    -0.023443675128
    C           -0.129204276612     0.118859652338     0.467474082415
    O           -2.174708011961     0.644258585320    -0.413512621563
    C            0.836598020374     0.126273730538    -0.710355461101
    H            0.121665168413    -0.622485037429     1.205106594587
    H           -0.224293250960     1.094320557396     0.915385982854
    C            2.259850149211     0.593797817508    -0.359987103220
    H            0.863949913006    -0.852318158240    -1.174612975202
    H            0.435134610831     0.792721378149    -1.464528205854
    C            2.770140727313     0.208961632631     1.027355097157
    H            2.296909134423     1.675298266479    -0.441473848538
    H            2.933889564517     0.211002880971    -1.116330703502
    H            2.187754336845     0.672610778642     1.814696932951
    H            2.748214473588    -0.864712592703     1.183104104658
    H            3.795327805213     0.535419489930     1.150671898828

  Mulliken Charges: (a.u.)
   Center  Symbol    Alpha    Beta     Spin     Total
       1     O     4.17378  4.17378  0.00000 -0.34756
       2     N     3.27477  3.27477  0.00000  0.45046
       3     C     3.04313  3.04313  0.00000 -0.08627
       4     O     4.17432  4.17432  0.00000 -0.34865
       5     C     3.11023  3.11023  0.00000 -0.22046
       6     H     0.43216  0.43216  0.00000  0.13569
       7     H     0.43317  0.43317  0.00000  0.13366
       8     C     3.09420  3.09420  0.00000 -0.18839
       9     H     0.43619  0.43619  0.00000  0.12761
      10     H     0.43445  0.43445  0.00000  0.13111
      11     C     3.15941  3.15941  0.00000 -0.31883
      12     H     0.44772  0.44772  0.00000  0.10456
      13     H     0.44346  0.44346  0.00000  0.11307
      14     H     0.45357  0.45357  0.00000  0.09285
      15     H     0.44923  0.44923  0.00000  0.10154
      16     H     0.44020  0.44020  0.00000  0.11961

   Total alpha = 28.00000, Total beta = 28.00000, Total charge = -0.00000

*** Psi4 exiting successfully. Buy a developer a beer!
