  ==> Input File <==

--------------------------------------------------------------------------
set {
	reference rhf
	basis 6-31G*
}

set_num_threads( 4 )
memory 2 gb

molecule MOL {
0 1

O	 1.093718	 -1.419970	 -4.936517
C	 0.637778	 -0.547389	 -4.261865
C	 0.448670	 -0.737203	 -2.767035
C	 0.257675	 0.793669	 -4.848773
C	 1.780079	 -0.560064	 -2.019296
H	 0.075326	 -1.742980	 -2.607880
H	 -0.288685	 -0.037927	 -2.383177
C	 1.631333	 -0.777471	 -0.511575
H	 2.497641	 -1.257421	 -2.436648
H	 2.171634	 0.439807	 -2.200096
C	 2.915987	 -0.544314	 0.291766
H	 1.272441	 -1.788784	 -0.329452
H	 0.860754	 -0.107946	 -0.135020
C	 3.373361	 0.914346	 0.347591
H	 3.708709	 -1.142521	 -0.150311
H	 2.780642	 -0.921148	 1.303579
H	 3.506512	 1.320010	 -0.651625
H	 4.322697	 0.999599	 0.867103
H	 2.660624	 1.545032	 0.868198
H	 -0.818589	 0.929671	 -4.782258
H	 0.562506	 0.844234	 -5.884777
H	 0.717699	 1.602713	 -4.288746

	symmetry c1
}
set optking {
	frozen_dihedral = ("
		12 8 11 15
	")
}

ee = optimize('scf')
oeprop('DIPOLE', 'QUADRUPOLE', 'MULLIKEN_CHARGES')
f=open( 'psi4out.xyz', 'w' )
f.write( "22  " )
f.write( str(ee) + "\n" )
f.write( MOL.save_string_xyz() )
f.close()
--------------------------------------------------------------------------

    Molecular point group: c1
  Charge       = 0
  Multiplicity = 1
  Basis Set: 6-31G*
  Basis Set:
  @DF-RHF Final Energy:  -348.09768915473182
    Total Energy =                       -348.0976891547320520
    Molecular point group: c1
  Basis Set: 6-31G*
  Basis Set:
  Basis Set: 6-31G*
  Basis Set:
  @DF-RHF Final Energy:  -348.09794791074046
    Total Energy =                       -348.0979479107403449
  Basis Set: 6-31G*
  Basis Set:
  Basis Set: 6-31G*
  Basis Set:
  @DF-RHF Final Energy:  -348.09668385835209
    Total Energy =                       -348.0966838583524350
  Basis Set: 6-31G*
  Basis Set:
  Basis Set: 6-31G*
  Basis Set:
  @DF-RHF Final Energy:  -348.09813018840015
    Total Energy =                       -348.0981301884002619
  Basis Set: 6-31G*
  Basis Set:
  @DF-RHF Final Energy:  -348.09735133123530
    Total Energy =                       -348.0973513312356999
  @DF-RHF Final Energy:  -348.09810466897414
    Total Energy =                       -348.0981046689741447
  Basis Set: 6-31G*
  Basis Set:
  @DF-RHF Final Energy:  -348.09817319448047
    Total Energy =                       -348.0981731944801822
  Basis Set: 6-31G*
  Basis Set:
  Basis Set: 6-31G*
  Basis Set:
  @DF-RHF Final Energy:  -348.09811508464213
    Total Energy =                       -348.0981150846420178
  Basis Set: 6-31G*
  Basis Set:
  Basis Set: 6-31G*
  Basis Set:
  @DF-RHF Final Energy:  -348.09818865496118
    Total Energy =                       -348.0981886549610635
  Basis Set: 6-31G*
  Basis Set:
  Charge       = 0
  Multiplicity = 1
  Basis Set: 6-31G*
  Basis Set:

    Orbital Energies (a.u.)
    -----------------------

    Doubly Occupied:

       1A    -20.547358     2A    -11.324454     3A    -11.229830
       4A    -11.229116     5A    -11.228222     6A    -11.222540
       7A    -11.220797     8A    -11.213178     9A     -1.393108
      10A     -1.095917    11A     -1.044729    12A     -0.999800
      13A     -0.938293    14A     -0.857349    15A     -0.788095
      16A     -0.733036    17A     -0.660587    18A     -0.647114
      19A     -0.626717    20A     -0.617819    21A     -0.599108
      22A     -0.585870    23A     -0.554418    24A     -0.548590
      25A     -0.534524    26A     -0.519505    27A     -0.499828
      28A     -0.486978    29A     -0.470393    30A     -0.465042
      31A     -0.460830    32A     -0.396195

  @DF-RHF Final Energy:  -348.09818916585289

   => Energetics <=

    Nuclear Repulsion Energy =            372.7524577300720239
    One-Electron Energy =               -1210.2226163363748128
    Two-Electron Energy =                 489.3719694404498455
    DFT Exchange-Correlation Energy =       0.0000000000000000
    Empirical Dispersion Energy =           0.0000000000000000
    PCM Polarization Energy =               0.0000000000000000
    EFP Energy =                            0.0000000000000000
    Total Energy =                       -348.0981891658529435
    Molecular point group: c1
  Basis Set: 6-31G*
  Basis Set:

  -Total Gradient:
     Atom            X                  Y                   Z
    ------   -----------------  -----------------  -----------------
       1        0.000037431329     0.000000588923     0.000018444225
       2       -0.000041812494     0.000005727119    -0.000026859033
       3        0.000055146871     0.000049451457     0.000030098593
       4       -0.000017912330    -0.000018471747    -0.000014360824
       5       -0.000000032320    -0.000029689239    -0.000009024462
       6        0.000000007558    -0.000003825402     0.000003176479
       7       -0.000006886563     0.000000606152     0.000012828915
       8        0.000616012804    -0.000186527226    -0.001004195190
       9       -0.000017664652     0.000002260838    -0.000028133722
      10        0.000015774441     0.000002082236    -0.000012025301
      11       -0.000382108674    -0.000832654878     0.000825361817
      12       -0.000464870723     0.000312138795     0.000761228655
      13       -0.000039681321    -0.000016796820    -0.000010702769
      14       -0.000014890389    -0.000015300387     0.000001247783
      15        0.000264887531     0.000717827391    -0.000554006759
      16       -0.000002746171     0.000017254201    -0.000002249524
      17       -0.000000532929    -0.000011208112    -0.000008829828
      18       -0.000008192320    -0.000005882282     0.000007372674
      19       -0.000008569654     0.000002511585    -0.000007076436
      20        0.000001177805     0.000012886295     0.000006819674
      21        0.000005369056    -0.000000403269     0.000004613278
      22        0.000010093146    -0.000002575632     0.000006271764

  **** Optimization is complete! (in 10 steps) ****
    Final optimized geometry and variables:
    Molecular point group: c1

    Geometry (in Angstrom), charge = 0, multiplicity = 1:

    O           -0.418722134036    -1.077895914310    -2.598190186898
    C           -0.891294682767    -0.212591132388    -1.925773275098
    C           -1.079611595137    -0.402704128019    -0.430917966237
    C           -1.300980590333     1.118115176323    -2.516875114283
    C            0.239302902066    -0.166931085737     0.322411270065
    H           -1.413367872987    -1.421619010626    -0.268283730326
    H           -1.846057820830     0.268958766648    -0.054431731061
    C            0.092901274116    -0.383877431403     1.830216581151
    H            0.989056340902    -0.844609344634    -0.074864163703
    H            0.592919064007     0.841857619553     0.124551484666
    C            1.394342028306    -0.211416650426     2.622695598587
    H           -0.293377087485    -1.385539003735     2.004519277035
    H           -0.658147382911     0.299912294123     2.223084004808
    C            1.885892894598     1.234421734368     2.718444905533
    H            2.172509714072    -0.824807263656     2.173835068845
    H            1.241653200524    -0.595368638347     3.627797596297
    H            2.132904750778     1.645364505233     1.744925403924
    H            2.778581173165     1.297944642599     3.332779482759
    H            1.130803063127     1.874410940113     3.166928668129
    H           -2.380563980647     1.227665839839    -2.455955251866
    H           -0.992521579288     1.174003095181    -3.551510643619
    H           -0.863864526693     1.939461704121    -1.956508066965

  Mulliken Charges: (a.u.)
   Center  Symbol    Alpha    Beta     Spin     Total
       1     O     4.26225  4.26225  0.00000 -0.52449
       2     C     2.73718  2.73718  0.00000  0.52564
       3     C     3.19974  3.19974  0.00000 -0.39949
       4     C     3.28959  3.28959  0.00000 -0.57918
       5     C     3.16348  3.16348  0.00000 -0.32695
       6     H     0.40120  0.40120  0.00000  0.19761
       7     H     0.41683  0.41683  0.00000  0.16635
       8     C     3.15309  3.15309  0.00000 -0.30617
       9     H     0.40631  0.40631  0.00000  0.18737
      10     H     0.41907  0.41907  0.00000  0.16186
      11     C     3.15387  3.15387  0.00000 -0.30774
      12     H     0.41856  0.41856  0.00000  0.16289
      13     H     0.42377  0.42377  0.00000  0.15246
      14     C     3.24154  3.24154  0.00000 -0.48308
      15     H     0.42049  0.42049  0.00000  0.15901
      16     H     0.41905  0.41905  0.00000  0.16189
      17     H     0.42062  0.42062  0.00000  0.15875
      18     H     0.41753  0.41753  0.00000  0.16495
      19     H     0.42215  0.42215  0.00000  0.15570
      20     H     0.40679  0.40679  0.00000  0.18641
      21     H     0.39707  0.39707  0.00000  0.20586
      22     H     0.40983  0.40983  0.00000  0.18035

   Total alpha = 32.00000, Total beta = 32.00000, Total charge = -0.00000
