  ==> Input File <==

--------------------------------------------------------------------------
set {
	reference rhf
	basis 6-31G*
}

set_num_threads( 4 )
memory 2 gb

molecule MOL {
0 1

H	 -0.216825	 0.021369	 -3.357402
C	 0.374198	 0.036393	 -2.447010
C	 -0.521757	 -0.028637	 -1.217342
H	 0.969602	 0.942322	 -2.434777
H	 1.053364	 -0.811668	 -2.481329
N	 0.263400	 0.031178	 0.000000
H	 -1.199035	 0.820290	 -1.219355
H	 -1.147901	 -0.924895	 -1.265384
C	 -0.521757	 -0.028637	 1.217342
H	 0.935769	 -0.712709	 0.000000
C	 0.336074	 0.288993	 2.434833
H	 -1.318687	 0.704680	 1.136502
H	 -1.006991	 -1.000185	 1.352569
H	 0.788940	 1.268875	 2.334300
H	 -0.259362	 0.272911	 3.342326
H	 1.134205	 -0.439683	 2.551747

	symmetry c1
}
set optking {
	frozen_dihedral = ("
		12 9 6 3
	")
}

ee = optimize('scf')
oeprop('DIPOLE', 'QUADRUPOLE', 'MULLIKEN_CHARGES')
f=open( 'psi4out.xyz', 'w' )
f.write( "16  " )
f.write( str(ee) + "\n" )
f.write( MOL.save_string_xyz() )
f.close()
--------------------------------------------------------------------------

    Molecular point group: c1
  Charge       = 0
  Multiplicity = 1
  Basis Set: 6-31G*
  Basis Set:
  @DF-RHF Final Energy:  -212.31358527274040
    Total Energy =                       -212.3135852727405677
    Molecular point group: c1
  Basis Set: 6-31G*
  Basis Set:
  Basis Set: 6-31G*
  Basis Set:
  @DF-RHF Final Energy:  -212.31362616710220
    Total Energy =                       -212.3136261671023135
  Basis Set: 6-31G*
  Basis Set:
  Basis Set: 6-31G*
  Basis Set:
  @DF-RHF Final Energy:  -212.31363230826869
    Total Energy =                       -212.3136323082687795
  Basis Set: 6-31G*
  Basis Set:
  Charge       = 0
  Multiplicity = 1
  Basis Set: 6-31G*
  Basis Set:

    Orbital Energies (a.u.)
    -----------------------

    Doubly Occupied:

       1A    -15.533737     2A    -11.240800     3A    -11.240558
       4A    -11.208370     5A    -11.206628     6A     -1.204869
       7A     -1.027705     8A     -0.962602     9A     -0.832132
      10A     -0.821006    11A     -0.662682    12A     -0.627877
      13A     -0.599429    14A     -0.584102    15A     -0.554612
      16A     -0.521254    17A     -0.508054    18A     -0.489204
      19A     -0.481070    20A     -0.474953    21A     -0.358090

  @DF-RHF Final Energy:  -212.31363268389890

   => Energetics <=

    Nuclear Repulsion Energy =            189.1279384655275067
    One-Electron Energy =                -660.6036720813350485
    Two-Electron Energy =                 259.1621009319086397
    DFT Exchange-Correlation Energy =       0.0000000000000000
    Empirical Dispersion Energy =           0.0000000000000000
    PCM Polarization Energy =               0.0000000000000000
    EFP Energy =                            0.0000000000000000
    Total Energy =                       -212.3136326838989021
    Molecular point group: c1
  Basis Set: 6-31G*
  Basis Set:

  -Total Gradient:
     Atom            X                  Y                   Z
    ------   -----------------  -----------------  -----------------
       1        0.000001134594    -0.000000314424    -0.000008589865
       2        0.000004702738     0.000007460846     0.000005009145
       3       -0.000147846786     0.001438660388    -0.000034080760
       4        0.000001150258    -0.000001310749    -0.000000207688
       5       -0.000007006754     0.000003323675     0.000003898549
       6       -0.000037078704    -0.002373757613    -0.000175230190
       7        0.000020012425    -0.000002908385     0.000015986102
       8        0.000011725273     0.000007667668     0.000013772176
       9        0.001294646090     0.002240080411     0.001007640728
      10       -0.000009604604     0.000004248862    -0.000010661332
      11       -0.000000441949    -0.000014663119    -0.000022239691
      12       -0.001119920872    -0.001301542880    -0.000770476148
      13        0.000006457182    -0.000001465126     0.000002054033
      14       -0.000008719311    -0.000001623800    -0.000008227055
      15       -0.000004135605    -0.000003545492    -0.000009636216
      16       -0.000005073975    -0.000000310260    -0.000009011792

  **** Optimization is complete! (in 4 steps) ****
    Final optimized geometry and variables:
    Molecular point group: c1

    Geometry (in Angstrom), charge = 0, multiplicity = 1:

    H           -0.202984652601    -0.037723512468    -3.356569208503
    C            0.384879658016    -0.022382061046    -2.444145809690
    C           -0.515745126459    -0.081419499273    -1.217532269142
    H            0.982784580052     0.881919969917    -2.431969757057
    H            1.061587684193    -0.872562662368    -2.474261127409
    N            0.265982642640    -0.014298511368     0.001360993732
    H           -1.192276884788     0.767721913455    -1.225730168888
    H           -1.141593027859    -0.978032271110    -1.265257303218
    C           -0.514242831276    -0.074171716831     1.222242302085
    H            0.955254239028    -0.741994357866     0.004585141023
    C            0.347578241021     0.232245767528     2.439134657651
    H           -1.314755914601     0.654760101887     1.141634146478
    H           -1.004464228050    -1.043867168007     1.353488877063
    H            0.793934218030     1.215913347496     2.349073175836
    H           -0.241981473511     0.198630983591     3.350310655864
    H            1.151478895134    -0.492311064443     2.539370818684

  Mulliken Charges: (a.u.)
   Center  Symbol    Alpha    Beta     Spin     Total
       1     H     0.42009  0.42009  0.00000  0.15981
       2     C     3.24270  3.24270  0.00000 -0.48539
       3     C     3.05150  3.05150  0.00000 -0.10299
       4     H     0.41199  0.41199  0.00000  0.17602
       5     H     0.42482  0.42482  0.00000  0.15036
       6     N     3.85051  3.85051  0.00000 -0.70101
       7     H     0.42028  0.42028  0.00000  0.15944
       8     H     0.43558  0.43558  0.00000  0.12884
       9     C     3.05425  3.05425  0.00000 -0.10850
      10     H     0.33522  0.33522  0.00000  0.32956
      11     C     3.23825  3.23825  0.00000 -0.47650
      12     H     0.42084  0.42084  0.00000  0.15832
      13     H     0.43488  0.43488  0.00000  0.13025
      14     H     0.41265  0.41265  0.00000  0.17469
      15     H     0.42175  0.42175  0.00000  0.15650
      16     H     0.42469  0.42469  0.00000  0.15061

   Total alpha = 21.00000, Total beta = 21.00000, Total charge = -0.00000
