                              Psi4 1.0.54 Driver

  ==> Input File <==

--------------------------------------------------------------------------
set {
	reference rhf
	basis cc-pvtz
}

set_num_threads( 4 )
memory 2 gb

molecule MOL {
0 1

H	 -2.543140	 -1.673600	 -0.920141
N	 -1.629434	 -1.603834	 -0.526003
C	 -1.437985	 -0.319210	 0.121476
H	 -0.971358	 -1.713745	 -1.268197
C	 -0.047225	 -0.222052	 0.705423
H	 -1.590842	 0.528912	 -0.544759
H	 -2.152829	 -0.229005	 0.931977
O	 0.881195	 -0.248324	 -0.336237
H	 0.052041	 0.702967	 1.271690
H	 0.124092	 -1.056096	 1.382143
C	 2.208068	 -0.234417	 0.074171
H	 2.725499	 -1.027054	 -0.446768
H	 2.688377	 0.712084	 -0.164856
H	 2.295137	 -0.403407	 1.144883

	symmetry c1
}
set optking {
	frozen_dihedral = ("
		5 8 11 13
	")
}

ee,wfn = optimize('scf', return_wfn=True)
oeprop( wfn, 'DIPOLE', 'QUADRUPOLE', 'MULLIKEN_CHARGES')
f=open( 'psi4out.xyz', 'w' )
f.write( "14  " )
f.write( str(ee) + "\n" )
f.write( MOL.save_string_xyz() )
f.close()
--------------------------------------------------------------------------

    Molecular point group: c1
  Charge       = 0
  Multiplicity = 1
  Basis Set: CC-PVTZ
  Basis Set:
  @DF-RHF Final Energy:  -248.22253629073873
    Total Energy =                       -248.2225362907388444
    Molecular point group: c1
  Basis Set: CC-PVTZ
  Basis Set:
  Basis Set: CC-PVTZ
  Basis Set:
  @DF-RHF Final Energy:  -248.22279239379571
    Total Energy =                       -248.2227923937954870
  Basis Set: CC-PVTZ
  Basis Set:
  Basis Set: CC-PVTZ
  Basis Set:
  @DF-RHF Final Energy:  -248.22285803395340
    Total Energy =                       -248.2228580339534574
  Basis Set: CC-PVTZ
  Basis Set:
  Charge       = 0
  Multiplicity = 1
  Basis Set: CC-PVTZ
  Basis Set:

    Orbital Energies (a.u.)
    -----------------------

    Doubly Occupied:

       1A    -20.547516     2A    -15.523082     3A    -11.264434
       4A    -11.263224     5A    -11.239389     6A     -1.380035
       7A     -1.175521     8A     -1.000473     9A     -0.907889
      10A     -0.815326    11A     -0.683768    12A     -0.673648
      13A     -0.645461    14A     -0.611184    15A     -0.607864
      16A     -0.540439    17A     -0.535495    18A     -0.497580
      19A     -0.473544    20A     -0.414926    21A     -0.383473

  @DF-RHF Final Energy:  -248.22285862835037

   => Energetics <=

    Nuclear Repulsion Energy =            194.4301960834193892
    One-Electron Energy =                -722.9375771505226567
    Two-Electron Energy =                 280.2845224387528447
    DFT Exchange-Correlation Energy =       0.0000000000000000
    Empirical Dispersion Energy =           0.0000000000000000
    PCM Polarization Energy =               0.0000000000000000
    EFP Energy =                            0.0000000000000000
    Total Energy =                       -248.2228586283504796
    Molecular point group: c1
  Basis Set: CC-PVTZ
  Basis Set:

  -Total Gradient:
     Atom            X                  Y                   Z
    ------   -----------------  -----------------  -----------------
       1        0.000006500675     0.000004336704    -0.000001112307
       2        0.000005939978     0.000015443517    -0.000011430624
       3       -0.000047902468    -0.000036639025     0.000085749371
       4        0.000000135423     0.000000786682    -0.000010146494
       5       -0.000069263752    -0.001142721870     0.000002519776
       6        0.000036210273    -0.000029245682     0.000017703912
       7       -0.000056306348    -0.000000294965     0.000003640834
       8        0.000238574580     0.001590894812    -0.000419010023
       9        0.000005791769    -0.000015497390     0.000006064915
      10        0.000001435730     0.000008664943    -0.000037597369
      11       -0.000526151733     0.000170641487     0.001723042699
      12        0.000000767100    -0.000003142191     0.000005486682
      13        0.000399334389    -0.000562924467    -0.001359130866
      14        0.000004934384    -0.000000302554    -0.000005780507

  **** Optimization is complete! (in 4 steps) ****
    Final optimized geometry and variables:
    Molecular point group: c1

    Geometry (in Angstrom), charge = 0, multiplicity = 1:

    H           -2.534066856030    -1.154750198652    -0.934573058373
    N           -1.625402355535    -1.079076274750    -0.530055874863
    C           -1.451835207284     0.204355637576     0.124655138936
    H           -0.958390218549    -1.179697283681    -1.265508331508
    C           -0.068116427548     0.311113364279     0.723541382706
    H           -1.604802763135     1.053751135210    -0.539851433656
    H           -2.175787168483     0.285560361350     0.928178848969
    O            0.869117553650     0.288187740704    -0.311989544683
    H            0.015286029997     1.236813101305     1.290727091831
    H            0.100007631693    -0.521996493879     1.400844100850
    C            2.209796311876     0.305930540702     0.070997744972
    H            2.740605120462    -0.475993554936    -0.458419247218
    H            2.663411372869     1.257700028370    -0.185537769897
    H            2.330257838538     0.137664420796     1.135733605879

  Mulliken Charges: (a.u.)
   Center  Symbol    Alpha    Beta     Spin     Total
       1     H     0.43035  0.43035  0.00000  0.13930
       2     N     3.69427  3.69427  0.00000 -0.38855
       3     C     3.02403  3.02403  0.00000 -0.04806
       4     H     0.42218  0.42218  0.00000  0.15564
       5     C     2.96798  2.96798  0.00000  0.06404
       6     H     0.46482  0.46482  0.00000  0.07035
       7     H     0.45873  0.45873  0.00000  0.08255
       8     O     4.18440  4.18440  0.00000 -0.36879
       9     H     0.47018  0.47018  0.00000  0.05964
      10     H     0.46832  0.46832  0.00000  0.06336
      11     C     3.02745  3.02745  0.00000 -0.05490
      12     H     0.45505  0.45505  0.00000  0.08990
      13     H     0.46068  0.46068  0.00000  0.07863
      14     H     0.47156  0.47156  0.00000  0.05688

   Total alpha = 21.00000, Total beta = 21.00000, Total charge =  0.00000

*** Psi4 exiting successfully. Buy a developer a beer!
