  ==> Input File <==

--------------------------------------------------------------------------
set {
	reference rhf
	basis 6-31G*
}

set_num_threads( 4 )
memory 2 gb

molecule MOL {
0 1

H	 -2.625684	 -0.770457	 1.208664
C	 -2.664064	 -0.525534	 0.149098
O	 -1.392607	 -0.295399	 -0.366433
H	 -3.087340	 -1.362726	 -0.388571
H	 -3.312201	 0.340060	 0.018355
C	 -0.719715	 0.768384	 0.229244
C	 0.719720	 0.768376	 -0.229267
H	 -1.185038	 1.714362	 -0.050570
H	 -0.750528	 0.687237	 1.313896
O	 1.392611	 -0.295398	 0.366430
H	 0.750534	 0.687200	 -1.313918
H	 1.185043	 1.714359	 0.050526
C	 2.706965	 -0.449871	 -0.062409
H	 2.756559	 -0.644779	 -1.131878
H	 3.305899	 0.433456	 0.155466
H	 3.125548	 -1.294566	 0.467107

	symmetry c1
}
set optking {
	frozen_dihedral = ("
		2 3 6 7
	")
}

ee = optimize('scf')
oeprop('DIPOLE', 'QUADRUPOLE', 'MULLIKEN_CHARGES')
f=open( 'psi4out.xyz', 'w' )
f.write( "16  " )
f.write( str(ee) + "\n" )
f.write( MOL.save_string_xyz() )
f.close()
--------------------------------------------------------------------------

    Molecular point group: c1
  Charge       = 0
  Multiplicity = 1
  Basis Set: 6-31G*
  Basis Set:
  @DF-RHF Final Energy:  -306.97766139345782
    Total Energy =                       -306.9776613934579359
    Molecular point group: c1
  Basis Set: 6-31G*
  Basis Set:
  Basis Set: 6-31G*
  Basis Set:
  @DF-RHF Final Energy:  -306.97766503271725
    Total Energy =                       -306.9776650327170273
  Basis Set: 6-31G*
  Basis Set:
  Charge       = 0
  Multiplicity = 1
  Basis Set: 6-31G*
  Basis Set:

    Orbital Energies (a.u.)
    -----------------------

    Doubly Occupied:

       1A    -20.553699     2A    -20.553294     3A    -11.268951
       4A    -11.268291     5A    -11.263645     6A    -11.263296
       7A     -1.388178     8A     -1.370470     9A     -1.030752
      10A     -0.936169    11A     -0.891621    12A     -0.824103
      13A     -0.683645    14A     -0.680803    15A     -0.656821
      16A     -0.635096    17A     -0.630223    18A     -0.597447
      19A     -0.549307    20A     -0.536263    21A     -0.509260
      22A     -0.477632    23A     -0.462280    24A     -0.419380
      25A     -0.410668

  @DF-RHF Final Energy:  -306.97766556327446

   => Energetics <=

    Nuclear Repulsion Energy =            258.9940849025360308
    One-Electron Energy =                -932.2209140333186497
    Two-Electron Energy =                 366.2491635675081625
    DFT Exchange-Correlation Energy =       0.0000000000000000
    Empirical Dispersion Energy =           0.0000000000000000
    PCM Polarization Energy =               0.0000000000000000
    EFP Energy =                            0.0000000000000000
    Total Energy =                       -306.9776655632743996
    Molecular point group: c1
  Basis Set: 6-31G*
  Basis Set:

  -Total Gradient:
     Atom            X                  Y                   Z
    ------   -----------------  -----------------  -----------------
       1        0.000007259628    -0.000002522048    -0.000004443556
       2        0.000202970732    -0.000334151422     0.000392070813
       3       -0.000257264671     0.000406581273    -0.000391927866
       4        0.000015012736     0.000005725818    -0.000009487465
       5       -0.000005503259    -0.000010415226    -0.000004080347
       6       -0.000048852877     0.000247432638    -0.000350318921
       7        0.000132510788    -0.000372576401     0.000389493664
       8       -0.000002275692    -0.000004303242     0.000002272393
       9        0.000005129199     0.000008333827    -0.000001466686
      10       -0.000023780456     0.000037711776    -0.000001723453
      11        0.000012005967     0.000006415399    -0.000023609059
      12       -0.000021524505    -0.000006120701     0.000007806768
      13       -0.000013005910     0.000020777784    -0.000004023409
      14        0.000002086225     0.000000127204     0.000000604673
      15        0.000001843470    -0.000003149388    -0.000002391197
      16       -0.000006611380     0.000000132710     0.000001223647

  **** Optimization is complete! (in 3 steps) ****
    Final optimized geometry and variables:
    Molecular point group: c1

    Geometry (in Angstrom), charge = 0, multiplicity = 1:

    H           -2.632875962096    -0.760374406875     1.191705952211
    C           -2.671753697878    -0.513740244984     0.132741285870
    O           -1.400088873114    -0.281178594381    -0.381563568323
    H           -3.093404350612    -1.350525902130    -0.406838197968
    H           -3.321388598377     0.350835908694     0.003019863198
    C           -0.726576023592     0.782552401973     0.214172634515
    C            0.712510108586     0.782073638680    -0.245548986177
    H           -1.194661335969     1.728419268941    -0.060581075334
    H           -0.752317637524     0.698121982059     1.298540993058
    O            1.384832604304    -0.280758105370     0.352563458678
    H            0.743459096200     0.698239957549    -1.330012947576
    H            1.178373079921     1.728520185834     0.031635718078
    C            2.698636187171    -0.438018046832    -0.077237304057
    H            2.746881556954    -0.636196162613    -1.146119759890
    H            3.298401650616     0.445466594592     0.137214433198
    H            3.117055803756    -1.281475504731     0.454404247197

  Mulliken Charges: (a.u.)
   Center  Symbol    Alpha    Beta     Spin     Total
       1     H     0.42755  0.42755  0.00000  0.14491
       2     C     3.07947  3.07947  0.00000 -0.15894
       3     O     4.30129  4.30129  0.00000 -0.60258
       4     H     0.41150  0.41150  0.00000  0.17700
       5     H     0.43200  0.43200  0.00000  0.13601
       6     C     2.99344  2.99344  0.00000  0.01313
       7     C     2.99353  2.99353  0.00000  0.01294
       8     H     0.43161  0.43161  0.00000  0.13678
       9     H     0.42302  0.42302  0.00000  0.15397
      10     O     4.30105  4.30105  0.00000 -0.60210
      11     H     0.42260  0.42260  0.00000  0.15480
      12     H     0.43227  0.43227  0.00000  0.13546
      13     C     3.07950  3.07950  0.00000 -0.15900
      14     H     0.42800  0.42800  0.00000  0.14399
      15     H     0.43182  0.43182  0.00000  0.13636
      16     H     0.41136  0.41136  0.00000  0.17728

   Total alpha = 25.00000, Total beta = 25.00000, Total charge = -0.00000
