  ==> Input File <==

--------------------------------------------------------------------------
set {
	reference rhf
	basis 6-31G*
}

set_num_threads( 1 )
memory 2 gb

molecule MOL {
0 1

O	 0.749854	 1.307668	 -0.000040
C	 0.576249	 0.131685	 -0.000108
C	 -0.766779	 -0.556801	 -0.000461
O	 1.568443	 -0.749345	 -0.000005
C	 -1.945214	 0.412366	 0.000161
H	 -0.796911	 -1.211249	 -0.867467
H	 -0.796854	 -1.212390	 0.865687
C	 -3.287791	 -0.317055	 0.000105
H	 -1.876087	 1.060580	 -0.866812
H	 -1.875822	 1.059691	 0.867761
H	 -3.394745	 -0.949193	 -0.877058
H	 -4.111778	 0.388953	 0.000015
H	 -3.394954	 -0.949187	 0.877259
C	 2.467762	 -0.704342	 1.092884
H	 2.958857	 0.256910	 1.141484
H	 3.190421	 -1.484804	 0.912574
H	 1.946172	 -0.884172	 2.021924

	symmetry c1
}
set optking {
	frozen_dihedral = ("
		1 2 3 6,
		9 5 3 6
	")
}

ee = energy('scf')
oeprop('DIPOLE', 'QUADRUPOLE', 'MULLIKEN_CHARGES')
f=open( 'psi4out.xyz', 'w' )
f.write( "17  " )
f.write( str(ee) + "\n" )
f.write( MOL.save_string_xyz() )
f.close()
--------------------------------------------------------------------------

    Molecular point group: c1

    Geometry (in Angstrom), charge = 0, multiplicity = 1:

       Center              X                  Y                   Z               Mass
    ------------   -----------------  -----------------  -----------------  -----------------
           O          0.814553970573     1.380511620455    -0.168726519630    15.994914619560
           C          0.640948970573     0.204528620455    -0.168794519630    12.000000000000
           C         -0.702079029427    -0.483957379545    -0.169147519630    12.000000000000
           O          1.633142970573    -0.676501379545    -0.168691519630    15.994914619560
           C         -1.880514029427     0.485209620455    -0.168525519630    12.000000000000
           H         -0.732211029427    -1.138405379545    -1.036153519630     1.007825032070
           H         -0.732154029427    -1.139546379545     0.697000480370     1.007825032070
           C         -3.223091029427    -0.244211379545    -0.168581519630    12.000000000000
           H         -1.811387029427     1.133423620455    -1.035498519630     1.007825032070
           H         -1.811122029427     1.132534620455     0.699074480370     1.007825032070
           H         -3.330045029427    -0.876349379545    -1.045744519630     1.007825032070
           H         -4.047078029427     0.461796620455    -0.168671519630     1.007825032070
           H         -3.330254029427    -0.876343379545     0.708572480370     1.007825032070
           C          2.532461970573    -0.631498379545     0.924197480370    12.000000000000
           H          3.023556970573     0.329753620455     0.972797480370     1.007825032070
           H          3.255120970573    -1.411960379545     0.743887480370     1.007825032070
           H          2.010871970573    -0.811328379545     1.853237480370     1.007825032070

  Charge       = 0
  Multiplicity = 1
  Basis Set: 6-31G*
  Basis Set:

    Orbital Energies (a.u.)
    -----------------------

    Doubly Occupied:

       1A    -20.590723     2A    -20.552233     3A    -11.373688
       4A    -11.289926     5A    -11.236687     6A    -11.222018
       7A    -11.215044     8A     -1.465731     9A     -1.365311
      10A     -1.080053    11A     -0.998556    12A     -0.947047
      13A     -0.830391    14A     -0.768090    15A     -0.699565
      16A     -0.681028    17A     -0.673718    18A     -0.634704
      19A     -0.610457    20A     -0.576784    21A     -0.566463
      22A     -0.536680    23A     -0.518441    24A     -0.494901
      25A     -0.489393    26A     -0.479626    27A     -0.453794
      28A     -0.434572

  @DF-RHF Final Energy:  -344.89175265088471

   => Energetics <=

    Nuclear Repulsion Energy =            312.8374840457357209
    One-Electron Energy =               -1089.8872734984715862
    Two-Electron Energy =                 432.1580368018501872
    DFT Exchange-Correlation Energy =       0.0000000000000000
    Empirical Dispersion Energy =           0.0000000000000000
    PCM Polarization Energy =               0.0000000000000000
    EFP Energy =                            0.0000000000000000
    Total Energy =                       -344.8917526508857350

  Mulliken Charges: (a.u.)
   Center  Symbol    Alpha    Beta     Spin     Total
       1     O     4.26851  4.26851  0.00000 -0.53701
       2     C     2.60947  2.60947  0.00000  0.78106
       3     C     3.20826  3.20826  0.00000 -0.41652
       4     O     4.31078  4.31078  0.00000 -0.62156
       5     C     3.15296  3.15296  0.00000 -0.30592
       6     H     0.39930  0.39930  0.00000  0.20141
       7     H     0.40626  0.40626  0.00000  0.18747
       8     C     3.24252  3.24252  0.00000 -0.48504
       9     H     0.40997  0.40997  0.00000  0.18006
      10     H     0.41214  0.41214  0.00000  0.17572
      11     H     0.42103  0.42103  0.00000  0.15793
      12     H     0.41516  0.41516  0.00000  0.16969
      13     H     0.42221  0.42221  0.00000  0.15558
      14     C     3.09458  3.09458  0.00000 -0.18916
      15     H     0.40325  0.40325  0.00000  0.19349
      16     H     0.40422  0.40422  0.00000  0.19156
      17     H     0.41938  0.41938  0.00000  0.16123

   Total alpha = 28.00000, Total beta = 28.00000, Total charge = -0.00000
