  ==> Input File <==

--------------------------------------------------------------------------
set {
	reference rhf
	basis cc-pvtz
}

set_num_threads( 4 )
memory 2 gb

molecule MOL {
0 1

O	 -0.694481	 1.313155	 -0.204815
C	 -0.862519	 0.151932	 -0.046791
C	 -2.171428	 -0.477048	 0.339095
O	 0.085519	 -0.757083	 -0.192238
H	 -2.467997	 -1.191667	 -0.417688
H	 -2.923379	 0.287970	 0.444097
H	 -2.053854	 -1.015120	 1.270901
C	 1.137784	 -0.807981	 0.764124
C	 0.756056	 -1.636524	 1.973132
H	 1.406736	 0.196755	 1.050456
H	 1.965797	 -1.256802	 0.236199
H	 1.602751	 -1.707835	 2.646536
H	 -0.066575	 -1.182722	 2.508598
H	 0.472081	 -2.638830	 1.675920

	symmetry c1
}
set optking {
	frozen_dihedral = ("
		8 4 2 1
	")
}

ee = optimize('scf')
oeprop('DIPOLE', 'QUADRUPOLE', 'MULLIKEN_CHARGES')
f=open( 'psi4out.xyz', 'w' )
f.write( "14  " )
f.write( str(ee) + "\n" )
f.write( MOL.save_string_xyz() )
f.close()
--------------------------------------------------------------------------

    Molecular point group: c1
  Charge       = 0
  Multiplicity = 1
  Basis Set: CC-PVTZ
  Basis Set:
  @DF-RHF Final Energy:  -305.97278026614049
    Total Energy =                       -305.9727802661404894
    Molecular point group: c1
  Basis Set: CC-PVTZ
  Basis Set:
  Basis Set: CC-PVTZ
  Basis Set:
  @DF-RHF Final Energy:  -305.97353922716286
    Total Energy =                       -305.9735392271631440
  Basis Set: CC-PVTZ
  Basis Set:
  Basis Set: CC-PVTZ
  Basis Set:
  @DF-RHF Final Energy:  -305.97456766495583
    Total Energy =                       -305.9745676649554866
  Basis Set: CC-PVTZ
  Basis Set:
  Basis Set: CC-PVTZ
  Basis Set:
  @DF-RHF Final Energy:  -305.97471172525650
    Total Energy =                       -305.9747117252564976
  Basis Set: CC-PVTZ
  Basis Set:
  Basis Set: CC-PVTZ
  Basis Set:
  @DF-RHF Final Energy:  -305.97471830928026
    Total Energy =                       -305.9747183092805471
  Basis Set: CC-PVTZ
  Basis Set:
  Basis Set: CC-PVTZ
  Basis Set:
  @DF-RHF Final Energy:  -305.97469074057096
    Total Energy =                       -305.9746907405711909
  Basis Set: CC-PVTZ
  Basis Set:
  Basis Set: CC-PVTZ
  Basis Set:
  @DF-RHF Final Energy:  -305.97471782703656
    Total Energy =                       -305.9747178270368977
  Basis Set: CC-PVTZ
  Basis Set:
  Charge       = 0
  Multiplicity = 1
  Basis Set: CC-PVTZ
  Basis Set:

    Orbital Energies (a.u.)
    -----------------------

    Doubly Occupied:

       1A    -20.577779     2A    -20.542765     3A    -11.369567
       4A    -11.290950     5A    -11.233966     6A    -11.227883
       7A     -1.461323     8A     -1.367526     9A     -1.050436
      10A     -1.010086    11A     -0.886198    12A     -0.764876
      13A     -0.698023    14A     -0.683155    15A     -0.669333
      16A     -0.616879    17A     -0.593221    18A     -0.574025
      19A     -0.559674    20A     -0.551388    21A     -0.512086
      22A     -0.494919    23A     -0.453259    24A     -0.441458

  @DF-RHF Final Energy:  -305.97471933125757

   => Energetics <=

    Nuclear Repulsion Energy =            248.7795832434432270
    One-Electron Energy =                -910.2470542256135104
    Two-Electron Energy =                 355.4927516509125667
    DFT Exchange-Correlation Energy =       0.0000000000000000
    Empirical Dispersion Energy =           0.0000000000000000
    PCM Polarization Energy =               0.0000000000000000
    EFP Energy =                            0.0000000000000000
    Total Energy =                       -305.9747193312577451
    Molecular point group: c1
  Basis Set: CC-PVTZ
  Basis Set:

  -Total Gradient:
     Atom            X                  Y                   Z
    ------   -----------------  -----------------  -----------------
       1       -0.002351569079    -0.000182483756    -0.008819082455
       2        0.001642088034    -0.002283628303     0.014884420319
       3        0.000007913357    -0.000018506070    -0.000043095429
       4        0.004343943438     0.007561961976    -0.009672516605
       5       -0.000004084385     0.000002024883     0.000003809858
       6        0.000002914018    -0.000003451466    -0.000017038970
       7       -0.000003018529    -0.000013344151     0.000003587157
       8       -0.003628643851    -0.005065012964     0.003652167394
       9       -0.000010976485     0.000005067372    -0.000003942709
      10        0.000000056205     0.000001282694     0.000005594239
      11        0.000004301288    -0.000001025157    -0.000000683842
      12       -0.000001258009     0.000003228062    -0.000004446707
      13       -0.000000498067    -0.000002655046     0.000007226367
      14       -0.000001167934    -0.000003458073     0.000004001380

  **** Optimization is complete! (in 8 steps) ****
    Final optimized geometry and variables:
    Molecular point group: c1

    Geometry (in Angstrom), charge = 0, multiplicity = 1:

    O           -0.423905393869     1.682946302688    -0.496038972607
    C           -0.593080153054     0.519373123612    -0.424530268999
    C           -1.928816092240    -0.130042144963    -0.199130042714
    O            0.387391575931    -0.365320521836    -0.677293314947
    H           -2.160318790961    -0.756352535749    -1.051619359815
    H           -2.690509614576     0.622373231125    -0.072629422124
    H           -1.887518188226    -0.772189100483     0.671361457024
    C            1.463585403443    -0.466926039746     0.242792964284
    C            1.080548756785    -1.210679004187     1.506857099493
    H            1.831474514014     0.525559549381     0.469087449416
    H            2.237638433231    -0.998781729779    -0.288762918523
    H            1.957336075989    -1.333138032853     2.132249261727
    H            0.339598974748    -0.667858852651     2.082344921711
    H            0.687016340474    -2.192031255614     1.272636402918

  Mulliken Charges: (a.u.)
   Center  Symbol    Alpha    Beta     Spin     Total
       1     O     4.17537  4.17537  0.00000 -0.35075
       2     C     2.80342  2.80342  0.00000  0.39317
       3     C     3.13842  3.13842  0.00000 -0.27684
       4     O     4.17464  4.17464  0.00000 -0.34928
       5     H     0.44312  0.44312  0.00000  0.11376
       6     H     0.43723  0.43723  0.00000  0.12554
       7     H     0.44984  0.44984  0.00000  0.10033
       8     C     2.98371  2.98371  0.00000  0.03257
       9     C     3.15334  3.15334  0.00000 -0.30668
      10     H     0.44953  0.44953  0.00000  0.10094
      11     H     0.44603  0.44603  0.00000  0.10793
      12     H     0.44419  0.44419  0.00000  0.11162
      13     H     0.45326  0.45326  0.00000  0.09348
      14     H     0.44789  0.44789  0.00000  0.10422

   Total alpha = 24.00000, Total beta = 24.00000, Total charge =  0.00000
