                              Psi4 1.0.54 Driver

  ==> Input File <==

--------------------------------------------------------------------------
set {
	reference rhf
	basis cc-pvtz
}

set_num_threads( 4 )
memory 2 gb

molecule MOL {
0 1

H	 0.939115	 -2.679183	 -0.019564
C	 0.551641	 -2.374616	 0.961637
C	 -0.713967	 -1.563659	 0.924449
O	 1.127371	 -2.684045	 1.946738
C	 -0.554654	 -0.292621	 0.086567
H	 -1.002833	 -1.331938	 1.941158
H	 -1.488875	 -2.189642	 0.486797
C	 -1.846385	 0.513195	 -0.016346
H	 0.223572	 0.327134	 0.522693
H	 -0.215401	 -0.555952	 -0.912050
C	 -3.089953	 -0.365049	 -0.098564
H	 -1.798267	 1.154820	 -0.891143
H	 -1.925398	 1.173265	 0.842889
H	 -3.055079	 -1.012299	 -0.968245
H	 -3.988403	 0.236438	 -0.170014
H	 -3.183055	 -0.995885	 0.779079

	symmetry c1
}
set optking {
	frozen_dihedral = ("
		9 5 8 12
	")
}

ee,wfn = optimize('scf', return_wfn=True)
oeprop( wfn, 'DIPOLE', 'QUADRUPOLE', 'MULLIKEN_CHARGES')
f=open( 'psi4out.xyz', 'w' )
f.write( "16  " )
f.write( str(ee) + "\n" )
f.write( MOL.save_string_xyz() )
f.close()
--------------------------------------------------------------------------

    Molecular point group: c1
  Charge       = 0
  Multiplicity = 1
  Basis Set: CC-PVTZ
  Basis Set:
  @DF-RHF Final Energy:  -270.11241857463995
    Total Energy =                       -270.1124185746401167
    Molecular point group: c1
  Basis Set: CC-PVTZ
  Basis Set:
  Basis Set: CC-PVTZ
  Basis Set:
  @DF-RHF Final Energy:  -270.10924448704657
    Total Energy =                       -270.1092444870465670
  Basis Set: CC-PVTZ
  Basis Set:
  Basis Set: CC-PVTZ
  Basis Set:
  @DF-RHF Final Energy:  -270.11446203352830
    Total Energy =                       -270.1144620335280706
  Basis Set: CC-PVTZ
  Basis Set:
  Basis Set: CC-PVTZ
  Basis Set:
  @DF-RHF Final Energy:  -270.11471681541832
    Total Energy =                       -270.1147168154180918
  Basis Set: CC-PVTZ
  Basis Set:
  @DF-RHF Final Energy:  -270.11315870869328
    Total Energy =                       -270.1131587086932768
  @DF-RHF Final Energy:  -270.11471344250037
    Total Energy =                       -270.1147134425004879
  Basis Set: CC-PVTZ
  Basis Set:
  @DF-RHF Final Energy:  -270.11475634526369
    Total Energy =                       -270.1147563452639133
  Basis Set: CC-PVTZ
  Basis Set:
  Basis Set: CC-PVTZ
  Basis Set:
  @DF-RHF Final Energy:  -270.11475622240999
    Total Energy =                       -270.1147562224100511
  Basis Set: CC-PVTZ
  Basis Set:
  Basis Set: CC-PVTZ
  Basis Set:
  @DF-RHF Final Energy:  -270.11475915258222
    Total Energy =                       -270.1147591525822236
  Basis Set: CC-PVTZ
  Basis Set:
  Charge       = 0
  Multiplicity = 1
  Basis Set: CC-PVTZ
  Basis Set:

    Orbital Energies (a.u.)
    -----------------------

    Doubly Occupied:

       1A    -20.551481     2A    -11.320764     3A    -11.235287
       4A    -11.233034     5A    -11.228115     6A    -11.217547
       7A     -1.406276     8A     -1.096684     9A     -1.015927
      10A     -0.915983    11A     -0.809696    12A     -0.787957
      13A     -0.678748    14A     -0.652667    15A     -0.640750
      16A     -0.590251    17A     -0.577803    18A     -0.570351
      19A     -0.527458    20A     -0.520735    21A     -0.487903
      22A     -0.477660    23A     -0.471518    24A     -0.411673

  @DF-RHF Final Energy:  -270.11475929276958

   => Energetics <=

    Nuclear Repulsion Energy =            232.7885024909281526
    One-Electron Energy =                -826.9539865338065283
    Two-Electron Energy =                 324.0507247501087704
    DFT Exchange-Correlation Energy =       0.0000000000000000
    Empirical Dispersion Energy =           0.0000000000000000
    PCM Polarization Energy =               0.0000000000000000
    EFP Energy =                            0.0000000000000000
    Total Energy =                       -270.1147592927695769
    Molecular point group: c1
  Basis Set: CC-PVTZ
  Basis Set:

  -Total Gradient:
     Atom            X                  Y                   Z
    ------   -----------------  -----------------  -----------------
       1        0.000003880282     0.000007848832     0.000000213389
       2        0.000000247055    -0.000014301040     0.000024095940
       3        0.000007066878     0.000028422793    -0.000013326994
       4       -0.000017680909    -0.000003536837    -0.000023112619
       5        0.002122027091     0.001008265096    -0.006686764323
       6        0.000006333079    -0.000007792387    -0.000015790066
       7        0.000009462860     0.000000267549     0.000020182719
       8        0.002095339665     0.004485039455     0.005046795720
       9       -0.002124540765    -0.001533028928     0.004898108039
      10        0.000001777723     0.000000310282     0.000002523201
      11        0.000004888612    -0.000003650059     0.000001717436
      12       -0.002110959116    -0.003969120904    -0.003251652529
      13        0.000000514624    -0.000002050492    -0.000001804271
      14        0.000001006014    -0.000000052794     0.000002381889
      15        0.000001598438    -0.000000659207    -0.000001276077
      16       -0.000000961527     0.000004038639    -0.000002291454

  **** Optimization is complete! (in 10 steps) ****
    Final optimized geometry and variables:
    Molecular point group: c1

    Geometry (in Angstrom), charge = 0, multiplicity = 1:

    H            1.802033748204    -1.598247739370    -0.321574195230
    C            1.278963719563    -1.236009787339     0.573476933739
    C            0.005523428958    -0.483021239841     0.306928765024
    O            1.729429904553    -1.445313708884     1.646444250864
    C            0.263198698255     0.741310026656    -0.582178570923
    H           -0.427107898952    -0.197267315414     1.257160759603
    H           -0.676690425521    -1.170040235696    -0.184744804411
    C           -0.973778077527     1.613764745101    -0.844338050148
    H            1.004448624789     1.346978310542    -0.070792962673
    H            0.693066053330     0.416431372113    -1.524254499363
    C           -2.265285602359     0.847219141730    -1.128434855716
    H           -0.770674967914     2.222648847899    -1.718903542024
    H           -1.131607789922     2.284237571564    -0.007122376307
    H           -2.138383066139     0.150760668945    -1.951354794681
    H           -3.055967075675     1.535534901058    -1.402551064714
    H           -2.607478705588     0.286183936531    -0.267597874640

  Mulliken Charges: (a.u.)
   Center  Symbol    Alpha    Beta     Spin     Total
       1     H     0.46613  0.46613  0.00000  0.06774
       2     C     2.91125  2.91125  0.00000  0.17751
       3     C     3.07908  3.07908  0.00000 -0.15816
       4     O     4.16404  4.16404  0.00000 -0.32809
       5     C     3.10939  3.10939  0.00000 -0.21878
       6     H     0.44237  0.44237  0.00000  0.11527
       7     H     0.44776  0.44776  0.00000  0.10449
       8     C     3.08790  3.08790  0.00000 -0.17580
       9     H     0.44243  0.44243  0.00000  0.11513
      10     H     0.44856  0.44856  0.00000  0.10288
      11     C     3.15844  3.15844  0.00000 -0.31687
      12     H     0.44792  0.44792  0.00000  0.10416
      13     H     0.44770  0.44770  0.00000  0.10460
      14     H     0.45350  0.45350  0.00000  0.09301
      15     H     0.44287  0.44287  0.00000  0.11426
      16     H     0.45067  0.45067  0.00000  0.09866

   Total alpha = 24.00000, Total beta = 24.00000, Total charge = -0.00000

*** Psi4 exiting successfully. Buy a developer a beer!
