                              Psi4 1.0.54 Driver

  ==> Input File <==

--------------------------------------------------------------------------
set {
	reference rhf
	basis cc-pvtz
}

set_num_threads( 4 )
memory 2 gb

molecule MOL {
0 1

H	 -3.436473	 1.252944	 -1.023892
O	 -3.458596	 0.315260	 -0.960865
C	 -3.176635	 -0.080824	 0.355601
C	 -1.763371	 0.265266	 0.799691
H	 -3.321825	 -1.153438	 0.379502
H	 -3.895468	 0.357385	 1.043382
C	 -0.673390	 -0.426948	 -0.013392
H	 -1.631049	 1.344913	 0.747560
H	 -1.664587	 -0.001624	 1.849167
C	 -1.144982	 -0.870863	 -1.395605
H	 -0.306033	 -1.284919	 0.538738
H	 0.170852	 0.249929	 -0.121089
C	 -0.047969	 -1.558413	 -2.206091
H	 -1.994181	 -1.537590	 -1.280604
H	 -1.508202	 -0.006720	 -1.948040
C	 -0.448659	 -1.950100	 -3.629424
H	 0.289504	 -2.444361	 -1.673121
H	 0.810265	 -0.894308	 -2.261028
C	 -1.521239	 -3.033298	 -3.715424
H	 0.437592	 -2.297097	 -4.151850
H	 -0.786752	 -1.065495	 -4.162891
H	 -1.213160	 -3.928836	 -3.185163
H	 -1.707007	 -3.309236	 -4.747214
H	 -2.463329	 -2.706245	 -3.292214

	symmetry c1
}
set optking {
	frozen_dihedral = ("
		11 7 4 3
	")
}

ee,wfn = optimize('scf', return_wfn=True)
oeprop( wfn, 'DIPOLE', 'QUADRUPOLE', 'MULLIKEN_CHARGES')
f=open( 'psi4out.xyz', 'w' )
f.write( "24  " )
f.write( str(ee) + "\n" )
f.write( MOL.save_string_xyz() )
f.close()
--------------------------------------------------------------------------

    Molecular point group: c1
  Charge       = 0
  Multiplicity = 1
  Basis Set: CC-PVTZ
  Basis Set:
  @DF-RHF Final Energy:  -349.36337137117556
    Total Energy =                       -349.3633713711752762
    Molecular point group: c1
  Basis Set: CC-PVTZ
  Basis Set:
  Basis Set: CC-PVTZ
  Basis Set:
  @DF-RHF Final Energy:  -349.37033463661606
    Total Energy =                       -349.3703346366163487
  Basis Set: CC-PVTZ
  Basis Set:
  Basis Set: CC-PVTZ
  Basis Set:
  @DF-RHF Final Energy:  -349.37169039358531
    Total Energy =                       -349.3716903935846858
  Basis Set: CC-PVTZ
  Basis Set:
  Basis Set: CC-PVTZ
  Basis Set:
  @DF-RHF Final Energy:  -349.37190034958758
    Total Energy =                       -349.3719003495874631
  Basis Set: CC-PVTZ
  Basis Set:
  Basis Set: CC-PVTZ
  Basis Set:
  @DF-RHF Final Energy:  -349.37195708629190
    Total Energy =                       -349.3719570862915589
  Basis Set: CC-PVTZ
  Basis Set:
  Basis Set: CC-PVTZ
  Basis Set:
  @DF-RHF Final Energy:  -349.37196085999267
    Total Energy =                       -349.3719608599933508
  Basis Set: CC-PVTZ
  Basis Set:
  Basis Set: CC-PVTZ
  Basis Set:
  @DF-RHF Final Energy:  -349.37196494384659
    Total Energy =                       -349.3719649438464785
  Basis Set: CC-PVTZ
  Basis Set:
  Charge       = 0
  Multiplicity = 1
  Basis Set: CC-PVTZ
  Basis Set:

    Orbital Energies (a.u.)
    -----------------------

    Doubly Occupied:

       1A    -20.546424     2A    -11.266355     3A    -11.216998
       4A    -11.211606     5A    -11.207876     6A    -11.205513
       7A    -11.202351     8A    -11.200481     9A     -1.365118
      10A     -1.084628    11A     -1.044628    12A     -0.983029
      13A     -0.913970    14A     -0.859542    15A     -0.793412
      16A     -0.770363    17A     -0.683819    18A     -0.649539
      19A     -0.625967    20A     -0.612485    21A     -0.598438
      22A     -0.584022    23A     -0.552282    24A     -0.540584
      25A     -0.517821    26A     -0.505192    27A     -0.501613
      28A     -0.483100    29A     -0.464384    30A     -0.456003
      31A     -0.447138    32A     -0.434776    33A     -0.422766

  @DF-RHF Final Energy:  -349.37196534747972

   => Energetics <=

    Nuclear Repulsion Energy =            396.1404922739399694
    One-Electron Energy =               -1259.1204820809889497
    Two-Electron Energy =                 513.6080244595693785
    DFT Exchange-Correlation Energy =       0.0000000000000000
    Empirical Dispersion Energy =           0.0000000000000000
    PCM Polarization Energy =               0.0000000000000000
    EFP Energy =                            0.0000000000000000
    Total Energy =                       -349.3719653474795450
    Molecular point group: c1
  Basis Set: CC-PVTZ
  Basis Set:

  -Total Gradient:
     Atom            X                  Y                   Z
    ------   -----------------  -----------------  -----------------
       1        0.000002578234     0.000001505346     0.000005214801
       2       -0.000016295021    -0.000003081578     0.000007859401
       3       -0.000117272187     0.002864419908    -0.002696987279
       4        0.001028565458    -0.003508011999     0.004349613346
       5        0.000006115540     0.000016522329    -0.000005195409
       6        0.000007354232     0.000004611320    -0.000017257931
       7       -0.004653939792    -0.002443094609    -0.003429122034
       8       -0.000012331270    -0.000001803336     0.000000697703
       9        0.000010913963    -0.000004320982    -0.000007384734
      10       -0.000025815351    -0.000025570366     0.000002967079
      11        0.003734122629     0.003069517093     0.001777358282
      12       -0.000007255888     0.000002131698     0.000001772258
      13       -0.000006620085     0.000042833840     0.000007712447
      14        0.000004211279    -0.000006910613    -0.000015115842
      15        0.000013542816    -0.000000080453     0.000015424141
      16        0.000026967203    -0.000034533451    -0.000003663643
      17        0.000015072282     0.000004134720    -0.000009537122
      18        0.000004701123     0.000006201995    -0.000002351668
      19       -0.000003914995     0.000010849189     0.000004451021
      20       -0.000007157480    -0.000011225981    -0.000003186579
      21        0.000009983973    -0.000005842638     0.000001856319
      22        0.000002122454     0.000009903331    -0.000009649581
      23       -0.000006399395     0.000005976706     0.000003539120
      24       -0.000009249727     0.000005868535     0.000020985901

  **** Optimization is complete! (in 8 steps) ****
    Final optimized geometry and variables:
    Molecular point group: c1

    Geometry (in Angstrom), charge = 0, multiplicity = 1:

    H           -2.053465434860     2.391749311092     0.607041559521
    O           -2.116238208847     1.453904717979     0.610593566156
    C           -1.629232278062     0.951621543390     1.825909626900
    C           -0.151095597129     1.237877839028     2.065212589787
    H           -1.821721876013    -0.113231997337     1.808716943265
    H           -2.202564668596     1.362713728205     2.653114865004
    C            0.882930571942     0.474671310585     1.208340803784
    H           -0.011242300154     2.308095829202     1.925909947567
    H            0.059387596200     1.050609789167     3.113292764134
    C            0.446699834196    -0.030871945978    -0.165432341762
    H            1.279497918097    -0.350636147985     1.793571328986
    H            1.736618143365     1.132499157169     1.068937620286
    C            1.575360595685    -0.773010182249    -0.879653186569
    H           -0.413417671201    -0.680524851443    -0.064150314259
    H            0.120331213843     0.803141373923    -0.776633237670
    C            1.242739356991    -1.224956884115    -2.302813649160
    H            1.868377092357    -1.639257785128    -0.290056763489
    H            2.448547742231    -0.127016160812    -0.920581418855
    C            0.142216693001    -2.279047756904    -2.396773420115
    H            2.145471014462    -1.622992748481    -2.756585119735
    H            0.962030764580    -0.359013119755    -2.896463330369
    H            0.389586259127    -3.153986987481    -1.803697740322
    H            0.008227040035    -2.604135342171    -3.422335091032
    H           -0.811032340209    -1.901091270690    -2.048245104739

  Mulliken Charges: (a.u.)
   Center  Symbol    Alpha    Beta     Spin     Total
       1     H     0.39583  0.39583  0.00000  0.20835
       2     O     4.20360  4.20360  0.00000 -0.40721
       3     C     2.99059  2.99059  0.00000  0.01882
       4     C     3.09592  3.09592  0.00000 -0.19183
       5     H     0.45533  0.45533  0.00000  0.08935
       6     H     0.45457  0.45457  0.00000  0.09086
       7     C     3.10271  3.10271  0.00000 -0.20543
       8     H     0.46041  0.46041  0.00000  0.07917
       9     H     0.44873  0.44873  0.00000  0.10255
      10     C     3.08346  3.08346  0.00000 -0.16692
      11     H     0.45230  0.45230  0.00000  0.09541
      12     H     0.45169  0.45169  0.00000  0.09662
      13     C     3.09591  3.09591  0.00000 -0.19181
      14     H     0.44940  0.44940  0.00000  0.10121
      15     H     0.45037  0.45037  0.00000  0.09926
      16     C     3.08878  3.08878  0.00000 -0.17757
      17     H     0.45594  0.45594  0.00000  0.08812
      18     H     0.45119  0.45119  0.00000  0.09762
      19     C     3.15406  3.15406  0.00000 -0.30812
      20     H     0.44996  0.44996  0.00000  0.10009
      21     H     0.45519  0.45519  0.00000  0.08961
      22     H     0.45617  0.45617  0.00000  0.08765
      23     H     0.44707  0.44707  0.00000  0.10586
      24     H     0.45083  0.45083  0.00000  0.09834

   Total alpha = 33.00000, Total beta = 33.00000, Total charge = -0.00000

*** Psi4 exiting successfully. Buy a developer a beer!
