  ==> Input File <==

--------------------------------------------------------------------------
set {
	reference rhf
	basis 6-31G*
}

set_num_threads( 4 )
memory 2 gb

molecule MOL {
0 1

H	 3.089270	 -1.380733	 0.000000
O	 2.178328	 -1.639175	 0.000000
C	 1.368216	 -0.558384	 0.000000
C	 1.734606	 0.646269	 0.586409
C	 0.133669	 -0.682150	 -0.613193
H	 2.695821	 0.740477	 1.063093
C	 0.867119	 1.725343	 0.559309
H	 -0.150577	 -1.612081	 -1.066523
C	 -0.728885	 0.402996	 -0.635912
H	 1.161734	 2.652483	 1.016464
C	 -0.368635	 1.610576	 -0.051325
C	 -2.056729	 0.276874	 -1.293021
H	 -1.044014	 2.447460	 -0.073541
O	 -2.457097	 -0.711249	 -1.820149
H	 -2.672709	 1.180759	 -1.264595

	symmetry c1
}
set optking {
	frozen_dihedral = ("
		4 3 2 1
	")
}

ee = optimize('scf')
oeprop('DIPOLE', 'QUADRUPOLE', 'MULLIKEN_CHARGES')
f=open( 'psi4out.xyz', 'w' )
f.write( "15  " )
f.write( str(ee) + "\n" )
f.write( MOL.save_string_xyz() )
f.close()
--------------------------------------------------------------------------

    Molecular point group: c1
  Charge       = 0
  Multiplicity = 1
  Basis Set: 6-31G*
  Basis Set:
  @DF-RHF Final Energy:  -418.28505208405403
    Total Energy =                       -418.2850520840542003
    Molecular point group: c1
  Basis Set: 6-31G*
  Basis Set:
  Basis Set: 6-31G*
  Basis Set:
  @DF-RHF Final Energy:  -418.28512512632585
    Total Energy =                       -418.2851251263256245
  Basis Set: 6-31G*
  Basis Set:
  Basis Set: 6-31G*
  Basis Set:
  @DF-RHF Final Energy:  -418.28518924516106
    Total Energy =                       -418.2851892451610638
  Basis Set: 6-31G*
  Basis Set:
  Basis Set: 6-31G*
  Basis Set:
  @DF-RHF Final Energy:  -418.28482392239744
    Total Energy =                       -418.2848239223970950
  Basis Set: 6-31G*
  Basis Set:
  Basis Set: 6-31G*
  Basis Set:
  @DF-RHF Final Energy:  -418.28520875218265
    Total Energy =                       -418.2852087521829390
  Basis Set: 6-31G*
  Basis Set:
  Basis Set: 6-31G*
  Basis Set:
  @DF-RHF Final Energy:  -418.28521020672974
    Total Energy =                       -418.2852102067294027
  Basis Set: 6-31G*
  Basis Set:
  Charge       = 0
  Multiplicity = 1
  Basis Set: 6-31G*
  Basis Set:

    Orbital Energies (a.u.)
    -----------------------

    Doubly Occupied:

       1A    -20.598106     2A    -20.564387     3A    -11.332576
       4A    -11.310495     5A    -11.252968     6A    -11.251704
       7A    -11.250106     8A    -11.247897     9A    -11.240259
      10A     -1.416917    11A     -1.404958    12A     -1.169789
      13A     -1.048750    14A     -1.027014    15A     -0.899267
      16A     -0.845374    17A     -0.811263    18A     -0.736359
      19A     -0.701249    20A     -0.685322    21A     -0.640079
      22A     -0.636279    23A     -0.613766    24A     -0.605608
      25A     -0.563168    26A     -0.549720    27A     -0.541634
      28A     -0.510859    29A     -0.486278    30A     -0.423553
      31A     -0.353181    32A     -0.329266

  @DF-RHF Final Energy:  -418.28521050899701

   => Energetics <=

    Nuclear Repulsion Energy =            403.0155139593147169
    One-Electron Energy =               -1368.5051426590107440
    Two-Electron Energy =                 547.2044181906989024
    DFT Exchange-Correlation Energy =       0.0000000000000000
    Empirical Dispersion Energy =           0.0000000000000000
    PCM Polarization Energy =               0.0000000000000000
    EFP Energy =                            0.0000000000000000
    Total Energy =                       -418.2852105089971246
    Molecular point group: c1
  Basis Set: 6-31G*
  Basis Set:

  -Total Gradient:
     Atom            X                  Y                   Z
    ------   -----------------  -----------------  -----------------
       1        0.000062552848     0.000008031929    -0.001966727430
       2       -0.000399781750    -0.000303810804     0.003136637910
       3        0.000964503830     0.000801125625    -0.002409432968
       4       -0.000609619579    -0.000517895865     0.001257901631
       5       -0.000006429845     0.000006256614    -0.000018541375
       6        0.000001004591     0.000000504442     0.000002256007
       7       -0.000063751643     0.000043407313    -0.000042738174
       8       -0.000001837020    -0.000007151212     0.000009512458
       9       -0.000007157591    -0.000053075561    -0.000023849227
      10        0.000000947865    -0.000006578255     0.000000934349
      11        0.000060427151     0.000021041261     0.000050818530
      12        0.000017487561     0.000019637231     0.000003722563
      13       -0.000010664186    -0.000002422608    -0.000000188731
      14       -0.000003655216    -0.000005912120    -0.000000845614
      15       -0.000004027020    -0.000003157987     0.000000540076

  **** Optimization is complete! (in 7 steps) ****
    Final optimized geometry and variables:
    Molecular point group: c1

    Geometry (in Angstrom), charge = 0, multiplicity = 1:

    H            3.009425967788    -1.448832683053     0.423773367582
    O            2.097928203521    -1.704060297422     0.394547601600
    C            1.291176012548    -0.615433087630     0.365456607028
    C            1.654181020024     0.584819421677     0.964331495584
    C            0.054691654954    -0.741399859666    -0.239081925884
    H            2.610901878961     0.670404484992     1.450644057040
    C            0.787990821418     1.663972251670     0.939313680580
    H           -0.228771127133    -1.670035772291    -0.695478531854
    C           -0.814172434446     0.341084236151    -0.250266284544
    H            1.080314115408     2.589696382650     1.400594914901
    C           -0.451358485287     1.546912121124     0.333948253333
    C           -2.144668498633     0.214328358073    -0.900541944088
    H           -1.128488735338     2.382669710059     0.317692845627
    O           -2.543885333013    -0.771659159947    -1.432917311302
    H           -2.764596059893     1.115142284261    -0.862432715003

  Mulliken Charges: (a.u.)
   Center  Symbol    Alpha    Beta     Spin     Total
       1     H     0.27112  0.27112  0.00000  0.45777
       2     O     4.37804  4.37804  0.00000 -0.75608
       3     C     2.80079  2.80079  0.00000  0.39843
       4     C     3.12850  3.12850  0.00000 -0.25699
       5     C     3.11179  3.11179  0.00000 -0.22358
       6     H     0.39695  0.39695  0.00000  0.20610
       7     C     3.09653  3.09653  0.00000 -0.19307
       8     H     0.37034  0.37034  0.00000  0.25933
       9     C     3.04709  3.04709  0.00000 -0.09418
      10     H     0.39292  0.39292  0.00000  0.21416
      11     C     3.11346  3.11346  0.00000 -0.22692
      12     C     2.83252  2.83252  0.00000  0.33496
      13     H     0.39294  0.39294  0.00000  0.21411
      14     O     4.24514  4.24514  0.00000 -0.49029
      15     H     0.42187  0.42187  0.00000  0.15625

   Total alpha = 32.00000, Total beta = 32.00000, Total charge = -0.00000
