                              Psi4 1.0.54 Driver

  ==> Input File <==

--------------------------------------------------------------------------
set {
	reference rhf
	basis cc-pvtz
}

set_num_threads( 4 )
memory 2 gb

molecule MOL {
0 1

H	 -1.752232	 -2.214755	 -0.011938
C	 -1.343852	 -1.221619	 -0.018179
N	 -0.058800	 -1.097635	 -0.261688
C	 -2.148159	 -0.124236	 0.219734
C	 0.449026	 0.119242	 -0.273393
H	 -3.196988	 -0.237571	 0.417076
N	 -1.655094	 1.094230	 0.209506
C	 -0.370318	 1.215445	 -0.035100
C	 1.924033	 0.265863	 -0.538106
H	 0.033214	 2.210441	 -0.046812
C	 2.571501	 1.353795	 0.320171
H	 2.400172	 -0.685361	 -0.332615
H	 2.080826	 0.483736	 -1.587944
H	 3.636274	 1.405939	 0.126593
H	 2.426580	 1.145668	 1.372150
H	 2.143037	 2.326462	 0.105966

	symmetry c1
}
set optking {
	frozen_dihedral = ("
		12 9 5 3
	")
}

ee,wfn = optimize('scf', return_wfn=True)
oeprop( wfn, 'DIPOLE', 'QUADRUPOLE', 'MULLIKEN_CHARGES')
f=open( 'psi4out.xyz', 'w' )
f.write( "16  " )
f.write( str(ee) + "\n" )
f.write( MOL.save_string_xyz() )
f.close()
--------------------------------------------------------------------------

    Molecular point group: c1
  Charge       = 0
  Multiplicity = 1
  Basis Set: CC-PVTZ
  Basis Set:
  @DF-RHF Final Energy:  -340.86922824044314
    Total Energy =                       -340.8692282404428511
    Molecular point group: c1
  Basis Set: CC-PVTZ
  Basis Set:
  Basis Set: CC-PVTZ
  Basis Set:
  @DF-RHF Final Energy:  -340.86815848324136
    Total Energy =                       -340.8681584832417002
  Basis Set: CC-PVTZ
  Basis Set:
  Basis Set: CC-PVTZ
  Basis Set:
  @DF-RHF Final Energy:  -340.86996455916301
    Total Energy =                       -340.8699645591631224
  Basis Set: CC-PVTZ
  Basis Set:
  Basis Set: CC-PVTZ
  Basis Set:
  @DF-RHF Final Energy:  -340.87007607417513
    Total Energy =                       -340.8700760741751878
  Basis Set: CC-PVTZ
  Basis Set:
  Basis Set: CC-PVTZ
  Basis Set:
  @DF-RHF Final Energy:  -340.87009148220045
    Total Energy =                       -340.8700914822009622
  Basis Set: CC-PVTZ
  Basis Set:
  Basis Set: CC-PVTZ
  Basis Set:
  @DF-RHF Final Energy:  -340.87009488259321
    Total Energy =                       -340.8700948825932073
  Basis Set: CC-PVTZ
  Basis Set:
  Charge       = 0
  Multiplicity = 1
  Basis Set: CC-PVTZ
  Basis Set:

    Orbital Energies (a.u.)
    -----------------------

    Doubly Occupied:

       1A    -15.580067     2A    -15.575088     3A    -11.279317
       4A    -11.271195     5A    -11.268126     6A    -11.266852
       7A    -11.231772     8A    -11.221621     9A     -1.315315
      10A     -1.223118    11A     -1.086529    12A     -1.016482
      13A     -0.908381    14A     -0.894823    15A     -0.831737
      16A     -0.716643    17A     -0.712987    18A     -0.655381
      19A     -0.624307    20A     -0.609599    21A     -0.576345
      22A     -0.566048    23A     -0.522384    24A     -0.512467
      25A     -0.506399    26A     -0.483760    27A     -0.432811
      28A     -0.397318    29A     -0.346387

  @DF-RHF Final Energy:  -340.87009532596488

   => Energetics <=

    Nuclear Repulsion Energy =            349.9259507400736879
    One-Electron Energy =               -1154.3255748237343141
    Two-Electron Energy =                 463.5295287576953456
    DFT Exchange-Correlation Energy =       0.0000000000000000
    Empirical Dispersion Energy =           0.0000000000000000
    PCM Polarization Energy =               0.0000000000000000
    EFP Energy =                            0.0000000000000000
    Total Energy =                       -340.8700953259653375
    Molecular point group: c1
  Basis Set: CC-PVTZ
  Basis Set:

  -Total Gradient:
     Atom            X                  Y                   Z
    ------   -----------------  -----------------  -----------------
       1       -0.000007091305    -0.000012246772     0.000003611333
       2        0.000188202559    -0.000027545085    -0.000020318429
       3       -0.000190230041    -0.000053764380    -0.000359268816
       4       -0.000014484316     0.000206696832     0.000012825697
       5        0.000066161158     0.000071834541     0.000572800020
       6       -0.000006224732    -0.000007176342     0.000021071985
       7       -0.000163330893    -0.000105409717    -0.000028540527
       8        0.000153856027    -0.000081263347     0.000022214645
       9       -0.000096539838    -0.000015166024    -0.000613142886
      10       -0.000022617908    -0.000007076742     0.000001372180
      11        0.000052335291    -0.000026755014     0.000019096844
      12        0.000061346407     0.000059216222     0.000415579681
      13        0.000011047781     0.000000468711    -0.000025581351
      14       -0.000054659344     0.000011246529     0.000025094299
      15        0.000006486463     0.000030643952    -0.000049105917
      16        0.000015742695    -0.000043703360     0.000002291244

  **** Optimization is complete! (in 7 steps) ****
    Final optimized geometry and variables:
    Molecular point group: c1

    Geometry (in Angstrom), charge = 0, multiplicity = 1:

    H           -1.650959514133    -2.455941047590    -0.386888720384
    C           -1.280945526779    -1.459367510236    -0.236106199691
    N            0.014670079951    -1.269971193310    -0.368337660051
    C           -2.135877128003    -0.427231362851     0.084500828539
    C            0.482756547805    -0.052838518017    -0.183367535294
    H           -3.191032217196    -0.590918704851     0.191163576873
    N           -1.683624440473     0.794873753229     0.271100345914
    C           -0.391938296383     0.981074008552     0.139954627258
    C            1.967130384037     0.153338259468    -0.372266833268
    H           -0.032025699549     1.979363846588     0.293247283975
    C            2.625571869119     1.130208504756     0.600154458098
    H            2.431409741031    -0.819063233665    -0.285378677267
    H            2.139807766892     0.487623128553    -1.391470764983
    H            3.695880916560     1.147750547452     0.436117025769
    H            2.450203133994     0.837634981228     1.628857732373
    H            2.263398047813     2.142817910006     0.474032177904

  Mulliken Charges: (a.u.)
   Center  Symbol    Alpha    Beta     Spin     Total
       1     H     0.41390  0.41390  0.00000  0.17219
       2     C     3.04162  3.04162  0.00000 -0.08324
       3     N     3.59073  3.59073  0.00000 -0.18147
       4     C     3.04790  3.04790  0.00000 -0.09579
       5     C     2.95439  2.95439  0.00000  0.09121
       6     H     0.41378  0.41378  0.00000  0.17243
       7     N     3.58826  3.58826  0.00000 -0.17652
       8     C     3.07315  3.07315  0.00000 -0.14629
       9     C     3.07335  3.07335  0.00000 -0.14670
      10     H     0.41410  0.41410  0.00000  0.17180
      11     C     3.15335  3.15335  0.00000 -0.30671
      12     H     0.44111  0.44111  0.00000  0.11778
      13     H     0.44672  0.44672  0.00000  0.10655
      14     H     0.44527  0.44527  0.00000  0.10946
      15     H     0.44757  0.44757  0.00000  0.10486
      16     H     0.45478  0.45478  0.00000  0.09044

   Total alpha = 29.00000, Total beta = 29.00000, Total charge = -0.00000

*** Psi4 exiting successfully. Buy a developer a beer!
