                              Psi4 1.0.54 Driver

  ==> Input File <==

--------------------------------------------------------------------------
set {
	reference rhf
	basis cc-pvtz
}

set_num_threads( 4 )
memory 2 gb

molecule MOL {
0 1

H	 1.036457	 0.618507	 -0.175438
C	 0.788096	 -0.429819	 0.000000
N	 -0.537714	 -0.645117	 0.000000
O	 1.630334	 -1.254062	 0.167262
C	 -1.522613	 0.412524	 0.000000
H	 -0.845894	 -1.585866	 0.000000
H	 -2.150256	 0.356137	 -0.880771
H	 -1.005621	 1.357208	 0.000000
H	 -2.150256	 0.356137	 0.880771

	symmetry c1
}
set optking {
	frozen_dihedral = ("
		1 2 3 6
	")
}

ee,wfn = optimize('scf', return_wfn=True)
oeprop( wfn, 'DIPOLE', 'QUADRUPOLE', 'MULLIKEN_CHARGES')
f=open( 'psi4out.xyz', 'w' )
f.write( "9  " )
f.write( str(ee) + "\n" )
f.write( MOL.save_string_xyz() )
f.close()
--------------------------------------------------------------------------

    Molecular point group: c1
  Charge       = 0
  Multiplicity = 1
  Basis Set: CC-PVTZ
  Basis Set:
  @DF-RHF Final Energy:  -208.04079959885121
    Total Energy =                       -208.0407995988513221
    Molecular point group: c1
  Basis Set: CC-PVTZ
  Basis Set:
  Basis Set: CC-PVTZ
  Basis Set:
  @DF-RHF Final Energy:  -208.04041347785909
    Total Energy =                       -208.0404134778590901
  Basis Set: CC-PVTZ
  Basis Set:
  Basis Set: CC-PVTZ
  Basis Set:
  @DF-RHF Final Energy:  -208.04151674285498
    Total Energy =                       -208.0415167428548102
  Basis Set: CC-PVTZ
  Basis Set:
  Basis Set: CC-PVTZ
  Basis Set:
  @DF-RHF Final Energy:  -208.04165716985085
    Total Energy =                       -208.0416571698509074
  Basis Set: CC-PVTZ
  Basis Set:
  @DF-RHF Final Energy:  -208.04169991656823
    Total Energy =                       -208.0416999165682910
  Basis Set: CC-PVTZ
  Basis Set:
  @DF-RHF Final Energy:  -208.04171973425815
    Total Energy =                       -208.0417197342582369
  Basis Set: CC-PVTZ
  Basis Set:
  Basis Set: CC-PVTZ
  Basis Set:
  @DF-RHF Final Energy:  -208.04174183140282
    Total Energy =                       -208.0417418314026463
  Basis Set: CC-PVTZ
  Basis Set:
  Basis Set: CC-PVTZ
  Basis Set:
  @DF-RHF Final Energy:  -208.04175254449521
    Total Energy =                       -208.0417525444950115
  Basis Set: CC-PVTZ
  Basis Set:
  Charge       = 0
  Multiplicity = 1
  Basis Set: CC-PVTZ
  Basis Set:

    Orbital Energies (a.u.)
    -----------------------

    Doubly Occupied:

       1A    -20.517230     2A    -15.584226     3A    -11.338561
       4A    -11.274261     5A     -1.394613     6A     -1.243130
       7A     -0.966637     8A     -0.847692     9A     -0.694024
      10A     -0.678429    11A     -0.636370    12A     -0.596700
      13A     -0.570940    14A     -0.548593    15A     -0.429155
      16A     -0.395663

  @DF-RHF Final Energy:  -208.04175452244755

   => Energetics <=

    Nuclear Repulsion Energy =            120.6889946616436191
    One-Electron Energy =                -522.0290488969595799
    Two-Electron Energy =                 193.2982997128683280
    DFT Exchange-Correlation Energy =       0.0000000000000000
    Empirical Dispersion Energy =           0.0000000000000000
    PCM Polarization Energy =               0.0000000000000000
    EFP Energy =                            0.0000000000000000
    Total Energy =                       -208.0417545224476328
    Molecular point group: c1
  Basis Set: CC-PVTZ
  Basis Set:

  -Total Gradient:
     Atom            X                  Y                   Z
    ------   -----------------  -----------------  -----------------
       1       -0.000219454357    -0.000232286298    -0.002248862554
       2        0.000237662878     0.000427394275     0.002159254094
       3        0.000350272510    -0.000420476233     0.002619147861
       4        0.000009823526    -0.000021053106    -0.000002160120
       5       -0.000064325853     0.000093661012    -0.000019254431
       6       -0.000332602220     0.000161192084    -0.002516799794
       7        0.000009292190    -0.000015232866     0.000005347896
       8        0.000005637185     0.000013903990     0.000002326963
       9        0.000003694140    -0.000007102858     0.000001000084

  **** Optimization is complete! (in 9 steps) ****
    Final optimized geometry and variables:
    Molecular point group: c1

    Geometry (in Angstrom), charge = 0, multiplicity = 1:

    H            0.981366837863     1.103606374260    -0.172401345241
    C            0.717207374235     0.052597969258    -0.037421251484
    N           -0.605647383750    -0.142099647264     0.116277114286
    O            1.537852034323    -0.807840730910    -0.037886592675
    C           -1.599335715592     0.892784605056    -0.026279265845
    H           -0.901799670775    -1.090060646342     0.086282528090
    H           -2.124611961623     0.827461270063    -0.972559196155
    H           -1.119546297517     1.860038311627     0.027329582603
    H           -2.323808757886     0.837847244695     0.775512342888

  Mulliken Charges: (a.u.)
   Center  Symbol    Alpha    Beta     Spin     Total
       1     H     0.47105  0.47105  0.00000  0.05789
       2     C     2.88117  2.88117  0.00000  0.23766
       3     N     3.59788  3.59788  0.00000 -0.19576
       4     O     4.20737  4.20737  0.00000 -0.41475
       5     C     3.07258  3.07258  0.00000 -0.14516
       6     H     0.40994  0.40994  0.00000  0.18012
       7     H     0.45548  0.45548  0.00000  0.08904
       8     H     0.45428  0.45428  0.00000  0.09143
       9     H     0.45024  0.45024  0.00000  0.09952

   Total alpha = 16.00000, Total beta = 16.00000, Total charge =  0.00000

*** Psi4 exiting successfully. Buy a developer a beer!
