  ==> Input File <==

--------------------------------------------------------------------------
set {
	reference rhf
	basis 6-31G*
}

set_num_threads( 1 )
memory 2 gb

molecule MOL {
0 1

H	 2.461017	 -0.479687	 -0.619560
C	 1.951159	 -0.223429	 0.317018
C	 0.692068	 0.589600	 0.160137
O	 2.397812	 -0.583830	 1.357567
C	 -0.558097	 -0.297372	 0.091132
H	 0.791645	 1.202255	 -0.728243
H	 0.616171	 1.253469	 1.020572
C	 -1.850991	 0.512573	 -0.019058
H	 -0.476753	 -0.965681	 -0.762987
H	 -0.604799	 -0.930658	 0.975228
C	 -3.096943	 -0.368295	 -0.099594
H	 -1.800724	 1.150330	 -0.898172
H	 -1.931651	 1.177355	 0.838044
H	 -3.060452	 -1.020287	 -0.967456
H	 -3.996858	 0.233488	 -0.175704
H	 -3.191959	 -0.995686	 0.782074

	symmetry c1
}
set optking {
	frozen_dihedral = ("
		9 5 8 12,
		6 3 5 9
	")
}

ee = energy('scf')
oeprop('DIPOLE', 'QUADRUPOLE', 'MULLIKEN_CHARGES')
f=open( 'psi4out.xyz', 'w' )
f.write( "16  " )
f.write( str(ee) + "\n" )
f.write( MOL.save_string_xyz() )
f.close()
--------------------------------------------------------------------------

    Molecular point group: c1

    Geometry (in Angstrom), charge = 0, multiplicity = 1:

       Center              X                  Y                   Z               Mass
    ------------   -----------------  -----------------  -----------------  -----------------
           H          2.545628842039    -0.408217580237    -0.928243762939     1.007825032070
           C          2.035770842039    -0.151959580237     0.008334237061    12.000000000000
           C          0.776679842039     0.661069419763    -0.148546762939    12.000000000000
           O          2.482423842039    -0.512360580237     1.048883237061    15.994914619560
           C         -0.473485157961    -0.225902580237    -0.217551762939    12.000000000000
           H          0.876256842039     1.273724419763    -1.036926762939     1.007825032070
           H          0.700782842039     1.324938419763     0.711888237061     1.007825032070
           C         -1.766379157961     0.584042419763    -0.327741762939    12.000000000000
           H         -0.392141157961    -0.894211580237    -1.071670762939     1.007825032070
           H         -0.520187157961    -0.859188580237     0.666544237061     1.007825032070
           C         -3.012331157961    -0.296825580237    -0.408277762939    12.000000000000
           H         -1.716112157961     1.221799419763    -1.206855762939     1.007825032070
           H         -1.847039157961     1.248824419763     0.529360237061     1.007825032070
           H         -2.975840157961    -0.948817580237    -1.276139762939     1.007825032070
           H         -3.912246157961     0.304957419763    -0.484387762939     1.007825032070
           H         -3.107347157961    -0.924216580237     0.473390237061     1.007825032070

  Charge       = 0
  Multiplicity = 1
  Basis Set: 6-31G*
  Basis Set:

    Orbital Energies (a.u.)
    -----------------------

    Doubly Occupied:

       1A    -20.562698     2A    -11.326551     3A    -11.235473
       4A    -11.234696     5A    -11.227753     6A    -11.217132
       7A     -1.402574     8A     -1.094400     9A     -1.017665
      10A     -0.907225    11A     -0.812972    12A     -0.786732
      13A     -0.681847    14A     -0.644823    15A     -0.628987
      16A     -0.602948    17A     -0.577268    18A     -0.552130
      19A     -0.525418    20A     -0.511013    21A     -0.486078
      22A     -0.480096    23A     -0.475780    24A     -0.408095

  @DF-RHF Final Energy:  -270.01866463835086

   => Energetics <=

    Nuclear Repulsion Energy =            229.9265732376070446
    One-Electron Energy =                -821.0897073581510313
    Two-Electron Energy =                 321.1444694821937560
    DFT Exchange-Correlation Energy =       0.0000000000000000
    Empirical Dispersion Energy =           0.0000000000000000
    PCM Polarization Energy =               0.0000000000000000
    EFP Energy =                            0.0000000000000000
    Total Energy =                       -270.0186646383502307

  Mulliken Charges: (a.u.)
   Center  Symbol    Alpha    Beta     Spin     Total
       1     H     0.43092  0.43092  0.00000  0.13815
       2     C     2.83765  2.83765  0.00000  0.32471
       3     C     3.20198  3.20198  0.00000 -0.40396
       4     O     4.23603  4.23603  0.00000 -0.47206
       5     C     3.16132  3.16132  0.00000 -0.32264
       6     H     0.41477  0.41477  0.00000  0.17047
       7     H     0.40140  0.40140  0.00000  0.19721
       8     C     3.15205  3.15205  0.00000 -0.30411
       9     H     0.41914  0.41914  0.00000  0.16173
      10     H     0.40796  0.40796  0.00000  0.18408
      11     C     3.24065  3.24065  0.00000 -0.48130
      12     H     0.42136  0.42136  0.00000  0.15728
      13     H     0.41872  0.41872  0.00000  0.16256
      14     H     0.42050  0.42050  0.00000  0.15901
      15     H     0.41673  0.41673  0.00000  0.16655
      16     H     0.41884  0.41884  0.00000  0.16231

   Total alpha = 24.00000, Total beta = 24.00000, Total charge =  0.00000
