  ==> Input File <==

--------------------------------------------------------------------------
set {
	reference rhf
	basis 6-31G*
}

set_num_threads( 4 )
memory 2 gb

molecule MOL {
0 1

H	 -2.819983	 -0.115515	 0.746589
C	 -2.594377	 0.653214	 0.010180
O	 -1.227317	 0.739752	 -0.232709
H	 -3.075770	 0.395854	 -0.923183
H	 -2.999079	 1.600198	 0.364957
C	 -0.469307	 1.073903	 0.886671
C	 0.997481	 1.030159	 0.527748
H	 -0.724471	 2.077132	 1.230354
H	 -0.659324	 0.380906	 1.703772
O	 1.392611	 -0.295398	 0.366430
H	 1.159813	 1.596528	 -0.387065
H	 1.575341	 1.502851	 1.322942
C	 2.706965	 -0.449871	 -0.062409
H	 2.756559	 -0.644779	 -1.131878
H	 3.305899	 0.433456	 0.155466
H	 3.125548	 -1.294566	 0.467107

	symmetry c1
}
set optking {
	frozen_dihedral = ("
		7 10 13 14
	")
}

ee = optimize('scf')
oeprop('DIPOLE', 'QUADRUPOLE', 'MULLIKEN_CHARGES')
f=open( 'psi4out.xyz', 'w' )
f.write( "16  " )
f.write( str(ee) + "\n" )
f.write( MOL.save_string_xyz() )
f.close()
--------------------------------------------------------------------------

    Molecular point group: c1
  Charge       = 0
  Multiplicity = 1
  Basis Set: 6-31G*
  Basis Set:
  @DF-RHF Final Energy:  -306.97461924669091
    Total Energy =                       -306.9746192466910202
    Molecular point group: c1
  Basis Set: 6-31G*
  Basis Set:
  Basis Set: 6-31G*
  Basis Set:
  @DF-RHF Final Energy:  -306.97479246179040
    Total Energy =                       -306.9747924617905710
  Basis Set: 6-31G*
  Basis Set:
  Basis Set: 6-31G*
  Basis Set:
  @DF-RHF Final Energy:  -306.97483168615054
    Total Energy =                       -306.9748316861504236
  Basis Set: 6-31G*
  Basis Set:
  Charge       = 0
  Multiplicity = 1
  Basis Set: 6-31G*
  Basis Set:

    Orbital Energies (a.u.)
    -----------------------

    Doubly Occupied:

       1A    -20.553231     2A    -20.550577     3A    -11.269173
       4A    -11.268141     5A    -11.263275     6A    -11.263041
       7A     -1.386334     8A     -1.368191     9A     -1.030501
      10A     -0.936093    11A     -0.891932    12A     -0.823562
      13A     -0.682924    14A     -0.679139    15A     -0.656234
      16A     -0.633700    17A     -0.628429    18A     -0.596349
      19A     -0.552768    20A     -0.537707    21A     -0.508143
      22A     -0.477048    23A     -0.461968    24A     -0.417512
      25A     -0.407797

  @DF-RHF Final Energy:  -306.97483205819844

   => Energetics <=

    Nuclear Repulsion Energy =            258.5717279156401673
    One-Electron Energy =                -931.4055818473264026
    Two-Electron Energy =                 365.8590218734876771
    DFT Exchange-Correlation Energy =       0.0000000000000000
    Empirical Dispersion Energy =           0.0000000000000000
    PCM Polarization Energy =               0.0000000000000000
    EFP Energy =                            0.0000000000000000
    Total Energy =                       -306.9748320581985581
    Molecular point group: c1
  Basis Set: 6-31G*
  Basis Set:

  -Total Gradient:
     Atom            X                  Y                   Z
    ------   -----------------  -----------------  -----------------
       1       -0.000001708110     0.000000260731    -0.000000385723
       2        0.000001913783     0.000001178246     0.000009752756
       3        0.000016188801    -0.000010215953     0.000018466605
       4        0.000002888053    -0.000000637923    -0.000000848733
       5        0.000002206097    -0.000001017014    -0.000000233224
       6       -0.000022883820     0.000056502472    -0.000004480007
       7        0.000647585578    -0.000070214444     0.002173022460
       8       -0.000037858572     0.000018175868     0.000015002411
       9        0.000004772637     0.000002788692    -0.000026149783
      10       -0.000930510751    -0.000684649211    -0.002988526801
      11        0.000002524811    -0.000009075225     0.000009818666
      12        0.000003347014    -0.000021395972    -0.000013511793
      13        0.000514775315     0.003476540644     0.000298534962
      14       -0.000214839582    -0.002758538620     0.000508247657
      15        0.000001087821     0.000007089497     0.000001907257
      16        0.000010510927    -0.000006791789    -0.000000616708

  **** Optimization is complete! (in 4 steps) ****
    Final optimized geometry and variables:
    Molecular point group: c1

    Geometry (in Angstrom), charge = 0, multiplicity = 1:

    H           -2.947567906697    -0.583890240158     0.499240945587
    C           -2.728230704486     0.189386283841    -0.234298590270
    O           -1.362072425387     0.287132628132    -0.478014623271
    H           -3.208702470940    -0.067690088187    -1.168214696824
    H           -3.139198114741     1.131986790794     0.124786700121
    C           -0.605589618267     0.622586407417     0.642040822871
    C            0.861382246005     0.589566754273     0.282920417595
    H           -0.867475753497     1.622922687550     0.989418067888
    H           -0.790514828899    -0.074617872826     1.456630586946
    O            1.262396309080    -0.734993122692     0.119324898316
    H            1.017141857881     1.162010977176    -0.628869813422
    H            1.435273745387     1.061914060100     1.080259115418
    C            2.579684973998    -0.914606311577    -0.305704459522
    H            2.615490864092    -1.113303921133    -1.373063013579
    H            3.202964104770    -0.053567654123    -0.081208951961
    H            2.987550369198    -1.775723092571     0.210056062838

  Mulliken Charges: (a.u.)
   Center  Symbol    Alpha    Beta     Spin     Total
       1     H     0.42808  0.42808  0.00000  0.14384
       2     C     3.07944  3.07944  0.00000 -0.15889
       3     O     4.30086  4.30086  0.00000 -0.60172
       4     H     0.41136  0.41136  0.00000  0.17727
       5     H     0.43196  0.43196  0.00000  0.13608
       6     C     2.99348  2.99348  0.00000  0.01303
       7     C     2.99344  2.99344  0.00000  0.01313
       8     H     0.43246  0.43246  0.00000  0.13509
       9     H     0.42282  0.42282  0.00000  0.15436
      10     O     4.30450  4.30450  0.00000 -0.60900
      11     H     0.42268  0.42268  0.00000  0.15464
      12     H     0.43194  0.43194  0.00000  0.13612
      13     C     3.07686  3.07686  0.00000 -0.15372
      14     H     0.42218  0.42218  0.00000  0.15565
      15     H     0.43111  0.43111  0.00000  0.13778
      16     H     0.41682  0.41682  0.00000  0.16636

   Total alpha = 25.00000, Total beta = 25.00000, Total charge = -0.00000
