  ==> Input File <==

--------------------------------------------------------------------------
set {
	reference rhf
	basis cc-pvtz
}

set_num_threads( 4 )
memory 2 gb

molecule MOL {
0 1

H	 -0.484768	 1.875130	 0.351153
O	 0.057669	 1.301365	 -0.158528
C	 0.004145	 -0.005141	 0.363049
C	 1.199168	 -0.827145	 -0.096690
C	 -1.316386	 -0.602081	 -0.083515
H	 0.012026	 0.043363	 1.450619
H	 1.216685	 -0.896776	 -1.178167
H	 2.129940	 -0.372354	 0.228035
H	 1.160783	 -1.829622	 0.314294
H	 -1.357882	 -0.655920	 -1.165207
H	 -2.140147	 0.011735	 0.257253
H	 -1.440790	 -1.601175	 0.317669

	symmetry c1
}
set optking {
	frozen_dihedral = ("
		1 2 3 4
	")
}

ee = optimize('scf')
oeprop('DIPOLE', 'QUADRUPOLE', 'MULLIKEN_CHARGES')
f=open( 'psi4out.xyz', 'w' )
f.write( "12  " )
f.write( str(ee) + "\n" )
f.write( MOL.save_string_xyz() )
f.close()
--------------------------------------------------------------------------

    Molecular point group: c1
  Charge       = 0
  Multiplicity = 1
  Basis Set: CC-PVTZ
  Basis Set:
  @DF-RHF Final Energy:  -193.19398694646048
    Total Energy =                       -193.1939869464604840
    Molecular point group: c1
  Basis Set: CC-PVTZ
  Basis Set:
  Basis Set: CC-PVTZ
  Basis Set:
  @DF-RHF Final Energy:  -193.19538592606369
    Total Energy =                       -193.1953859260636932
  Basis Set: CC-PVTZ
  Basis Set:
  Basis Set: CC-PVTZ
  Basis Set:
  @DF-RHF Final Energy:  -193.19564972911337
    Total Energy =                       -193.1956497291134269
  Basis Set: CC-PVTZ
  Basis Set:
  Basis Set: CC-PVTZ
  Basis Set:
  @DF-RHF Final Energy:  -193.19565324840457
    Total Energy =                       -193.1956532484047955
  Basis Set: CC-PVTZ
  Basis Set:
  Charge       = 0
  Multiplicity = 1
  Basis Set: CC-PVTZ
  Basis Set:

    Orbital Energies (a.u.)
    -----------------------

    Doubly Occupied:

       1A    -20.544020     2A    -11.274254     3A    -11.208394
       4A    -11.204980     5A     -1.364246     6A     -1.042927
       7A     -0.938741     8A     -0.801560     9A     -0.708606
      10A     -0.619569    11A     -0.603837    12A     -0.550228
      13A     -0.538342    14A     -0.527630    15A     -0.509433
      16A     -0.466924    17A     -0.433382

  @DF-RHF Final Energy:  -193.19565377328868

   => Energetics <=

    Nuclear Repulsion Energy =            135.6351919352949551
    One-Electron Energy =                -530.9875486774969886
    Two-Electron Energy =                 202.1567029689132369
    DFT Exchange-Correlation Energy =       0.0000000000000000
    Empirical Dispersion Energy =           0.0000000000000000
    PCM Polarization Energy =               0.0000000000000000
    EFP Energy =                            0.0000000000000000
    Total Energy =                       -193.1956537732887682
    Molecular point group: c1
  Basis Set: CC-PVTZ
  Basis Set:

  -Total Gradient:
     Atom            X                  Y                   Z
    ------   -----------------  -----------------  -----------------
       1        0.001088429486     0.000224553129     0.000886902910
       2       -0.001193609531    -0.000214045540    -0.000872151827
       3       -0.000334126440    -0.000225379157    -0.000764085528
       4        0.000415652975     0.000226553839     0.000737947651
       5        0.000005494091     0.000000282794     0.000006529686
       6        0.000000974079    -0.000018719495    -0.000012748528
       7       -0.000011357374     0.000004332268    -0.000004117110
       8       -0.000005520224     0.000008563008     0.000009999032
       9        0.000003798167    -0.000003076973    -0.000008497937
      10        0.000010189659     0.000014140851     0.000010811546
      11        0.000020177219    -0.000004034680    -0.000001854622
      12       -0.000000102105    -0.000013170041     0.000011264728

  **** Optimization is complete! (in 5 steps) ****
    Final optimized geometry and variables:
    Molecular point group: c1

    Geometry (in Angstrom), charge = 0, multiplicity = 1:

    H           -0.389498093852     1.898201980337     0.321902170117
    O            0.141148260099     1.293887700927    -0.163306029570
    C           -0.001601750572    -0.007101763116     0.358837729696
    C            1.202247676502    -0.806607902650    -0.101765846133
    C           -1.319631107286    -0.624911328241    -0.083320010328
    H            0.014521347634     0.040128147491     1.446001554386
    H            1.234253654515    -0.846138698419    -1.184592489950
    H            2.116261173618    -0.343996539822     0.247336578303
    H            1.159142146528    -1.820689253353     0.278409776452
    H           -1.361873630716    -0.686713504065    -1.164468717501
    H           -2.158187599849    -0.024083369042     0.252574737524
    H           -1.438008144121    -1.622231811597     0.325787800127

  Mulliken Charges: (a.u.)
   Center  Symbol    Alpha    Beta     Spin     Total
       1     H     0.39494  0.39494  0.00000  0.21013
       2     O     4.20607  4.20607  0.00000 -0.41214
       3     C     2.92399  2.92399  0.00000  0.15202
       4     C     3.14097  3.14097  0.00000 -0.28193
       5     C     3.14177  3.14177  0.00000 -0.28354
       6     H     0.46701  0.46701  0.00000  0.06598
       7     H     0.45207  0.45207  0.00000  0.09585
       8     H     0.44782  0.44782  0.00000  0.10437
       9     H     0.45902  0.45902  0.00000  0.08196
      10     H     0.45176  0.45176  0.00000  0.09648
      11     H     0.45703  0.45703  0.00000  0.08593
      12     H     0.45755  0.45755  0.00000  0.08489

   Total alpha = 17.00000, Total beta = 17.00000, Total charge =  0.00000
