  ==> Input File <==

--------------------------------------------------------------------------
set {
	reference rhf
	basis cc-pvtz
}

set_num_threads( 4 )
memory 2 gb

molecule MOL {
0 1

O	 -0.694481	 1.313155	 -0.204815
C	 -0.862519	 0.151932	 -0.046791
C	 -2.171428	 -0.477048	 0.339095
O	 0.085519	 -0.757083	 -0.192238
H	 -2.467997	 -1.191667	 -0.417688
H	 -2.923379	 0.287970	 0.444097
H	 -2.053854	 -1.015120	 1.270901
C	 1.392036	 -0.330828	 -0.560749
C	 1.723016	 1.027476	 0.021797
H	 1.473072	 -0.322817	 -1.636474
H	 2.049480	 -1.089936	 -0.164171
H	 2.746382	 1.288249	 -0.223498
H	 1.071861	 1.790430	 -0.382284
H	 1.623914	 1.015639	 1.100515

	symmetry c1
}
set optking {
	frozen_dihedral = ("
		10 8 4 2
	")
}

ee = optimize('scf')
oeprop('DIPOLE', 'QUADRUPOLE', 'MULLIKEN_CHARGES')
f=open( 'psi4out.xyz', 'w' )
f.write( "14  " )
f.write( str(ee) + "\n" )
f.write( MOL.save_string_xyz() )
f.close()
--------------------------------------------------------------------------

    Molecular point group: c1
  Charge       = 0
  Multiplicity = 1
  Basis Set: CC-PVTZ
  Basis Set:
  @DF-RHF Final Energy:  -305.96706957760381
    Total Energy =                       -305.9670695776036382
    Molecular point group: c1
  Basis Set: CC-PVTZ
  Basis Set:
  Basis Set: CC-PVTZ
  Basis Set:
  @DF-RHF Final Energy:  -305.98076625472549
    Total Energy =                       -305.9807662547253813
  Basis Set: CC-PVTZ
  Basis Set:
  Basis Set: CC-PVTZ
  Basis Set:
  @DF-RHF Final Energy:  -305.98271159773458
    Total Energy =                       -305.9827115977345215
  Basis Set: CC-PVTZ
  Basis Set:
  Basis Set: CC-PVTZ
  Basis Set:
  @DF-RHF Final Energy:  -305.98005877193805
    Total Energy =                       -305.9800587719381042
  Basis Set: CC-PVTZ
  Basis Set:
  @DF-RHF Final Energy:  -305.98379821598894
    Total Energy =                       -305.9837982159887702
  @DF-RHF Final Energy:  -305.98388445685777
    Total Energy =                       -305.9838844568572540
  @DF-RHF Final Energy:  -305.98389729913072
    Total Energy =                       -305.9838972991307173
  Basis Set: CC-PVTZ
  Basis Set:
  @DF-RHF Final Energy:  -305.98389993832512
    Total Energy =                       -305.9838999383247256
  Basis Set: CC-PVTZ
  Basis Set:
  Basis Set: CC-PVTZ
  Basis Set:
  @DF-RHF Final Energy:  -305.98390099087078
    Total Energy =                       -305.9839009908707794
  Basis Set: CC-PVTZ
  Basis Set:
  Basis Set: CC-PVTZ
  Basis Set:
  @DF-RHF Final Energy:  -305.98390222322939
    Total Energy =                       -305.9839022232295065
  Basis Set: CC-PVTZ
  Basis Set:
  Charge       = 0
  Multiplicity = 1
  Basis Set: CC-PVTZ
  Basis Set:

    Orbital Energies (a.u.)
    -----------------------

    Doubly Occupied:

       1A    -20.592620     2A    -20.530859     3A    -11.367602
       4A    -11.288070     5A    -11.229967     6A    -11.214937
       7A     -1.466692     8A     -1.365320     9A     -1.055687
      10A     -0.998099    11A     -0.892752    12A     -0.752501
      13A     -0.696305    14A     -0.684470    15A     -0.667917
      16A     -0.614039    17A     -0.588669    18A     -0.570663
      19A     -0.550522    20A     -0.534131    21A     -0.514677
      22A     -0.497202    23A     -0.452545    24A     -0.434799

  @DF-RHF Final Energy:  -305.98390185064488

   => Energetics <=

    Nuclear Repulsion Energy =            249.8154186758526976
    One-Electron Energy =                -912.4765543544560842
    Two-Electron Energy =                 356.6772338279583892
    DFT Exchange-Correlation Energy =       0.0000000000000000
    Empirical Dispersion Energy =           0.0000000000000000
    PCM Polarization Energy =               0.0000000000000000
    EFP Energy =                            0.0000000000000000
    Total Energy =                       -305.9839018506449975
    Molecular point group: c1
  Basis Set: CC-PVTZ
  Basis Set:

  -Total Gradient:
     Atom            X                  Y                   Z
    ------   -----------------  -----------------  -----------------
       1        0.000015618129    -0.000002854415     0.000083309578
       2        0.001219874913     0.000350043809     0.005444798300
       3        0.000051165532     0.000072303168     0.000015982390
       4       -0.001147296460    -0.002175389172    -0.008311037204
       5        0.000015190819     0.000016678263    -0.000006786127
       6       -0.000005499650    -0.000003924443    -0.000011312622
       7        0.000002740402    -0.000002169571    -0.000016050600
       8       -0.001859272108     0.007559617064     0.002751152599
       9        0.000204217629     0.000062756407    -0.000186577710
      10        0.001839836728    -0.005719798734     0.000040976302
      11       -0.000155085765    -0.000136705100     0.000085382097
      12       -0.000137152420     0.000061766062    -0.000002489115
      13        0.000023056421    -0.000084075949     0.000000339939
      14       -0.000067394170     0.000001752611     0.000112312173

  **** Optimization is complete! (in 11 steps) ****
    Final optimized geometry and variables:
    Molecular point group: c1

    Geometry (in Angstrom), charge = 0, multiplicity = 1:

    O           -0.811256562553     1.139120558584    -0.260105229957
    C           -0.841469910825    -0.011338818103     0.014915262989
    C           -2.053882939353    -0.721710788585     0.550564696172
    O            0.170096670001    -0.847068245714    -0.127419575633
    H           -2.289975079170    -1.568644388369    -0.080008504055
    H           -2.886570102569    -0.038251918982     0.586514735053
    H           -1.841172974733    -1.100077845293     1.542420575467
    C            1.498376123739    -0.423753435559    -0.429436177721
    C            1.991790466503     0.844773428750     0.238477603058
    H            1.608448389391    -0.399657510337    -1.506122564019
    H            2.094529500049    -1.256341423612    -0.083442982063
    H            3.066203947525     0.891123063334     0.098887358280
    H            1.545458635569     1.733737175352    -0.171658355465
    H            1.796405155339     0.818313857654     1.304347657740

  Mulliken Charges: (a.u.)
   Center  Symbol    Alpha    Beta     Spin     Total
       1     O     4.19888  4.19888  0.00000 -0.39775
       2     C     2.80168  2.80168  0.00000  0.39664
       3     C     3.13831  3.13831  0.00000 -0.27662
       4     O     4.15513  4.15513  0.00000 -0.31025
       5     H     0.44465  0.44465  0.00000  0.11070
       6     H     0.43865  0.43865  0.00000  0.12269
       7     H     0.44733  0.44733  0.00000  0.10534
       8     C     2.98053  2.98053  0.00000  0.03894
       9     C     3.15483  3.15483  0.00000 -0.30966
      10     H     0.45533  0.45533  0.00000  0.08934
      11     H     0.44910  0.44910  0.00000  0.10180
      12     H     0.45055  0.45055  0.00000  0.09891
      13     H     0.43250  0.43250  0.00000  0.13500
      14     H     0.45254  0.45254  0.00000  0.09492

   Total alpha = 24.00000, Total beta = 24.00000, Total charge = -0.00000
