  ==> Input File <==

--------------------------------------------------------------------------
set {
	reference rhf
	basis cc-pvtz
}

set_num_threads( 4 )
memory 2 gb

molecule MOL {
0 1

H	 3.459259	 0.172688	 -0.754884
C	 2.749359	 -0.017997	 0.039447
C	 1.322304	 0.099773	 -0.484271
H	 2.945730	 -1.010636	 0.428647
H	 2.938604	 0.696883	 0.832210
C	 0.308557	 -0.162619	 0.622645
H	 1.159205	 -0.610523	 -1.285278
H	 1.153539	 1.090842	 -0.887058
N	 -1.069352	 -0.004081	 0.085342
H	 0.371632	 -1.172932	 0.991288
H	 0.400391	 0.548875	 1.426218
O	 -1.584901	 -0.965470	 -0.377818
O	 -1.548033	 1.079343	 0.130056

	symmetry c1
}
set optking {
	frozen_dihedral = ("
		7 3 6 9
	")
}

ee = optimize('scf')
oeprop('DIPOLE', 'QUADRUPOLE', 'MULLIKEN_CHARGES')
f=open( 'psi4out.xyz', 'w' )
f.write( "13  " )
f.write( str(ee) + "\n" )
f.write( MOL.save_string_xyz() )
f.close()
--------------------------------------------------------------------------

    Molecular point group: c1
  Charge       = 0
  Multiplicity = 1
  Basis Set: CC-PVTZ
  Basis Set:
  @DF-RHF Final Energy:  -321.86153117649360
    Total Energy =                       -321.8615311764934859
    Molecular point group: c1
  Basis Set: CC-PVTZ
  Basis Set:
  Basis Set: CC-PVTZ
  Basis Set:
  @DF-RHF Final Energy:  -321.86152545568132
    Total Energy =                       -321.8615254556810328
  Basis Set: CC-PVTZ
  Basis Set:
  Basis Set: CC-PVTZ
  Basis Set:
  @DF-RHF Final Energy:  -321.86139921413724
    Total Energy =                       -321.8613992141371227
  Basis Set: CC-PVTZ
  Basis Set:
  Basis Set: CC-PVTZ
  Basis Set:
  @DF-RHF Final Energy:  -321.86153220912337
    Total Energy =                       -321.8615322091232542
  Basis Set: CC-PVTZ
  Basis Set:
  Charge       = 0
  Multiplicity = 1
  Basis Set: CC-PVTZ
  Basis Set:

    Orbital Energies (a.u.)
    -----------------------

    Doubly Occupied:

       1A    -20.590373     2A    -20.590311     3A    -15.836905
       4A    -11.297265     5A    -11.254347     6A    -11.237281
       7A     -1.635948     8A     -1.420271     9A     -1.134393
      10A     -1.027935    11A     -0.884019    12A     -0.834514
      13A     -0.761511    14A     -0.738539    15A     -0.727528
      16A     -0.673674    17A     -0.604149    18A     -0.588613
      19A     -0.551397    20A     -0.520521    21A     -0.515174
      22A     -0.486843    23A     -0.475165    24A     -0.452882

  @DF-RHF Final Energy:  -321.86153283248387

   => Energetics <=

    Nuclear Repulsion Energy =            248.0251710444553623
    One-Electron Energy =                -930.0942966301461183
    Two-Electron Energy =                 360.2075927532069386
    DFT Exchange-Correlation Energy =       0.0000000000000000
    Empirical Dispersion Energy =           0.0000000000000000
    PCM Polarization Energy =               0.0000000000000000
    EFP Energy =                            0.0000000000000000
    Total Energy =                       -321.8615328324837606
    Molecular point group: c1
  Basis Set: CC-PVTZ
  Basis Set:

  -Total Gradient:
     Atom            X                  Y                   Z
    ------   -----------------  -----------------  -----------------
       1       -0.000000593980     0.000004358027    -0.000000134807
       2       -0.000011845487     0.000006478016    -0.000007386092
       3       -0.000220414130     0.000334653106    -0.000124921160
       4        0.000013471650    -0.000011516209    -0.000004772025
       5       -0.000020134918    -0.000010924033    -0.000000750947
       6        0.000049064053    -0.000363002615    -0.000052136253
       7        0.000191397046    -0.000197758394     0.000147172225
       8        0.000006648162     0.000008170672    -0.000024634830
       9       -0.000000457957     0.000181058083     0.000086856830
      10        0.000001468242    -0.000001259230     0.000008008345
      11       -0.000004977669     0.000002597437    -0.000005991251
      12        0.000007014035     0.000038376692     0.000000723006
      13       -0.000010639053     0.000008768445    -0.000022033041

  **** Optimization is complete! (in 5 steps) ****
    Final optimized geometry and variables:
    Molecular point group: c1

    Geometry (in Angstrom), charge = 0, multiplicity = 1:

    H            3.459475239422     0.162864564149    -0.757055805089
    C            2.749297212565    -0.024043002855     0.037931013615
    C            1.322346142921     0.095570659495    -0.485972274560
    H            2.943740286445    -1.016096464075     0.429735969656
    H            2.940154569508     0.692482932825     0.828777484100
    C            0.308815253296    -0.167321946411     0.621066479126
    H            1.159811684785    -0.615127960038    -1.286748721390
    H            1.154694243646     1.087049681310    -0.888072274476
    N           -1.069364529644    -0.010181203305     0.084051829211
    H            0.373406984452    -1.176696949918     0.991878266096
    H            0.399611079815     0.546003973988     1.423228103226
    O           -1.581770145803    -0.970408867253    -0.385262278338
    O           -1.551680709280     1.071323447714     0.135130665693

  Mulliken Charges: (a.u.)
   Center  Symbol    Alpha    Beta     Spin     Total
       1     H     0.44167  0.44167  0.00000  0.11665
       2     C     3.15110  3.15110  0.00000 -0.30221
       3     C     3.09592  3.09592  0.00000 -0.19183
       4     H     0.45167  0.45167  0.00000  0.09666
       5     H     0.45151  0.45151  0.00000  0.09698
       6     C     3.03939  3.03939  0.00000 -0.07878
       7     H     0.43807  0.43807  0.00000  0.12385
       8     H     0.43789  0.43789  0.00000  0.12421
       9     N     3.27592  3.27592  0.00000  0.44817
      10     H     0.43442  0.43442  0.00000  0.13116
      11     H     0.43478  0.43478  0.00000  0.13044
      12     O     4.17394  4.17394  0.00000 -0.34787
      13     O     4.17372  4.17372  0.00000 -0.34744

   Total alpha = 24.00000, Total beta = 24.00000, Total charge = -0.00000
