  ==> Input File <==

--------------------------------------------------------------------------
set {
	reference rhf
	basis cc-pvtz
}

set_num_threads( 4 )
memory 2 gb

molecule MOL {
0 1

H	 2.190573	 -0.629143	 -0.208718
O	 1.355408	 -0.529451	 0.208662
C	 0.700177	 0.619554	 -0.266242
C	 -0.713111	 0.588314	 0.266177
H	 0.678680	 0.627133	 -1.351786
H	 1.199747	 1.521489	 0.077736
O	 -1.421673	 -0.521378	 -0.196983
H	 -1.244794	 1.469161	 -0.069059
H	 -0.685100	 0.604721	 1.352683
H	 -1.426073	 -1.176902	 0.478512

	symmetry c1
}
set optking {
	frozen_dihedral = ("
		10 7 4 3
	")
}

ee = optimize('scf')
oeprop('DIPOLE', 'QUADRUPOLE', 'MULLIKEN_CHARGES')
f=open( 'psi4out.xyz', 'w' )
f.write( "10  " )
f.write( str(ee) + "\n" )
f.write( MOL.save_string_xyz() )
f.close()
--------------------------------------------------------------------------

    Molecular point group: c1
  Charge       = 0
  Multiplicity = 1
  Basis Set: CC-PVTZ
  Basis Set:
  @DF-RHF Final Energy:  -229.02527475311945
    Total Energy =                       -229.0252747531194473
    Molecular point group: c1
  Basis Set: CC-PVTZ
  Basis Set:
  Basis Set: CC-PVTZ
  Basis Set:
  @DF-RHF Final Energy:  -229.02585258088422
    Total Energy =                       -229.0258525808841910
  Basis Set: CC-PVTZ
  Basis Set:
  Basis Set: CC-PVTZ
  Basis Set:
  @DF-RHF Final Energy:  -229.02590670029562
    Total Energy =                       -229.0259067002955362
  Basis Set: CC-PVTZ
  Basis Set:
  Basis Set: CC-PVTZ
  Basis Set:
  @DF-RHF Final Energy:  -229.02591033364391
    Total Energy =                       -229.0259103336438216
  Basis Set: CC-PVTZ
  Basis Set:
  Charge       = 0
  Multiplicity = 1
  Basis Set: CC-PVTZ
  Basis Set:

    Orbital Energies (a.u.)
    -----------------------

    Doubly Occupied:

       1A    -20.551148     2A    -20.544553     3A    -11.268198
       4A    -11.267510     5A     -1.377287     6A     -1.355658
       7A     -1.003349     8A     -0.838011     9A     -0.725576
      10A     -0.696754    11A     -0.631588    12A     -0.604064
      13A     -0.582193    14A     -0.524132    15A     -0.491529
      16A     -0.450371    17A     -0.436297

  @DF-RHF Final Energy:  -229.02591096250831

   => Energetics <=

    Nuclear Repulsion Energy =            133.6550410441465147
    One-Electron Energy =                -578.6654588479100312
    Two-Electron Energy =                 215.9845068412551257
    DFT Exchange-Correlation Energy =       0.0000000000000000
    Empirical Dispersion Energy =           0.0000000000000000
    PCM Polarization Energy =               0.0000000000000000
    EFP Energy =                            0.0000000000000000
    Total Energy =                       -229.0259109625083909
    Molecular point group: c1
  Basis Set: CC-PVTZ
  Basis Set:

  -Total Gradient:
     Atom            X                  Y                   Z
    ------   -----------------  -----------------  -----------------
       1        0.000031097420    -0.000003955839     0.000008004297
       2       -0.000032031608     0.000014553307    -0.000028122424
       3       -0.000572892785     0.001102271368    -0.001372659733
       4        0.000223954302    -0.001215807874     0.002255002501
       5       -0.000024206424    -0.000001560476    -0.000027576598
       6        0.000010627821    -0.000021772127     0.000000334022
       7        0.002863095761    -0.001026169472    -0.002080839590
       8        0.000008603796    -0.000001981710     0.000003629401
       9        0.000006779886    -0.000001860267     0.000012801102
      10       -0.002515028169     0.001156283090     0.001229427023

  **** Optimization is complete! (in 5 steps) ****
    Final optimized geometry and variables:
    Molecular point group: c1

    Geometry (in Angstrom), charge = 0, multiplicity = 1:

    H            2.220073205570    -0.618343185504    -0.205100375013
    O            1.406700800504    -0.500195766547     0.248830096908
    C            0.699523282938     0.584740420979    -0.289062317702
    C           -0.703258337917     0.566083720728     0.268080645607
    H            0.648103428139     0.518290871398    -1.371441262487
    H            1.177007149219     1.525903458107    -0.023827752177
    O           -1.448447471454    -0.504391109251    -0.240216839061
    H           -1.204816310607     1.482786558309    -0.020541623779
    H           -0.659652374406     0.538020591784     1.351782749769
    H           -1.473692475361    -1.205801464811     0.382254786289

  Mulliken Charges: (a.u.)
   Center  Symbol    Alpha    Beta     Spin     Total
       1     H     0.39292  0.39292  0.00000  0.21417
       2     O     4.20275  4.20275  0.00000 -0.40551
       3     C     2.96216  2.96216  0.00000  0.07568
       4     C     2.97059  2.97059  0.00000  0.05883
       5     H     0.47173  0.47173  0.00000  0.05653
       6     H     0.47731  0.47731  0.00000  0.04538
       7     O     4.20589  4.20589  0.00000 -0.41177
       8     H     0.46150  0.46150  0.00000  0.07700
       9     H     0.46696  0.46696  0.00000  0.06607
      10     H     0.38819  0.38819  0.00000  0.22362

   Total alpha = 17.00000, Total beta = 17.00000, Total charge = -0.00000
