  ==> Input File <==

--------------------------------------------------------------------------
set {
	reference rhf
	basis 6-31G*
}

set_num_threads( 4 )
memory 2 gb

molecule MOL {
0 1

H	 -3.892951	 0.981613	 -0.358725
C	 -3.196921	 0.361773	 0.172313
C	 -2.076860	 -0.007332	 -0.404944
H	 -3.439953	 0.057760	 1.173024
O	 -1.991514	 -1.137491	 -1.154823
H	 -1.170563	 0.568081	 -0.336228
C	 -0.738576	 -1.549171	 -1.582041
C	 -0.050025	 -2.410705	 -0.547658
H	 -0.087000	 -0.714019	 -1.813700
H	 -0.873547	 -2.145141	 -2.472596
F	 1.124075	 -2.808214	 -1.015932
F	 0.169364	 -1.747781	 0.575833
F	 -0.752899	 -3.483950	 -0.250161

	symmetry c1
}
set optking {
	frozen_dihedral = ("
		6 3 2 1
	")
}

ee = optimize('scf')
oeprop('DIPOLE', 'QUADRUPOLE', 'MULLIKEN_CHARGES')
f=open( 'psi4out.xyz', 'w' )
f.write( "13  " )
f.write( str(ee) + "\n" )
f.write( MOL.save_string_xyz() )
f.close()
--------------------------------------------------------------------------

    Molecular point group: c1
  Charge       = 0
  Multiplicity = 1
  Basis Set: 6-31G*
  Basis Set:
  @DF-RHF Final Energy:  -527.38076448733716
    Total Energy =                       -527.3807644873368190
    Molecular point group: c1
  Basis Set: 6-31G*
  Basis Set:
  Basis Set: 6-31G*
  Basis Set:
  @DF-RHF Final Energy:  -527.41292651760705
    Total Energy =                       -527.4129265176073886
  Basis Set: 6-31G*
  Basis Set:
  Basis Set: 6-31G*
  Basis Set:
  @DF-RHF Final Energy:  -527.44819478845852
    Total Energy =                       -527.4481947884585225
  Basis Set: 6-31G*
  Basis Set:
  Basis Set: 6-31G*
  Basis Set:
  @DF-RHF Final Energy:  -527.46321460459012
    Total Energy =                       -527.4632146045902346
  Basis Set: 6-31G*
  Basis Set:
  @DF-RHF Final Energy:  -527.47810666160069
    Total Energy =                       -527.4781066616008047
  @DF-RHF Final Energy:  -527.47939050426396
    Total Energy =                       -527.4793905042639608
  @DF-RHF Final Energy:  -527.47940764715122
    Total Energy =                       -527.4794076471513335
  @DF-RHF Final Energy:  -527.47958825767546
    Total Energy =                       -527.4795882576754593
  Basis Set: 6-31G*
  Basis Set:
  @DF-RHF Final Energy:  -527.47959563757672
    Total Energy =                       -527.4795956375767219
  Basis Set: 6-31G*
  Basis Set:
  Basis Set: 6-31G*
  Basis Set:
  @DF-RHF Final Energy:  -527.47951922588641
    Total Energy =                       -527.4795192258864063
  Basis Set: 6-31G*
  Basis Set:
  Basis Set: 6-31G*
  Basis Set:
  @DF-RHF Final Energy:  -527.47959619357994
    Total Energy =                       -527.4795961935800506
  Basis Set: 6-31G*
  Basis Set:
  Charge       = 0
  Multiplicity = 1
  Basis Set: 6-31G*
  Basis Set:

    Orbital Energies (a.u.)
    -----------------------

    Doubly Occupied:

       1A    -26.345497     2A    -26.344856     3A    -26.341755
       4A    -20.609245     5A    -11.504389     6A    -11.318688
       7A    -11.316661     8A    -11.220287     9A     -1.742768
      10A     -1.640812    11A     -1.639473    12A     -1.438319
      13A     -1.085979    14A     -1.013129    15A     -0.924442
      16A     -0.841087    17A     -0.831998    18A     -0.824887
      19A     -0.795681    20A     -0.720672    21A     -0.712168
      22A     -0.692989    23A     -0.675341    24A     -0.660713
      25A     -0.655381    26A     -0.644177    27A     -0.638375
      28A     -0.583277    29A     -0.552867    30A     -0.517423
      31A     -0.498243    32A     -0.344535

  @DF-RHF Final Energy:  -527.47959609162626

   => Energetics <=

    Nuclear Repulsion Energy =            415.6280197353106587
    One-Electron Energy =               -1554.8630034113923557
    Two-Electron Energy =                 611.7553875844553204
    DFT Exchange-Correlation Energy =       0.0000000000000000
    Empirical Dispersion Energy =           0.0000000000000000
    PCM Polarization Energy =               0.0000000000000000
    EFP Energy =                            0.0000000000000000
    Total Energy =                       -527.4795960916264903
    Molecular point group: c1
  Basis Set: 6-31G*
  Basis Set:

  -Total Gradient:
     Atom            X                  Y                   Z
    ------   -----------------  -----------------  -----------------
       1       -0.026034308457    -0.021678550286    -0.023146092130
       2        0.044679865474     0.015386603810     0.043184351754
       3       -0.030865390524     0.040351654912    -0.038370409889
       4        0.000025293316     0.000079128362    -0.000056475693
       5       -0.000017971406     0.000005614281    -0.000085571854
       6        0.012340727769    -0.034139718709     0.018394751350
       7       -0.000155833604    -0.000035306624     0.000044626210
       8       -0.000022953637    -0.000039697648    -0.000000186058
       9       -0.000048725687    -0.000005778216     0.000049739825
      10        0.000026200640    -0.000005350877     0.000004741512
      11       -0.000015874664    -0.000011056724    -0.000008030525
      12        0.000108301390     0.000171607526     0.000094174216
      13       -0.000019330612    -0.000079149810    -0.000105618720

  **** Optimization is complete! (in 12 steps) ****
    Final optimized geometry and variables:
    Molecular point group: c1

    Geometry (in Angstrom), charge = 0, multiplicity = 1:

    H           -2.897002701315     2.760848422101     0.835956145231
    C           -2.177047361087     1.962549291659     0.772841709935
    C           -1.222806465210     1.802386359798    -0.157092496529
    H           -2.757543062204     1.049305240510     0.845892894320
    O           -1.171019376685     0.561334611165    -0.739139836248
    H           -0.212685568674     2.180531837271    -0.124137764684
    C            0.057445371979     0.046729963997    -1.127612079168
    C            0.740783354902    -0.691959119593     0.000779961406
    H            0.732936525801     0.818961493332    -1.480157574628
    H           -0.117649377739    -0.656838930837    -1.927884934488
    F            1.880379099867    -1.208281625160    -0.435035354922
    F            1.026154884921     0.114859909648     1.010125758508
    F            0.001231278713    -1.676070567147     0.468170091877

  Mulliken Charges: (a.u.)
   Center  Symbol    Alpha    Beta     Spin     Total
       1     H     0.39944  0.39944  0.00000  0.20113
       2     C     3.23410  3.23410  0.00000 -0.46820
       3     C     2.90345  2.90345  0.00000  0.19311
       4     H     0.40796  0.40796  0.00000  0.18407
       5     O     4.29522  4.29522  0.00000 -0.59045
       6     H     0.40533  0.40533  0.00000  0.18933
       7     C     3.06638  3.06638  0.00000 -0.13275
       8     C     2.45548  2.45548  0.00000  1.08904
       9     H     0.40584  0.40584  0.00000  0.18832
      10     H     0.39060  0.39060  0.00000  0.21880
      11     F     4.68250  4.68250  0.00000 -0.36500
      12     F     4.67948  4.67948  0.00000 -0.35896
      13     F     4.67422  4.67422  0.00000 -0.34845

   Total alpha = 32.00000, Total beta = 32.00000, Total charge =  0.00000
