  ==> Input File <==

--------------------------------------------------------------------------
set {
	reference rhf
	basis cc-pvtz
}

set_num_threads( 4 )
memory 2 gb

molecule MOL {
0 1

H	 -1.088256	 -1.364742	 0.152233
O	 -1.432053	 -0.565244	 -0.200812
C	 -0.727158	 0.534527	 0.310686
C	 0.680222	 0.664433	 -0.252229
H	 -1.306802	 1.408001	 0.044211
H	 -0.690821	 0.490158	 1.397609
C	 1.250412	 -0.640782	 -0.799352
H	 0.672537	 1.417149	 -1.033632
H	 1.324718	 1.036231	 0.539630
H	 0.665486	 -1.012168	 -1.633653
H	 2.263697	 -0.502118	 -1.156533
H	 1.273455	 -1.411272	 -0.034649

	symmetry c1
}
set optking {
	frozen_dihedral = ("
		8 4 3 2
	")
}

ee = optimize('scf')
oeprop('DIPOLE', 'QUADRUPOLE', 'MULLIKEN_CHARGES')
f=open( 'psi4out.xyz', 'w' )
f.write( "12  " )
f.write( str(ee) + "\n" )
f.write( MOL.save_string_xyz() )
f.close()
--------------------------------------------------------------------------

    Molecular point group: c1
  Charge       = 0
  Multiplicity = 1
  Basis Set: CC-PVTZ
  Basis Set:
  @DF-RHF Final Energy:  -193.18375262073715
    Total Energy =                       -193.1837526207372662
    Molecular point group: c1
  Basis Set: CC-PVTZ
  Basis Set:
  Basis Set: CC-PVTZ
  Basis Set:
  @DF-RHF Final Energy:  -193.18438219018685
    Total Energy =                       -193.1843821901869376
  Basis Set: CC-PVTZ
  Basis Set:
  Basis Set: CC-PVTZ
  Basis Set:
  @DF-RHF Final Energy:  -193.18470303391206
    Total Energy =                       -193.1847030339119442
  Basis Set: CC-PVTZ
  Basis Set:
  Basis Set: CC-PVTZ
  Basis Set:
  @DF-RHF Final Energy:  -193.18470905856867
    Total Energy =                       -193.1847090585687283
  Basis Set: CC-PVTZ
  Basis Set:
  Basis Set: CC-PVTZ
  Basis Set:
  @DF-RHF Final Energy:  -193.18471101844872
    Total Energy =                       -193.1847110184486951
  Basis Set: CC-PVTZ
  Basis Set:
  Charge       = 0
  Multiplicity = 1
  Basis Set: CC-PVTZ
  Basis Set:

    Orbital Energies (a.u.)
    -----------------------

    Doubly Occupied:

       1A    -20.545540     2A    -11.266550     3A    -11.217422
       4A    -11.213204     5A     -1.364046     6A     -1.047320
       7A     -0.929454     8A     -0.808302     9A     -0.694977
      10A     -0.632653    11A     -0.617516    12A     -0.583606
      13A     -0.530607    14A     -0.512904    15A     -0.501004
      16A     -0.459284    17A     -0.431142

  @DF-RHF Final Energy:  -193.18471120200533

   => Energetics <=

    Nuclear Repulsion Energy =            133.4959243012183663
    One-Electron Energy =                -526.6502043097616479
    Two-Electron Energy =                 199.9695688065380068
    DFT Exchange-Correlation Energy =       0.0000000000000000
    Empirical Dispersion Energy =           0.0000000000000000
    PCM Polarization Energy =               0.0000000000000000
    EFP Energy =                            0.0000000000000000
    Total Energy =                       -193.1847112020053032
    Molecular point group: c1
  Basis Set: CC-PVTZ
  Basis Set:

  -Total Gradient:
     Atom            X                  Y                   Z
    ------   -----------------  -----------------  -----------------
       1       -0.000011542733    -0.000023159463    -0.000004908795
       2        0.001655314926    -0.002734874027     0.003367005184
       3       -0.001946919572     0.004736493468    -0.003721370021
       4       -0.001014822297    -0.005978125501    -0.003590013309
       5        0.000009955915     0.000019293256     0.000008692378
       6        0.000003990281    -0.000007925239    -0.000006709017
       7        0.000005663387     0.000000079451    -0.000004031914
       8        0.001294033790     0.003983378747     0.003943036270
       9        0.000012256117     0.000005846313     0.000006677938
      10        0.000001342048     0.000005188612    -0.000000071692
      11       -0.000003730265    -0.000006169112    -0.000001081508
      12       -0.000005541597    -0.000000026505     0.000002774485

  **** Optimization is complete! (in 6 steps) ****
    Final optimized geometry and variables:
    Molecular point group: c1

    Geometry (in Angstrom), charge = 0, multiplicity = 1:

    H           -1.036796029019    -1.318188666635     0.350673345250
    O           -1.392614433891    -0.504663069382     0.045967526755
    C           -0.638392568952     0.568004702291     0.543795708004
    C            0.778911933569     0.688665553894    -0.047000536000
    H           -1.207013647373     1.461188783520     0.329278533297
    H           -0.570718604606     0.485916397783     1.625713074342
    C            1.378195806263    -0.611871544347    -0.568357543792
    H            0.791811429567     1.449935121982    -0.819614920715
    H            1.423398003778     1.081492953718     0.734756334756
    H            0.799055199833    -1.015017191565    -1.388262287473
    H            2.388985020190    -0.446062962970    -0.920816916543
    H            1.429998929883    -1.367403097102     0.210815730742

  Mulliken Charges: (a.u.)
   Center  Symbol    Alpha    Beta     Spin     Total
       1     H     0.39059  0.39059  0.00000  0.21881
       2     O     4.20388  4.20388  0.00000 -0.40776
       3     C     2.97586  2.97586  0.00000  0.04828
       4     C     3.08891  3.08891  0.00000 -0.17783
       5     H     0.45273  0.45273  0.00000  0.09453
       6     H     0.46967  0.46967  0.00000  0.06065
       7     C     3.15771  3.15771  0.00000 -0.31543
       8     H     0.45259  0.45259  0.00000  0.09482
       9     H     0.45681  0.45681  0.00000  0.08638
      10     H     0.44377  0.44377  0.00000  0.11246
      11     H     0.44673  0.44673  0.00000  0.10654
      12     H     0.46073  0.46073  0.00000  0.07854

   Total alpha = 17.00000, Total beta = 17.00000, Total charge =  0.00000
