  ==> Input File <==

--------------------------------------------------------------------------
set {
	reference rhf
	basis 6-31G*
}

set_num_threads( 4 )
memory 2 gb

molecule MOL {
0 1

H	 -2.273092	 1.173159	 0.000295
O	 -1.438904	 1.618192	 0.000114
C	 -0.409536	 0.736003	 0.000030
C	 0.679943	 1.051927	 -0.796479
C	 -0.430018	 -0.433615	 0.756678
H	 0.654600	 1.963782	 -1.363814
C	 1.766809	 0.200073	 -0.847230
C	 0.676323	 -1.271505	 0.686406
C	 -1.619728	 -0.776590	 1.624990
H	 2.608972	 0.450944	 -1.467163
C	 1.770930	 -0.969405	 -0.104074
H	 0.675981	 -2.179025	 1.264983
H	 -2.532529	 -0.880045	 1.041864
H	 -1.460788	 -1.716792	 2.137566
H	 -1.797341	 -0.021672	 2.388239
H	 2.612846	 -1.636621	 -0.138713

	symmetry c1
}
set optking {
	frozen_dihedral = ("
		4 3 2 1
	")
}

ee = optimize('scf')
oeprop('DIPOLE', 'QUADRUPOLE', 'MULLIKEN_CHARGES')
f=open( 'psi4out.xyz', 'w' )
f.write( "16  " )
f.write( str(ee) + "\n" )
f.write( MOL.save_string_xyz() )
f.close()
--------------------------------------------------------------------------

    Molecular point group: c1
  Charge       = 0
  Multiplicity = 1
  Basis Set: 6-31G*
  Basis Set:
  @DF-RHF Final Energy:  -344.59231296761658
    Total Energy =                       -344.5923129676166923
    Molecular point group: c1
  Basis Set: 6-31G*
  Basis Set:
  Basis Set: 6-31G*
  Basis Set:
  @DF-RHF Final Energy:  -344.59257354451273
    Total Energy =                       -344.5925735445127316
  Basis Set: 6-31G*
  Basis Set:
  Basis Set: 6-31G*
  Basis Set:
  @DF-RHF Final Energy:  -344.59261848735042
    Total Energy =                       -344.5926184873505917
  Basis Set: 6-31G*
  Basis Set:
  Basis Set: 6-31G*
  Basis Set:
  @DF-RHF Final Energy:  -344.59262595282456
    Total Energy =                       -344.5926259528241076
  Basis Set: 6-31G*
  Basis Set:
  Charge       = 0
  Multiplicity = 1
  Basis Set: 6-31G*
  Basis Set:

    Orbital Energies (a.u.)
    -----------------------

    Doubly Occupied:

       1A    -20.582625     2A    -11.288364     3A    -11.235219
       4A    -11.230351     5A    -11.229550     6A    -11.229436
       7A    -11.222087     8A    -11.221118     9A     -1.399213
      10A     -1.148785    11A     -1.047291    12A     -1.003789
      13A     -0.938702    14A     -0.824570    15A     -0.815297
      16A     -0.727703    17A     -0.673710    18A     -0.645526
      19A     -0.617203    20A     -0.594887    21A     -0.573323
      22A     -0.569898    23A     -0.551324    24A     -0.534351
      25A     -0.501706    26A     -0.483118    27A     -0.469143
      28A     -0.328838    29A     -0.310218

  @DF-RHF Final Energy:  -344.59262672892925

   => Energetics <=

    Nuclear Repulsion Energy =            350.0017348579316945
    One-Electron Energy =               -1161.1940337133432877
    Two-Electron Energy =                 466.5996721264824032
    DFT Exchange-Correlation Energy =       0.0000000000000000
    Empirical Dispersion Energy =           0.0000000000000000
    PCM Polarization Energy =               0.0000000000000000
    EFP Energy =                            0.0000000000000000
    Total Energy =                       -344.5926267289291332
    Molecular point group: c1
  Basis Set: 6-31G*
  Basis Set:

  -Total Gradient:
     Atom            X                  Y                   Z
    ------   -----------------  -----------------  -----------------
       1       -0.000030233802     0.000061604447    -0.001655552204
       2       -0.000314378032    -0.000265311482     0.001624590116
       3        0.000883556610     0.000707581284     0.001003815328
       4       -0.000540908880    -0.000544467331    -0.000963097874
       5       -0.000046124639     0.000025206077    -0.000008894744
       6        0.000007021640    -0.000004485633     0.000016889594
       7        0.000010341523    -0.000007954375    -0.000007989299
       8        0.000012433787    -0.000016259669    -0.000052291169
       9        0.000019436843     0.000021275131     0.000026216351
      10        0.000011139509    -0.000016427693     0.000004455912
      11        0.000005571546     0.000024379866     0.000043520837
      12       -0.000000867261     0.000013458250     0.000000755715
      13       -0.000019313372    -0.000012074534    -0.000010804368
      14       -0.000001275866     0.000009865845    -0.000014188601
      15       -0.000007148021     0.000000504209     0.000012449029
      16        0.000010748419     0.000003105608    -0.000019874622

  **** Optimization is complete! (in 5 steps) ****
    Final optimized geometry and variables:
    Molecular point group: c1

    Geometry (in Angstrom), charge = 0, multiplicity = 1:

    H           -2.314041927402     1.122121248302    -0.146632368575
    O           -1.481647757305     1.573401985770    -0.143123864972
    C           -0.448633162086     0.684399076825    -0.184215177699
    C            0.639099591693     1.004348975860    -0.977283001243
    C           -0.474312458076    -0.490732403900     0.563712743988
    H            0.615217142121     1.919613313763    -1.539166856787
    C            1.729610002387     0.153375137362    -1.028929026612
    C            0.625690887973    -1.334280568274     0.484703288643
    C           -1.664548717700    -0.820726940967     1.433512025798
    H            2.575075698099     0.407364712623    -1.642964949545
    C            1.724385287735    -1.023174142621    -0.299819733728
    H            0.623611001439    -2.246850659049     1.055167880592
    H           -2.558051907722    -1.019461808108     0.843409538547
    H           -1.473500976710    -1.705689314758     2.027626161154
    H           -1.895705776128    -0.005040817867     2.111325062797
    H            2.565299905053    -1.691802099755    -0.338233379498

  Mulliken Charges: (a.u.)
   Center  Symbol    Alpha    Beta     Spin     Total
       1     H     0.27023  0.27023  0.00000  0.45954
       2     O     4.38402  4.38402  0.00000 -0.76805
       3     C     2.82487  2.82487  0.00000  0.35026
       4     C     3.11598  3.11598  0.00000 -0.23197
       5     C     3.00342  3.00342  0.00000 -0.00684
       6     H     0.39231  0.39231  0.00000  0.21538
       7     C     3.09824  3.09824  0.00000 -0.19649
       8     C     3.10936  3.10936  0.00000 -0.21872
       9     C     3.26382  3.26382  0.00000 -0.52765
      10     H     0.39892  0.39892  0.00000  0.20216
      11     C     3.10521  3.10521  0.00000 -0.21041
      12     H     0.40138  0.40138  0.00000  0.19723
      13     H     0.41924  0.41924  0.00000  0.16152
      14     H     0.40803  0.40803  0.00000  0.18394
      15     H     0.40430  0.40430  0.00000  0.19140
      16     H     0.40066  0.40066  0.00000  0.19869

   Total alpha = 29.00000, Total beta = 29.00000, Total charge =  0.00000
