  ==> Input File <==

--------------------------------------------------------------------------
set {
	reference rhf
	basis 6-31G*
}

set_num_threads( 4 )
memory 2 gb

molecule MOL {
0 1

O	 -2.439739	 -0.935931	 -0.423848
C	 -1.921153	 0.064240	 -0.045697
C	 -2.624470	 1.379923	 0.150949
O	 -0.632575	 0.154573	 0.251549
H	 -2.168117	 2.136577	 -0.476876
H	 -3.669540	 1.273223	 -0.098610
H	 -2.519365	 1.700893	 1.180846
C	 0.160891	 -1.019931	 0.106212
C	 1.589627	 -0.672828	 0.480843
H	 0.089836	 -1.367806	 -0.916050
H	 -0.238459	 -1.792301	 0.749618
C	 1.910807	 -0.878572	 1.962367
H	 1.753777	 0.368900	 0.212907
H	 2.266426	 -1.263670	 -0.130801
C	 3.348522	 -0.494371	 2.309304
H	 1.223268	 -0.287035	 2.563595
H	 1.738024	 -1.916774	 2.226264
H	 3.551581	 -0.650018	 3.364090
H	 3.541773	 0.551149	 2.086099
H	 4.060385	 -1.089570	 1.744445

	symmetry c1
}
set optking {
	frozen_dihedral = ("
		12 9 8 10
	")
}

ee = optimize('scf')
oeprop('DIPOLE', 'QUADRUPOLE', 'MULLIKEN_CHARGES')
f=open( 'psi4out.xyz', 'w' )
f.write( "20  " )
f.write( str(ee) + "\n" )
f.write( MOL.save_string_xyz() )
f.close()
--------------------------------------------------------------------------

    Molecular point group: c1
  Charge       = 0
  Multiplicity = 1
  Basis Set: 6-31G*
  Basis Set:
  @DF-RHF Final Energy:  -383.94278758779086
    Total Energy =                       -383.9427875877911447
    Molecular point group: c1
  Basis Set: 6-31G*
  Basis Set:
  Basis Set: 6-31G*
  Basis Set:
  @DF-RHF Final Energy:  -383.94303792639306
    Total Energy =                       -383.9430379263932309
  Basis Set: 6-31G*
  Basis Set:
  Basis Set: 6-31G*
  Basis Set:
  @DF-RHF Final Energy:  -383.94224618740725
    Total Energy =                       -383.9422461874071359
  Basis Set: 6-31G*
  Basis Set:
  Basis Set: 6-31G*
  Basis Set:
  @DF-RHF Final Energy:  -383.94312738672431
    Total Energy =                       -383.9431273867240861
  Basis Set: 6-31G*
  Basis Set:
  Basis Set: 6-31G*
  Basis Set:
  @DF-RHF Final Energy:  -383.94312775549292
    Total Energy =                       -383.9431277554929238
  Basis Set: 6-31G*
  Basis Set:
  Basis Set: 6-31G*
  Basis Set:
  @DF-RHF Final Energy:  -383.94313261526003
    Total Energy =                       -383.9431326152601969
  Basis Set: 6-31G*
  Basis Set:
  Charge       = 0
  Multiplicity = 1
  Basis Set: 6-31G*
  Basis Set:

    Orbital Energies (a.u.)
    -----------------------

    Doubly Occupied:

       1A    -20.602078     2A    -20.544040     3A    -11.374343
       4A    -11.281819     5A    -11.233304     6A    -11.224908
       7A    -11.222716     8A    -11.214156     9A     -1.468022
      10A     -1.362198    11A     -1.085887    12A     -1.028791
      13A     -0.980684    14A     -0.881076    15A     -0.808309
      16A     -0.781030    17A     -0.689506    18A     -0.680633
      19A     -0.667682    20A     -0.631003    21A     -0.602462
      22A     -0.592480    23A     -0.571634    24A     -0.552827
      25A     -0.544388    26A     -0.528139    27A     -0.512818
      28A     -0.481610    29A     -0.478509    30A     -0.474556
      31A     -0.446846    32A     -0.438107

  @DF-RHF Final Energy:  -383.94313301942083

   => Energetics <=

    Nuclear Repulsion Energy =            382.8701563400459804
    One-Electron Energy =               -1281.6534558238586214
    Two-Electron Energy =                 514.8401664643919275
    DFT Exchange-Correlation Energy =       0.0000000000000000
    Empirical Dispersion Energy =           0.0000000000000000
    PCM Polarization Energy =               0.0000000000000000
    EFP Energy =                            0.0000000000000000
    Total Energy =                       -383.9431330194207703
    Molecular point group: c1
  Basis Set: 6-31G*
  Basis Set:

  -Total Gradient:
     Atom            X                  Y                   Z
    ------   -----------------  -----------------  -----------------
       1       -0.000019492857     0.000004713266     0.000017881986
       2        0.000027529349     0.000016398224    -0.000063972060
       3       -0.000004588237    -0.000016271588     0.000020000725
       4        0.000001804607    -0.000050329967     0.000013766243
       5        0.000000404189     0.000002365062    -0.000003357018
       6        0.000000659447    -0.000000394621    -0.000000289413
       7        0.000002800364    -0.000002347297    -0.000002365719
       8       -0.000412201958     0.004469795535    -0.002193322673
       9       -0.001160989639     0.003401076775     0.001245979078
      10        0.000619196633    -0.004556213612     0.001570390323
      11       -0.000012913886     0.000009199283    -0.000001254956
      12        0.000937837319    -0.003276034246    -0.000601039169
      13       -0.000009562052    -0.000001758306     0.000007175410
      14        0.000030401547     0.000008178959    -0.000000332165
      15        0.000005730176    -0.000019641395     0.000003186217
      16        0.000010555297     0.000012067801    -0.000010883577
      17       -0.000015576947     0.000001405135    -0.000001808715
      18        0.000003485183    -0.000007340731    -0.000000316513
      19       -0.000008810751    -0.000001240107     0.000006083310
      20        0.000003732216     0.000006371829    -0.000005521310

  **** Optimization is complete! (in 7 steps) ****
    Final optimized geometry and variables:
    Molecular point group: c1

    Geometry (in Angstrom), charge = 0, multiplicity = 1:

    O           -2.359524769557    -0.652520347213    -0.976347778678
    C           -1.833327519083     0.355071412961    -0.629529978339
    C           -2.537029439170     1.668935179969    -0.421976332129
    O           -0.536047278965     0.455577744305    -0.376861758332
    H           -2.107608801481     2.421021865991    -1.073766171335
    H           -3.589574949298     1.553527017044    -0.633344121864
    H           -2.397464175920     2.001744958007     0.600067447378
    C            0.256880038584    -0.716499373454    -0.529987003394
    C            1.690136198009    -0.379356455791    -0.139850933670
    H            0.186663407636    -1.080301013270    -1.546059628145
    H           -0.149012719696    -1.494182653184     0.104273036146
    C            1.979408979045    -0.568514086732     1.350767613412
    H            1.906218061083     0.639064349196    -0.447008191623
    H            2.357234378178    -1.023441962858    -0.708424396756
    C            3.411518414677    -0.193660624124     1.727639038477
    H            1.282251998811     0.029836789827     1.932405633233
    H            1.793701983358    -1.606028476075     1.618516701505
    H            3.592420826866    -0.350956222641     2.786166193531
    H            3.613503183015     0.850871563103     1.508761253920
    H            4.131950374096    -0.791782615875     1.176520034549

  Mulliken Charges: (a.u.)
   Center  Symbol    Alpha    Beta     Spin     Total
       1     O     4.28335  4.28335  0.00000 -0.56670
       2     C     2.61957  2.61957  0.00000  0.76086
       3     C     3.28155  3.28155  0.00000 -0.56309
       4     O     4.30836  4.30836  0.00000 -0.61672
       5     H     0.40055  0.40055  0.00000  0.19890
       6     H     0.39691  0.39691  0.00000  0.20619
       7     H     0.40076  0.40076  0.00000  0.19847
       8     C     3.00409  3.00409  0.00000 -0.00818
       9     C     3.16518  3.16518  0.00000 -0.33035
      10     H     0.40843  0.40843  0.00000  0.18313
      11     H     0.41011  0.41011  0.00000  0.17979
      12     C     3.15613  3.15613  0.00000 -0.31226
      13     H     0.40972  0.40972  0.00000  0.18055
      14     H     0.41832  0.41832  0.00000  0.16336
      15     C     3.24059  3.24059  0.00000 -0.48118
      16     H     0.41654  0.41654  0.00000  0.16692
      17     H     0.42128  0.42128  0.00000  0.15744
      18     H     0.41731  0.41731  0.00000  0.16538
      19     H     0.41999  0.41999  0.00000  0.16002
      20     H     0.42126  0.42126  0.00000  0.15747

   Total alpha = 32.00000, Total beta = 32.00000, Total charge =  0.00000
