                              Psi4 1.0.54 Driver

  ==> Input File <==

--------------------------------------------------------------------------
set {
	reference rhf
	basis cc-pvtz
}

set_num_threads( 4 )
memory 2 gb

molecule MOL {
0 1

H	 -1.170921	 -1.352473	 0.239774
O	 -1.432053	 -0.565244	 -0.200812
C	 -0.727158	 0.534527	 0.310686
C	 0.680222	 0.664433	 -0.252229
H	 -1.306802	 1.408001	 0.044211
H	 -0.690821	 0.490158	 1.397609
C	 1.605391	 -0.489360	 0.123098
H	 0.615089	 0.745647	 -1.332226
H	 1.101414	 1.597893	 0.110950
H	 1.247627	 -1.432485	 -0.275204
H	 2.601435	 -0.332816	 -0.273062
H	 1.691776	 -0.589902	 1.200774

	symmetry c1
}
set optking {
	frozen_dihedral = ("
		1 2 3 4
	")
}

ee,wfn = optimize('scf', return_wfn=True)
oeprop( wfn, 'DIPOLE', 'QUADRUPOLE', 'MULLIKEN_CHARGES')
f=open( 'psi4out.xyz', 'w' )
f.write( "12  " )
f.write( str(ee) + "\n" )
f.write( MOL.save_string_xyz() )
f.close()
--------------------------------------------------------------------------

    Molecular point group: c1
  Charge       = 0
  Multiplicity = 1
  Basis Set: CC-PVTZ
  Basis Set:
  @DF-RHF Final Energy:  -193.19053863989112
    Total Energy =                       -193.1905386398910878
    Molecular point group: c1
  Basis Set: CC-PVTZ
  Basis Set:
  Basis Set: CC-PVTZ
  Basis Set:
  @DF-RHF Final Energy:  -193.19054483779297
    Total Energy =                       -193.1905448377928565
  Basis Set: CC-PVTZ
  Basis Set:
  Basis Set: CC-PVTZ
  Basis Set:
  @DF-RHF Final Energy:  -193.19054672785273
    Total Energy =                       -193.1905467278526771
  Basis Set: CC-PVTZ
  Basis Set:
  Charge       = 0
  Multiplicity = 1
  Basis Set: CC-PVTZ
  Basis Set:

    Orbital Energies (a.u.)
    -----------------------

    Doubly Occupied:

       1A    -20.546318     2A    -11.266156     3A    -11.215953
       4A    -11.213258     5A     -1.364247     6A     -1.051288
       7A     -0.927558     8A     -0.808694     9A     -0.701309
      10A     -0.637133    11A     -0.600456    12A     -0.590144
      13A     -0.537675    14A     -0.512040    15A     -0.492177
      16A     -0.469585    17A     -0.432607

  @DF-RHF Final Energy:  -193.19054690917932

   => Energetics <=

    Nuclear Repulsion Energy =            133.1904029058774199
    One-Electron Energy =                -526.0287055434148442
    Two-Electron Energy =                 199.6477557283581064
    DFT Exchange-Correlation Energy =       0.0000000000000000
    Empirical Dispersion Energy =           0.0000000000000000
    PCM Polarization Energy =               0.0000000000000000
    EFP Energy =                            0.0000000000000000
    Total Energy =                       -193.1905469091793179
    Molecular point group: c1
  Basis Set: CC-PVTZ
  Basis Set:

  -Total Gradient:
     Atom            X                  Y                   Z
    ------   -----------------  -----------------  -----------------
       1       -0.000384507607     0.000092934652     0.000349852574
       2        0.000430837907    -0.000005598892    -0.000521771880
       3        0.000067933918    -0.000276903607     0.000415279488
       4       -0.000098899571     0.000189160447    -0.000228263711
       5       -0.000018134829    -0.000002741699     0.000001558610
       6       -0.000006939005     0.000000116543    -0.000013363800
       7        0.000013022385    -0.000012671437    -0.000018174588
       8       -0.000009921855    -0.000000630195     0.000011153349
       9        0.000010047866     0.000014232562    -0.000003957529
      10       -0.000007998722     0.000004178545     0.000003756387
      11        0.000003200443    -0.000002920840     0.000004465425
      12        0.000001359070     0.000000843922    -0.000000534327

  **** Optimization is complete! (in 4 steps) ****
    Final optimized geometry and variables:
    Molecular point group: c1

    Geometry (in Angstrom), charge = 0, multiplicity = 1:

    H           -1.157389062099    -1.360635013436     0.230761574917
    O           -1.422173396759    -0.575165748766    -0.209933308787
    C           -0.730718327041     0.531192682797     0.307566585402
    C            0.677957559810     0.669520413396    -0.249479378934
    H           -1.313684573560     1.401928728815     0.038221667117
    H           -0.700855652695     0.486895332057     1.394288719220
    C            1.605917587625    -0.480891787870     0.127872519716
    H            0.614931375491     0.750207823965    -1.329580602998
    H            1.093093388607     1.605454436800     0.114619100968
    H            1.247312225271    -1.424160458986    -0.268360754920
    H            2.601858339598    -0.323199237651    -0.268206487130
    H            1.692485632404    -0.578982792231     1.205860136390

  Mulliken Charges: (a.u.)
   Center  Symbol    Alpha    Beta     Spin     Total
       1     H     0.39217  0.39217  0.00000  0.21565
       2     O     4.20594  4.20594  0.00000 -0.41188
       3     C     2.97840  2.97840  0.00000  0.04320
       4     C     3.07936  3.07936  0.00000 -0.15871
       5     H     0.45012  0.45012  0.00000  0.09975
       6     H     0.46975  0.46975  0.00000  0.06051
       7     C     3.16048  3.16048  0.00000 -0.32096
       8     H     0.45206  0.45206  0.00000  0.09588
       9     H     0.45676  0.45676  0.00000  0.08647
      10     H     0.45484  0.45484  0.00000  0.09031
      11     H     0.44511  0.44511  0.00000  0.10979
      12     H     0.45500  0.45500  0.00000  0.08999

   Total alpha = 17.00000, Total beta = 17.00000, Total charge =  0.00000

*** Psi4 exiting successfully. Buy a developer a beer!
