  ==> Input File <==

--------------------------------------------------------------------------
set {
	reference rhf
	basis 6-31G*
}

set_num_threads( 4 )
memory 2 gb

molecule MOL {
0 1

O	 -2.439739	 -0.935931	 -0.423848
C	 -1.921153	 0.064240	 -0.045697
C	 -2.624470	 1.379923	 0.150949
O	 -0.632575	 0.154573	 0.251549
H	 -2.168117	 2.136577	 -0.476876
H	 -3.669540	 1.273223	 -0.098610
H	 -2.519365	 1.700893	 1.180846
C	 0.160891	 -1.019931	 0.106212
C	 1.589627	 -0.672828	 0.480843
H	 0.089836	 -1.367806	 -0.916050
H	 -0.238459	 -1.792301	 0.749618
C	 2.246377	 0.346236	 -0.452210
H	 2.163194	 -1.597435	 0.473358
H	 1.604769	 -0.303424	 1.502885
C	 1.358904	 1.563499	 -0.708460
H	 3.190486	 0.671580	 -0.019882
H	 2.486927	 -0.133459	 -1.395284
H	 1.845995	 2.270083	 -1.372924
H	 1.128012	 2.084502	 0.216485
H	 0.418136	 1.272933	 -1.167378

	symmetry c1
}
set optking {
	frozen_dihedral = ("
		16 12 9 8
	")
}

ee = optimize('scf')
oeprop('DIPOLE', 'QUADRUPOLE', 'MULLIKEN_CHARGES')
f=open( 'psi4out.xyz', 'w' )
f.write( "20  " )
f.write( str(ee) + "\n" )
f.write( MOL.save_string_xyz() )
f.close()
--------------------------------------------------------------------------

    Molecular point group: c1
  Charge       = 0
  Multiplicity = 1
  Basis Set: 6-31G*
  Basis Set:
  @DF-RHF Final Energy:  -383.93330351182050
    Total Energy =                       -383.9333035118204407
    Molecular point group: c1
  Basis Set: 6-31G*
  Basis Set:
  Basis Set: 6-31G*
  Basis Set:
  @DF-RHF Final Energy:  -383.93903483686688
    Total Energy =                       -383.9390348368665400
  Basis Set: 6-31G*
  Basis Set:
  Basis Set: 6-31G*
  Basis Set:
  @DF-RHF Final Energy:  -383.94066302713611
    Total Energy =                       -383.9406630271363383
  Basis Set: 6-31G*
  Basis Set:
  Basis Set: 6-31G*
  Basis Set:
  @DF-RHF Final Energy:  -383.94121475581193
    Total Energy =                       -383.9412147558117567
  Basis Set: 6-31G*
  Basis Set:
  @DF-RHF Final Energy:  -383.94003443459502
    Total Energy =                       -383.9400344345950771
  Basis Set: 6-31G*
  Basis Set:
  @DF-RHF Final Energy:  -383.94147497020862
    Total Energy =                       -383.9414749702084464
  Basis Set: 6-31G*
  Basis Set:
  Basis Set: 6-31G*
  Basis Set:
  @DF-RHF Final Energy:  -383.94150051733402
    Total Energy =                       -383.9415005173337931
  Basis Set: 6-31G*
  Basis Set:
  Basis Set: 6-31G*
  Basis Set:
  @DF-RHF Final Energy:  -383.94150195239877
    Total Energy =                       -383.9415019523988803
  Basis Set: 6-31G*
  Basis Set:
  Charge       = 0
  Multiplicity = 1
  Basis Set: 6-31G*
  Basis Set:

    Orbital Energies (a.u.)
    -----------------------

    Doubly Occupied:

       1A    -20.601784     2A    -20.544244     3A    -11.374579
       4A    -11.282670     5A    -11.233406     6A    -11.226204
       7A    -11.222908     8A    -11.209467     9A     -1.468233
      10A     -1.362371    11A     -1.084044    12A     -1.026622
      13A     -0.979003    14A     -0.890949    15A     -0.797293
      16A     -0.778888    17A     -0.690292    18A     -0.687073
      19A     -0.665686    20A     -0.622567    21A     -0.608646
      22A     -0.585956    23A     -0.572188    24A     -0.555000
      25A     -0.547301    26A     -0.529767    27A     -0.513401
      28A     -0.481122    29A     -0.475108    30A     -0.468792
      31A     -0.445957    32A     -0.438087

  @DF-RHF Final Energy:  -383.94150281692453

   => Energetics <=

    Nuclear Repulsion Energy =            394.5023904170424203
    One-Electron Energy =               -1304.9485769228185745
    Two-Electron Energy =                 526.5046836888516282
    DFT Exchange-Correlation Energy =       0.0000000000000000
    Empirical Dispersion Energy =           0.0000000000000000
    PCM Polarization Energy =               0.0000000000000000
    EFP Energy =                            0.0000000000000000
    Total Energy =                       -383.9415028169245261
    Molecular point group: c1
  Basis Set: 6-31G*
  Basis Set:

  -Total Gradient:
     Atom            X                  Y                   Z
    ------   -----------------  -----------------  -----------------
       1        0.000017557293    -0.000039261578     0.000029745826
       2        0.000050397874     0.000047689267    -0.000075387090
       3       -0.000009361632    -0.000007348961     0.000026076705
       4       -0.000005157866     0.000001553301     0.000025188253
       5       -0.000003017863     0.000003543275     0.000002485822
       6        0.000005226716    -0.000002315607    -0.000000998868
       7       -0.000001962870     0.000009724333     0.000003071702
       8       -0.000916850533     0.002156379065     0.001230404277
       9        0.000968773672    -0.002492403784    -0.001553553150
      10       -0.000008400136     0.000014933342    -0.000009802346
      11        0.000019631219    -0.000016140720     0.000015292245
      12        0.001599294625    -0.002456358661    -0.000930314007
      13       -0.000033635920     0.000000284603    -0.000026680333
      14        0.000010035827     0.000016331721     0.000021410459
      15       -0.000012134076    -0.000029214327     0.000050028488
      16       -0.001672995410     0.002817716798     0.001257691718
      17       -0.000016203071     0.000003491011    -0.000003019345
      18        0.000039654797     0.000023251731     0.000002664768
      19        0.000025941299    -0.000026659070    -0.000019961510
      20       -0.000056793940    -0.000025195735    -0.000044343615

  **** Optimization is complete! (in 9 steps) ****
    Final optimized geometry and variables:
    Molecular point group: c1

    Geometry (in Angstrom), charge = 0, multiplicity = 1:

    O           -2.158446805864    -1.057876126423    -0.422744944905
    C           -1.699360334620    -0.082845896462     0.078360116346
    C           -2.478110765672     1.157148500203     0.425587465655
    O           -0.420412648059     0.041893728933     0.403011974198
    H           -2.066902092535     2.007962763800    -0.105479091264
    H           -3.515218692867     1.020359199785     0.158085353586
    H           -2.391340309055     1.359360549611     1.486869338942
    C            0.436868774171    -1.063663302185     0.134238513243
    C            1.845016407127    -0.711650685049     0.589296465430
    H            0.395693697289    -1.295734120903    -0.922237324217
    H            0.063029903170    -1.922880075830     0.674336128306
    C            2.660569830469     0.192549074804    -0.347181787834
    H            2.388574835518    -1.642873299637     0.726135866185
    H            1.768626465668    -0.252977182228     1.571333261071
    C            1.955779694187     1.463118334495    -0.829208311680
    H            3.556413763183     0.495719118956     0.188342353964
    H            2.986688443723    -0.383542918141    -1.209746575455
    H            2.641958790307     2.070117785950    -1.412053121576
    H            1.605302661975     2.061036780297     0.005465874998
    H            1.099877358113     1.240903575646    -1.456224681604

  Mulliken Charges: (a.u.)
   Center  Symbol    Alpha    Beta     Spin     Total
       1     O     4.28337  4.28337  0.00000 -0.56673
       2     C     2.61956  2.61956  0.00000  0.76089
       3     C     3.28183  3.28183  0.00000 -0.56367
       4     O     4.30725  4.30725  0.00000 -0.61450
       5     H     0.40034  0.40034  0.00000  0.19932
       6     H     0.39691  0.39691  0.00000  0.20618
       7     H     0.40067  0.40067  0.00000  0.19866
       8     C     3.00599  3.00599  0.00000 -0.01199
       9     C     3.16570  3.16570  0.00000 -0.33140
      10     H     0.41007  0.41007  0.00000  0.17985
      11     H     0.40806  0.40806  0.00000  0.18388
      12     C     3.15516  3.15516  0.00000 -0.31032
      13     H     0.41580  0.41580  0.00000  0.16841
      14     H     0.41269  0.41269  0.00000  0.17462
      15     C     3.23640  3.23640  0.00000 -0.47279
      16     H     0.41899  0.41899  0.00000  0.16201
      17     H     0.42140  0.42140  0.00000  0.15720
      18     H     0.42137  0.42137  0.00000  0.15727
      19     H     0.41821  0.41821  0.00000  0.16358
      20     H     0.42023  0.42023  0.00000  0.15953

   Total alpha = 32.00000, Total beta = 32.00000, Total charge = -0.00000
