  ==> Input File <==

--------------------------------------------------------------------------
set {
	reference rhf
	basis 6-31G*
}

set_num_threads( 1 )
memory 2 gb

molecule MOL {
0 1

H	 -3.261111	 -0.295142	 1.469456
C	 -3.306842	 -0.277400	 0.373456
C	 -2.660244	 0.921717	 -0.272021
O	 -3.838538	 -1.161155	 -0.216482
C	 -2.451438	 0.736585	 -1.781452
H	 -3.266514	 1.794157	 -0.057557
H	 -1.692785	 1.061002	 0.208892
C	 -3.758907	 0.668255	 -2.574645
H	 -1.849186	 1.562061	 -2.149099
H	 -1.867692	 -0.165652	 -1.957421
C	 -3.535423	 0.495207	 -4.078282
H	 -4.332175	 1.575347	 -2.394661
H	 -4.371463	 -0.152583	 -2.206486
C	 -4.844645	 0.443400	 -4.870244
H	 -2.914707	 1.311832	 -4.438238
H	 -2.971738	 -0.419696	 -4.256039
C	 -4.673866	 0.188247	 -6.372177
H	 -5.390935	 1.373965	 -4.724268
H	 -5.471053	 -0.343671	 -4.455701
C	 -3.968681	 1.313054	 -7.131877
H	 -5.658160	 0.037591	 -6.808545
H	 -4.131420	 -0.743340	 -6.519893
H	 -4.480568	 2.261109	 -6.988940
H	 -2.940897	 1.439891	 -6.808541
H	 -3.950663	 1.105491	 -8.197517

	symmetry c1
}
set optking {
	frozen_dihedral = ("
		6 3 5 8,
		3 5 8 12,
		12 8 11 14,
		8 11 14 18,
		20 17 14 18
	")
}

ee = energy('scf')
oeprop('DIPOLE', 'QUADRUPOLE', 'MULLIKEN_CHARGES')
f=open( 'psi4out.xyz', 'w' )
f.write( "25  " )
f.write( str(ee) + "\n" )
f.write( MOL.save_string_xyz() )
f.close()
--------------------------------------------------------------------------

    Molecular point group: c1

    Geometry (in Angstrom), charge = 0, multiplicity = 1:

       Center              X                  Y                   Z               Mass
    ------------   -----------------  -----------------  -----------------  -----------------
           H          0.413619311188    -0.660328924120     4.472152347158     1.007825032070
           C          0.367888311188    -0.642586924120     3.376152347158    12.000000000000
           C          1.014486311188     0.556530075880     2.730675347158    12.000000000000
           O         -0.163807688812    -1.526341924120     2.786214347158    15.994914619560
           C          1.223292311188     0.371398075880     1.221244347158    12.000000000000
           H          0.408216311188     1.428970075880     2.945139347158     1.007825032070
           H          1.981945311188     0.695815075880     3.211588347158     1.007825032070
           C         -0.084176688812     0.303068075880     0.428051347158    12.000000000000
           H          1.825544311188     1.196874075880     0.853597347158     1.007825032070
           H          1.807038311188    -0.530838924120     1.045275347158     1.007825032070
           C          0.139307311188     0.130020075880    -1.075585652842    12.000000000000
           H         -0.657444688812     1.210160075880     0.608035347158     1.007825032070
           H         -0.696732688812    -0.517769924120     0.796210347158     1.007825032070
           C         -1.169914688812     0.078213075880    -1.867547652842    12.000000000000
           H          0.760023311188     0.946645075880    -1.435541652842     1.007825032070
           H          0.702992311188    -0.784882924120    -1.253342652842     1.007825032070
           C         -0.999135688812    -0.176939924120    -3.369480652842    12.000000000000
           H         -1.716204688812     1.008778075880    -1.721571652842     1.007825032070
           H         -1.796322688812    -0.708857924120    -1.453004652842     1.007825032070
           C         -0.293950688812     0.947867075880    -4.129180652842    12.000000000000
           H         -1.983429688812    -0.327595924120    -3.805848652842     1.007825032070
           H         -0.456689688812    -1.108526924120    -3.517196652842     1.007825032070
           H         -0.805837688812     1.895922075880    -3.986243652842     1.007825032070
           H          0.733833311188     1.074704075880    -3.805844652842     1.007825032070
           H         -0.275932688812     0.740304075880    -5.194820652842     1.007825032070

  Charge       = 0
  Multiplicity = 1
  Basis Set: 6-31G*
  Basis Set:

    Orbital Energies (a.u.)
    -----------------------

    Doubly Occupied:

       1A    -20.565494     2A    -11.330088     3A    -11.237504
       4A    -11.222097     5A    -11.211026     6A    -11.208407
       7A    -11.207676     8A    -11.205365     9A    -11.204979
      10A     -1.407236    11A     -1.091849    12A     -1.062115
      13A     -1.007458    14A     -0.939332    15A     -0.873344
      16A     -0.811393    17A     -0.775144    18A     -0.766586
      19A     -0.686779    20A     -0.651830    21A     -0.626813
      22A     -0.617902    23A     -0.605939    24A     -0.583566
      25A     -0.554814    26A     -0.548411    27A     -0.533675
      28A     -0.514972    29A     -0.502595    30A     -0.495945
      31A     -0.479412    32A     -0.470194    33A     -0.455234
      34A     -0.450153    35A     -0.433030    36A     -0.406379

  @DF-RHF Final Energy:  -387.12047673667092

   => Energetics <=

    Nuclear Repulsion Energy =            446.7565256949977197
    One-Electron Energy =               -1410.2646898782145399
    Two-Electron Energy =                 576.3876874465474884
    DFT Exchange-Correlation Energy =       0.0000000000000000
    Empirical Dispersion Energy =           0.0000000000000000
    PCM Polarization Energy =               0.0000000000000000
    EFP Energy =                            0.0000000000000000
    Total Energy =                       -387.1204767366693886

  Mulliken Charges: (a.u.)
   Center  Symbol    Alpha    Beta     Spin     Total
       1     H     0.42716  0.42716  0.00000  0.14568
       2     C     2.83663  2.83663  0.00000  0.32675
       3     C     3.21413  3.21413  0.00000 -0.42827
       4     O     4.23626  4.23626  0.00000 -0.47252
       5     C     3.15336  3.15336  0.00000 -0.30672
       6     H     0.40297  0.40297  0.00000  0.19406
       7     H     0.40799  0.40799  0.00000  0.18402
       8     C     3.15990  3.15990  0.00000 -0.31980
       9     H     0.41950  0.41950  0.00000  0.16100
      10     H     0.41462  0.41462  0.00000  0.17076
      11     C     3.15400  3.15400  0.00000 -0.30800
      12     H     0.42962  0.42962  0.00000  0.14075
      13     H     0.39621  0.39621  0.00000  0.20758
      14     C     3.15264  3.15264  0.00000 -0.30528
      15     H     0.42505  0.42505  0.00000  0.14990
      16     H     0.42302  0.42302  0.00000  0.15395
      17     C     3.15226  3.15226  0.00000 -0.30452
      18     H     0.42563  0.42563  0.00000  0.14874
      19     H     0.42004  0.42004  0.00000  0.15993
      20     C     3.24081  3.24081  0.00000 -0.48161
      21     H     0.42159  0.42159  0.00000  0.15681
      22     H     0.42313  0.42313  0.00000  0.15375
      23     H     0.42305  0.42305  0.00000  0.15391
      24     H     0.42045  0.42045  0.00000  0.15911
      25     H     0.41998  0.41998  0.00000  0.16003

   Total alpha = 36.00000, Total beta = 36.00000, Total charge = -0.00000
