  ==> Input File <==

--------------------------------------------------------------------------
set {
	reference rhf
	basis 6-31G*
}

set_num_threads( 4 )
memory 2 gb

molecule MOL {
0 1

H	 -1.595227	 0.512332	 -2.246222
C	 -1.221144	 -0.377893	 -1.744524
O	 -1.392607	 -0.295399	 -0.366433
H	 -1.779623	 -1.236161	 -2.091828
H	 -0.173163	 -0.509283	 -2.010794
C	 -0.719715	 0.768384	 0.229244
C	 0.719720	 0.768376	 -0.229267
H	 -1.185038	 1.714362	 -0.050570
H	 -0.750528	 0.687237	 1.313896
O	 1.392611	 -0.295398	 0.366430
H	 0.750534	 0.687200	 -1.313918
H	 1.185043	 1.714359	 0.050526
C	 2.706965	 -0.449871	 -0.062409
H	 2.756559	 -0.644779	 -1.131878
H	 3.305899	 0.433456	 0.155466
H	 3.125548	 -1.294566	 0.467107

	symmetry c1
}
set optking {
	frozen_dihedral = ("
		2 3 6 7
	")
}

ee = optimize('scf')
oeprop('DIPOLE', 'QUADRUPOLE', 'MULLIKEN_CHARGES')
f=open( 'psi4out.xyz', 'w' )
f.write( "16  " )
f.write( str(ee) + "\n" )
f.write( MOL.save_string_xyz() )
f.close()
--------------------------------------------------------------------------

    Molecular point group: c1
  Charge       = 0
  Multiplicity = 1
  Basis Set: 6-31G*
  Basis Set:
  @DF-RHF Final Energy:  -306.96279496150686
    Total Energy =                       -306.9627949615069724
    Molecular point group: c1
  Basis Set: 6-31G*
  Basis Set:
  Basis Set: 6-31G*
  Basis Set:
  @DF-RHF Final Energy:  -306.96965336494998
    Total Energy =                       -306.9696533649499770
  Basis Set: 6-31G*
  Basis Set:
  Basis Set: 6-31G*
  Basis Set:
  @DF-RHF Final Energy:  -306.97282718809953
    Total Energy =                       -306.9728271880996431
  Basis Set: 6-31G*
  Basis Set:
  Basis Set: 6-31G*
  Basis Set:
  @DF-RHF Final Energy:  -306.97376369051591
    Total Energy =                       -306.9737636905157387
  Basis Set: 6-31G*
  Basis Set:
  Basis Set: 6-31G*
  Basis Set:
  @DF-RHF Final Energy:  -306.97393637344601
    Total Energy =                       -306.9739363734460085
  Basis Set: 6-31G*
  Basis Set:
  Basis Set: 6-31G*
  Basis Set:
  @DF-RHF Final Energy:  -306.97398017805307
    Total Energy =                       -306.9739801780530115
  Basis Set: 6-31G*
  Basis Set:
  Basis Set: 6-31G*
  Basis Set:
  @DF-RHF Final Energy:  -306.97398481356504
    Total Energy =                       -306.9739848135652664
  Basis Set: 6-31G*
  Basis Set:
  Charge       = 0
  Multiplicity = 1
  Basis Set: 6-31G*
  Basis Set:

    Orbital Energies (a.u.)
    -----------------------

    Doubly Occupied:

       1A    -20.560195     2A    -20.550793     3A    -11.273801
       4A    -11.269206     5A    -11.269047     6A    -11.260900
       7A     -1.390931     8A     -1.369053     9A     -1.028434
      10A     -0.948350    11A     -0.900743    12A     -0.812323
      13A     -0.691522    14A     -0.681520    15A     -0.658621
      16A     -0.637696    17A     -0.628087    18A     -0.596689
      19A     -0.559504    20A     -0.530723    21A     -0.518071
      22A     -0.491169    23A     -0.451514    24A     -0.421568
      25A     -0.409803

  @DF-RHF Final Energy:  -306.97398502357640

   => Energetics <=

    Nuclear Repulsion Energy =            264.1658372417890064
    One-Electron Energy =                -942.4591233922279798
    Two-Electron Energy =                 371.3193011268623422
    DFT Exchange-Correlation Energy =       0.0000000000000000
    Empirical Dispersion Energy =           0.0000000000000000
    PCM Polarization Energy =               0.0000000000000000
    EFP Energy =                            0.0000000000000000
    Total Energy =                       -306.9739850235765743
    Molecular point group: c1
  Basis Set: 6-31G*
  Basis Set:

  -Total Gradient:
     Atom            X                  Y                   Z
    ------   -----------------  -----------------  -----------------
       1        0.000010739911     0.000004644261     0.000020882980
       2        0.001450915525    -0.001243096441     0.000282405056
       3       -0.002327200247     0.002208795929    -0.001158813387
       4        0.000005265304    -0.000010553474    -0.000020009835
       5       -0.000014228967     0.000008120683     0.000010972953
       6        0.001228493409    -0.001949951605     0.002246730079
       7       -0.000370907475     0.000962980267    -0.001369969835
       8        0.000009472234    -0.000009719800     0.000003330857
       9        0.000015330428     0.000016626187     0.000009606697
      10       -0.000016658124     0.000014688524    -0.000023307216
      11       -0.000005232214    -0.000002733589     0.000001549044
      12        0.000000177329     0.000014702818    -0.000006308221
      13        0.000008126111    -0.000016704551     0.000005266221
      14       -0.000002076247     0.000001604139     0.000004142462
      15       -0.000003064088     0.000001454148    -0.000003282519
      16        0.000010847115    -0.000000857497    -0.000003195335

  **** Optimization is complete! (in 8 steps) ****
    Final optimized geometry and variables:
    Molecular point group: c1

    Geometry (in Angstrom), charge = 0, multiplicity = 1:

    H           -1.751372889783     0.403503361780    -1.961589410930
    C           -1.576326881999    -0.500984231284    -1.379672438574
    O           -1.690490227777    -0.266012100165    -0.011735359927
    H           -2.333465443668    -1.228210200476    -1.639190676390
    H           -0.603679162324    -0.904846679486    -1.640315208305
    C           -0.949644704229     0.791793973340     0.512917966530
    C            0.522271416171     0.818715625365     0.141137610285
    H           -1.384996127758     1.744239263494     0.204557287470
    H           -1.041972813325     0.712276446107     1.587467235529
    O            1.128276164530    -0.367355039087     0.544452938923
    H            0.656347097052     0.969007020099    -0.928944042442
    H            0.977292875897     1.674738650283     0.641389941817
    C            2.492753500964    -0.432168154803     0.276583736703
    H            2.694560956837    -0.347265614079    -0.789863880112
    H            3.038400883340     0.355193582159     0.793669534211
    H            2.848555567855    -1.391815995055     0.624765150218

  Mulliken Charges: (a.u.)
   Center  Symbol    Alpha    Beta     Spin     Total
       1     H     0.43454  0.43454  0.00000  0.13093
       2     C     3.08354  3.08354  0.00000 -0.16707
       3     O     4.30078  4.30078  0.00000 -0.60156
       4     H     0.41158  0.41158  0.00000  0.17684
       5     H     0.42184  0.42184  0.00000  0.15632
       6     C     2.98895  2.98895  0.00000  0.02210
       7     C     3.01234  3.01234  0.00000 -0.02468
       8     H     0.43239  0.43239  0.00000  0.13523
       9     H     0.40870  0.40870  0.00000  0.18261
      10     O     4.29838  4.29838  0.00000 -0.59675
      11     H     0.42941  0.42941  0.00000  0.14118
      12     H     0.42774  0.42774  0.00000  0.14452
      13     C     3.08025  3.08025  0.00000 -0.16050
      14     H     0.43037  0.43037  0.00000  0.13926
      15     H     0.42960  0.42960  0.00000  0.14079
      16     H     0.40961  0.40961  0.00000  0.18077

   Total alpha = 25.00000, Total beta = 25.00000, Total charge =  0.00000
