  ==> Input File <==

--------------------------------------------------------------------------
set {
	reference rhf
	basis 6-31G*
}

set_num_threads( 4 )
memory 2 gb

molecule MOL {
0 1

H	 -3.161837	 0.500524	 -0.000234
C	 -2.367097	 -0.232926	 -0.000000
O	 -1.158440	 0.455814	 -0.000122
H	 -2.468853	 -0.861886	 -0.882833
H	 -2.468942	 -0.861421	 0.883154
C	 -0.029776	 -0.365156	 0.000148
C	 1.212217	 0.508981	 0.000007
H	 -0.036772	 -1.013236	 -0.877259
H	 -0.036869	 -1.012778	 0.877897
C	 1.592538	 0.983769	 -1.401711
H	 1.033602	 1.360931	 0.648805
H	 2.029558	 -0.054038	 0.440077
H	 0.796350	 1.570787	 -1.851065
H	 2.481655	 1.604616	 -1.372272
H	 1.798732	 0.145654	 -2.061598

	symmetry c1
}
set optking {
	frozen_dihedral = ("
		11 7 6 8
	")
}

ee = optimize('scf')
oeprop('DIPOLE', 'QUADRUPOLE', 'MULLIKEN_CHARGES')
f=open( 'psi4out.xyz', 'w' )
f.write( "15  " )
f.write( str(ee) + "\n" )
f.write( MOL.save_string_xyz() )
f.close()
--------------------------------------------------------------------------

    Molecular point group: c1
  Charge       = 0
  Multiplicity = 1
  Basis Set: 6-31G*
  Basis Set:
  @DF-RHF Final Energy:  -232.13768257765582
    Total Energy =                       -232.1376825776557666
    Molecular point group: c1
  Basis Set: 6-31G*
  Basis Set:
  Basis Set: 6-31G*
  Basis Set:
  @DF-RHF Final Energy:  -232.13804654899752
    Total Energy =                       -232.1380465489976359
  Basis Set: 6-31G*
  Basis Set:
  Basis Set: 6-31G*
  Basis Set:
  @DF-RHF Final Energy:  -232.13813081306412
    Total Energy =                       -232.1381308130642083
  Basis Set: 6-31G*
  Basis Set:
  Basis Set: 6-31G*
  Basis Set:
  @DF-RHF Final Energy:  -232.13813276461460
    Total Energy =                       -232.1381327646146246
  Basis Set: 6-31G*
  Basis Set:
  Charge       = 0
  Multiplicity = 1
  Basis Set: 6-31G*
  Basis Set:

    Orbital Energies (a.u.)
    -----------------------

    Doubly Occupied:

       1A    -20.553379     2A    -11.266598     3A    -11.264015
       4A    -11.214474     5A    -11.205461     6A     -1.377564
       7A     -1.053920     8A     -0.950889     9A     -0.882803
      10A     -0.802647    11A     -0.668275    12A     -0.662119
      13A     -0.631667    14A     -0.586381    15A     -0.574475
      16A     -0.545834    17A     -0.495163    18A     -0.483379
      19A     -0.481872    20A     -0.460055    21A     -0.412945

  @DF-RHF Final Energy:  -232.13813293435271

   => Energetics <=

    Nuclear Repulsion Energy =            192.2821803261411446
    One-Electron Energy =                -695.6927932325389747
    Two-Electron Energy =                 271.2724799720451188
    DFT Exchange-Correlation Energy =       0.0000000000000000
    Empirical Dispersion Energy =           0.0000000000000000
    PCM Polarization Energy =               0.0000000000000000
    EFP Energy =                            0.0000000000000000
    Total Energy =                       -232.1381329343527113
    Molecular point group: c1
  Basis Set: 6-31G*
  Basis Set:

  -Total Gradient:
     Atom            X                  Y                   Z
    ------   -----------------  -----------------  -----------------
       1        0.000008088111     0.000003615191     0.000002994551
       2       -0.000009809700    -0.000014388440     0.000001594844
       3       -0.000010055414     0.000014056465     0.000000976129
       4       -0.000000022786     0.000001387174     0.000000621510
       5       -0.000005539330     0.000000909827     0.000000739172
       6        0.002252565934    -0.003173254952     0.001937717397
       7        0.001363662465    -0.001789961739     0.003363102088
       8       -0.002056046191     0.002888541335    -0.002093079386
       9        0.000003424848    -0.000005137658    -0.000008891899
      10       -0.000013709396     0.000012868412    -0.000032355704
      11       -0.001507844950     0.002062845482    -0.003167783534
      12       -0.000034502125    -0.000001332593    -0.000000271656
      13       -0.000001585648    -0.000009274710    -0.000013516858
      14        0.000002569387    -0.000000484095     0.000002351060
      15        0.000008804793     0.000009610300     0.000005802285

  **** Optimization is complete! (in 5 steps) ****
    Final optimized geometry and variables:
    Molecular point group: c1

    Geometry (in Angstrom), charge = 0, multiplicity = 1:

    H           -2.960329223771     0.270338252517     0.234712099238
    C           -2.175905263853    -0.474095032480     0.250903841787
    O           -0.958239287060     0.196844564666     0.288258296905
    H           -2.262914487129    -1.095977204958    -0.638556224228
    H           -2.310408444367    -1.107021024706     1.126625928266
    C            0.161100064624    -0.643831236475     0.320971044688
    C            1.412058209631     0.223969837640     0.284724383674
    H            0.130059077883    -1.303452974497    -0.546433959316
    H            0.135896090876    -1.259534214280     1.218978659614
    C            1.738457680548     0.730035356347    -1.121165343788
    H            1.236354433230     1.078880224139     0.929456615608
    H            2.253762162438    -0.333582365353     0.685742011203
    H            0.898003046898     1.276538761275    -1.534931482895
    H            2.596851178455     1.394461556400    -1.107664366223
    H            1.967966396858    -0.092936941072    -1.792654722690

  Mulliken Charges: (a.u.)
   Center  Symbol    Alpha    Beta     Spin     Total
       1     H     0.41237  0.41237  0.00000  0.17526
       2     C     3.07889  3.07889  0.00000 -0.15778
       3     O     4.30523  4.30523  0.00000 -0.61047
       4     H     0.43050  0.43050  0.00000  0.13900
       5     H     0.43067  0.43067  0.00000  0.13867
       6     C     2.98954  2.98954  0.00000  0.02091
       7     C     3.16066  3.16066  0.00000 -0.32132
       8     H     0.43245  0.43245  0.00000  0.13511
       9     H     0.42912  0.42912  0.00000  0.14176
      10     C     3.24352  3.24352  0.00000 -0.48704
      11     H     0.41018  0.41018  0.00000  0.17964
      12     H     0.42199  0.42199  0.00000  0.15602
      13     H     0.41081  0.41081  0.00000  0.17839
      14     H     0.41970  0.41970  0.00000  0.16061
      15     H     0.42438  0.42438  0.00000  0.15124

   Total alpha = 21.00000, Total beta = 21.00000, Total charge = -0.00000
