  ==> Input File <==

--------------------------------------------------------------------------
set {
	reference rhf
	basis cc-pvtz
}

set_num_threads( 4 )
memory 2 gb

molecule MOL {
0 1

H	 -3.498818	 -0.133246	 0.762012
O	 -3.103022	 -0.240745	 -0.084242
C	 -1.772068	 -0.086824	 -0.023690
C	 -1.115173	 0.195131	 1.167707
C	 -1.058116	 -0.219175	 -1.203071
H	 -1.675949	 0.296344	 2.078593
C	 0.251479	 0.343196	 1.173579
H	 -1.584058	 -0.436745	 -2.110853
C	 0.309957	 -0.067933	 -1.180148
H	 0.770055	 0.560827	 2.086172
C	 0.981121	 0.213562	 0.000000
H	 0.864852	 -0.170401	 -2.094539
C	 2.447402	 0.371303	 0.000000
O	 3.227427	 -0.521847	 0.000000
H	 2.796538	 1.409525	 0.000000

	symmetry c1
}
set optking {
	frozen_dihedral = ("
		7 11 13 14
	")
}

ee = optimize('scf')
oeprop('DIPOLE', 'QUADRUPOLE', 'MULLIKEN_CHARGES')
f=open( 'psi4out.xyz', 'w' )
f.write( "15  " )
f.write( str(ee) + "\n" )
f.write( MOL.save_string_xyz() )
f.close()
--------------------------------------------------------------------------

    Molecular point group: c1
  Charge       = 0
  Multiplicity = 1
  Basis Set: CC-PVTZ
  Basis Set:
  @DF-RHF Final Energy:  -418.42687204548332
    Total Energy =                       -418.4268720454831509
    Molecular point group: c1
  Basis Set: CC-PVTZ
  Basis Set:
  Basis Set: CC-PVTZ
  Basis Set:
  @DF-RHF Final Energy:  -418.42733558998918
    Total Energy =                       -418.4273355899890703
  Basis Set: CC-PVTZ
  Basis Set:
  Basis Set: CC-PVTZ
  Basis Set:
  @DF-RHF Final Energy:  -418.42653417721812
    Total Energy =                       -418.4265341772177180
  Basis Set: CC-PVTZ
  Basis Set:
  Basis Set: CC-PVTZ
  Basis Set:
  @DF-RHF Final Energy:  -418.42762266906027
    Total Energy =                       -418.4276226690603835
  Basis Set: CC-PVTZ
  Basis Set:
  Basis Set: CC-PVTZ
  Basis Set:
  @DF-RHF Final Energy:  -418.42762827407256
    Total Energy =                       -418.4276282740727311
  Basis Set: CC-PVTZ
  Basis Set:
  Charge       = 0
  Multiplicity = 1
  Basis Set: CC-PVTZ
  Basis Set:

    Orbital Energies (a.u.)
    -----------------------

    Doubly Occupied:

       1A    -20.596387     2A    -20.561405     3A    -11.330628
       4A    -11.311365     5A    -11.253277     6A    -11.250380
       7A    -11.242057     8A    -11.240577     9A    -11.234451
      10A     -1.428096    11A     -1.415454    12A     -1.172377
      13A     -1.041423    14A     -1.038158    15A     -0.890790
      16A     -0.861952    17A     -0.804782    18A     -0.756695
      19A     -0.708592    20A     -0.682810    21A     -0.657869
      22A     -0.630991    23A     -0.607647    24A     -0.607312
      25A     -0.594600    26A     -0.564658    27A     -0.534763
      28A     -0.505268    29A     -0.498386    30A     -0.425410
      31A     -0.358265    32A     -0.328174

  @DF-RHF Final Energy:  -418.42762910509998

   => Energetics <=

    Nuclear Repulsion Energy =            401.2900915628684970
    One-Electron Energy =               -1365.1654428592578370
    Two-Electron Energy =                 545.4477221912893583
    DFT Exchange-Correlation Energy =       0.0000000000000000
    Empirical Dispersion Energy =           0.0000000000000000
    PCM Polarization Energy =               0.0000000000000000
    EFP Energy =                            0.0000000000000000
    Total Energy =                       -418.4276291050999816
    Molecular point group: c1
  Basis Set: CC-PVTZ
  Basis Set:

  -Total Gradient:
     Atom            X                  Y                   Z
    ------   -----------------  -----------------  -----------------
       1        0.000001522647     0.000010275020    -0.000001783473
       2       -0.000022917502     0.000025859421     0.000017616509
       3        0.000047500288    -0.000131519166    -0.000148263038
       4        0.000092111934     0.000044545468     0.000052031575
       5       -0.000178806612     0.000021258694     0.000079414535
       6       -0.000006404748    -0.000000407500    -0.000002383586
       7        0.000171238474    -0.002841366543     0.000516345421
       8        0.000015694061    -0.000004258407    -0.000007100421
       9        0.000165369407     0.000070205684     0.000083272817
      10       -0.000003858490    -0.000000615289    -0.000011591686
      11       -0.000383439479     0.004137647921     0.000755212215
      12       -0.000014411578    -0.000005091198     0.000000152441
      13        0.000227687316    -0.001291321518    -0.004852543271
      14       -0.000078171646    -0.000019102104     0.003525713720
      15       -0.000033114077    -0.000016110484    -0.000006093758

  **** Optimization is complete! (in 6 steps) ****
    Final optimized geometry and variables:
    Molecular point group: c1

    Geometry (in Angstrom), charge = 0, multiplicity = 1:

    H           -3.504072973815    -0.146538728154     0.785392723337
    O           -3.111955487707    -0.242176348482    -0.063748614903
    C           -1.777180783473    -0.076385344967    -0.004451863758
    C           -1.115872169522     0.210044024337     1.175409043333
    C           -1.062374184575    -0.204048412016    -1.183604786103
    H           -1.665414359958     0.300845564076     2.094371173229
    C            0.255923856963     0.375465837025     1.171552418160
    H           -1.586897216600    -0.432817356172    -2.089950186016
    C            0.305698767616    -0.047933783465    -1.172876486689
    H            0.758083166195     0.596016863383     2.095158446095
    C            0.978018834701     0.253227192442     0.001138219373
    H            0.854916167884    -0.166717805404    -2.087602251474
    C            2.470263173985     0.387410286405     0.016646078287
    O            3.214903870144    -0.529674664420     0.006275099229
    H            2.860865470840     1.409336884074     0.069380251920

  Mulliken Charges: (a.u.)
   Center  Symbol    Alpha    Beta     Spin     Total
       1     H     0.38667  0.38667  0.00000  0.22667
       2     O     4.17041  4.17041  0.00000 -0.34081
       3     C     2.85647  2.85647  0.00000  0.28707
       4     C     3.12470  3.12470  0.00000 -0.24939
       5     C     3.09855  3.09855  0.00000 -0.19709
       6     H     0.43231  0.43231  0.00000  0.13538
       7     C     3.08509  3.08509  0.00000 -0.17018
       8     H     0.41725  0.41725  0.00000  0.16549
       9     C     3.07694  3.07694  0.00000 -0.15388
      10     H     0.42271  0.42271  0.00000  0.15458
      11     C     2.95864  2.95864  0.00000  0.08271
      12     H     0.42008  0.42008  0.00000  0.15985
      13     C     2.93628  2.93628  0.00000  0.12745
      14     O     4.15568  4.15568  0.00000 -0.31136
      15     H     0.45824  0.45824  0.00000  0.08352

   Total alpha = 32.00000, Total beta = 32.00000, Total charge =  0.00000
