                              Psi4 1.0.54 Driver

  ==> Input File <==

--------------------------------------------------------------------------
set {
	reference rhf
	basis cc-pvtz
}

set_num_threads( 4 )
memory 2 gb

molecule MOL {
0 1

O	 -1.510770	 1.240811	 -0.054933
C	 -1.081510	 0.147522	 0.122720
C	 0.327029	 -0.064006	 0.641890
C	 -1.903028	 -1.084121	 -0.174656
C	 1.349460	 -0.017068	 -0.500215
H	 0.399029	 -1.014606	 1.159950
H	 0.538021	 0.726928	 1.350471
C	 2.469755	 -1.035136	 -0.320708
H	 0.849237	 -0.195746	 -1.447680
H	 1.765167	 0.982363	 -0.551702
H	 3.183189	 -0.973291	 -1.133861
H	 2.081103	 -2.047619	 -0.296643
H	 3.006609	 -0.864015	 0.605778
H	 -1.341891	 -1.779207	 -0.789259
H	 -2.820449	 -0.808163	 -0.671328
H	 -2.133314	 -1.593056	 0.755831

	symmetry c1
}
set optking {
	frozen_dihedral = ("
		9 5 3 2
	")
}

ee,wfn = optimize('scf', return_wfn=True)
oeprop( wfn, 'DIPOLE', 'QUADRUPOLE', 'MULLIKEN_CHARGES')
f=open( 'psi4out.xyz', 'w' )
f.write( "16  " )
f.write( str(ee) + "\n" )
f.write( MOL.save_string_xyz() )
f.close()
--------------------------------------------------------------------------

    Molecular point group: c1
  Charge       = 0
  Multiplicity = 1
  Basis Set: CC-PVTZ
  Basis Set:
  @DF-RHF Final Energy:  -270.12513942633046
    Total Energy =                       -270.1251394263304064
    Molecular point group: c1
  Basis Set: CC-PVTZ
  Basis Set:
  Basis Set: CC-PVTZ
  Basis Set:
  @DF-RHF Final Energy:  -270.12539053015405
    Total Energy =                       -270.1253905301539362
  Basis Set: CC-PVTZ
  Basis Set:
  Basis Set: CC-PVTZ
  Basis Set:
  @DF-RHF Final Energy:  -270.12561906379580
    Total Energy =                       -270.1256190637954546
  Basis Set: CC-PVTZ
  Basis Set:
  Basis Set: CC-PVTZ
  Basis Set:
  @DF-RHF Final Energy:  -270.12569221466191
    Total Energy =                       -270.1256922146621946
  Basis Set: CC-PVTZ
  Basis Set:
  Basis Set: CC-PVTZ
  Basis Set:
  @DF-RHF Final Energy:  -270.12572143303964
    Total Energy =                       -270.1257214330396437
  Basis Set: CC-PVTZ
  Basis Set:
  Basis Set: CC-PVTZ
  Basis Set:
  @DF-RHF Final Energy:  -270.12573143180362
    Total Energy =                       -270.1257314318032741
  Basis Set: CC-PVTZ
  Basis Set:
  Basis Set: CC-PVTZ
  Basis Set:
  @DF-RHF Final Energy:  -270.12573418158945
    Total Energy =                       -270.1257341815896211
  Basis Set: CC-PVTZ
  Basis Set:
  Charge       = 0
  Multiplicity = 1
  Basis Set: CC-PVTZ
  Basis Set:

    Orbital Energies (a.u.)
    -----------------------

    Doubly Occupied:

       1A    -20.536974     2A    -11.319616     3A    -11.233443
       4A    -11.228615     5A    -11.227228     6A    -11.220142
       7A     -1.396888     8A     -1.084066     9A     -1.013395
      10A     -0.952097    11A     -0.832917    12A     -0.736906
      13A     -0.656870    14A     -0.653913    15A     -0.615157
      16A     -0.603849    17A     -0.583444    18A     -0.561516
      19A     -0.537855    20A     -0.520311    21A     -0.505865
      22A     -0.483115    23A     -0.476115    24A     -0.400173

  @DF-RHF Final Energy:  -270.12573444798284

   => Energetics <=

    Nuclear Repulsion Energy =            237.9844696498558676
    One-Electron Energy =                -837.4594644020389751
    Two-Electron Energy =                 329.3492603042001292
    DFT Exchange-Correlation Energy =       0.0000000000000000
    Empirical Dispersion Energy =           0.0000000000000000
    PCM Polarization Energy =               0.0000000000000000
    EFP Energy =                            0.0000000000000000
    Total Energy =                       -270.1257344479829499
    Molecular point group: c1
  Basis Set: CC-PVTZ
  Basis Set:

  -Total Gradient:
     Atom            X                  Y                   Z
    ------   -----------------  -----------------  -----------------
       1       -0.000010416883    -0.000001243635    -0.000001834896
       2       -0.000412929662    -0.002717190349    -0.000122060940
       3        0.000484016703     0.004634295065    -0.000023419210
       4       -0.000011776076    -0.000007043316     0.000020664138
       5        0.000369277603    -0.005635643070     0.000816305300
       6       -0.000015371693    -0.000006283482     0.000007171014
       7       -0.000006332339    -0.000003166460     0.000012800361
       8        0.000012456330    -0.000002415782    -0.000000668963
       9       -0.000411801917     0.003746330488    -0.000691136018
      10        0.000000167792    -0.000009414608    -0.000006139405
      11        0.000002788645    -0.000001504764    -0.000005421632
      12       -0.000006113740     0.000001032262     0.000004601205
      13        0.000001745413     0.000002755078     0.000001143221
      14        0.000013464846     0.000002599239    -0.000007736670
      15       -0.000007147775     0.000006634864    -0.000004028078
      16       -0.000002027246    -0.000009741530    -0.000000239427

  **** Optimization is complete! (in 8 steps) ****
    Final optimized geometry and variables:
    Molecular point group: c1

    Geometry (in Angstrom), charge = 0, multiplicity = 1:

    O           -1.478817098980     1.444668376794     0.102917917729
    C           -1.020795055205     0.351226181003     0.178980887354
    C            0.384659357259     0.111317154400     0.687760954255
    C           -1.814689403657    -0.866736590034    -0.234895432180
    C            1.397457420095     0.012232200077    -0.474608651125
    H            0.394598177853    -0.813410961977     1.256094268292
    H            0.649425892744     0.918232871134     1.355906603649
    C            2.510689771543    -0.996476616716    -0.222770035579
    H            0.884497426231    -0.216884420198    -1.403180282205
    H            1.827645893448     0.994137764442    -0.632947261286
    H            3.224786082808    -0.999635309022    -1.037753410204
    H            2.114674001601    -2.001390335791    -0.122601372731
    H            3.048793544320    -0.761410396786     0.689243725011
    H           -1.216668193525    -1.542197274530    -0.834962872900
    H           -2.695986255187    -0.565910852689    -0.780302464941
    H           -2.113950521361    -1.407577104528     0.657402626029

  Mulliken Charges: (a.u.)
   Center  Symbol    Alpha    Beta     Spin     Total
       1     O     4.17604  4.17604  0.00000 -0.35208
       2     C     2.85750  2.85750  0.00000  0.28500
       3     C     3.09836  3.09836  0.00000 -0.19671
       4     C     3.15670  3.15670  0.00000 -0.31339
       5     C     3.09363  3.09363  0.00000 -0.18726
       6     H     0.45225  0.45225  0.00000  0.09551
       7     H     0.43746  0.43746  0.00000  0.12509
       8     C     3.14824  3.14824  0.00000 -0.29649
       9     H     0.45020  0.45020  0.00000  0.09959
      10     H     0.44164  0.44164  0.00000  0.11673
      11     H     0.44659  0.44659  0.00000  0.10681
      12     H     0.45586  0.45586  0.00000  0.08828
      13     H     0.45171  0.45171  0.00000  0.09658
      14     H     0.45078  0.45078  0.00000  0.09844
      15     H     0.43561  0.43561  0.00000  0.12878
      16     H     0.44744  0.44744  0.00000  0.10513

   Total alpha = 24.00000, Total beta = 24.00000, Total charge = -0.00000

*** Psi4 exiting successfully. Buy a developer a beer!
