  ==> Input File <==

--------------------------------------------------------------------------
set {
	reference rhf
	basis cc-pvtz
}

set_num_threads( 4 )
memory 2 gb

molecule MOL {
0 1

H	 2.834534	 -0.391977	 0.274933
O	 1.998201	 -0.832569	 0.287683
C	 1.050374	 0.054877	 0.000135
C	 -0.318151	 -0.570512	 0.000144
O	 1.297244	 1.189543	 -0.222477
C	 -1.454884	 0.441630	 -0.000560
H	 -0.371613	 -1.223646	 -0.864985
H	 -0.371920	 -1.222758	 0.865929
C	 -2.822577	 -0.232186	 0.000063
H	 -1.359760	 1.084704	 -0.867077
H	 -1.359641	 1.085996	 0.864983
H	 -2.954352	 -0.858985	 -0.875745
H	 -3.615886	 0.505352	 0.000019
H	 -2.953878	 -0.858359	 0.876394

	symmetry c1
}
set optking {
	frozen_dihedral = ("
		2 3 4 7
	")
}

ee = optimize('scf')
oeprop('DIPOLE', 'QUADRUPOLE', 'MULLIKEN_CHARGES')
f=open( 'psi4out.xyz', 'w' )
f.write( "14  " )
f.write( str(ee) + "\n" )
f.write( MOL.save_string_xyz() )
f.close()
--------------------------------------------------------------------------

    Molecular point group: c1
  Charge       = 0
  Multiplicity = 1
  Basis Set: CC-PVTZ
  Basis Set:
  @DF-RHF Final Energy:  -306.00082395664793
    Total Energy =                       -306.0008239566479915
    Molecular point group: c1
  Basis Set: CC-PVTZ
  Basis Set:
  Basis Set: CC-PVTZ
  Basis Set:
  @DF-RHF Final Energy:  -306.00084389238714
    Total Energy =                       -306.0008438923872518
  Basis Set: CC-PVTZ
  Basis Set:
  Basis Set: CC-PVTZ
  Basis Set:
  @DF-RHF Final Energy:  -306.00077284108795
    Total Energy =                       -306.0007728410877235
  Basis Set: CC-PVTZ
  Basis Set:
  Basis Set: CC-PVTZ
  Basis Set:
  @DF-RHF Final Energy:  -306.00089281410061
    Total Energy =                       -306.0008928141004958
  Basis Set: CC-PVTZ
  Basis Set:
  Charge       = 0
  Multiplicity = 1
  Basis Set: CC-PVTZ
  Basis Set:

    Orbital Energies (a.u.)
    -----------------------

    Doubly Occupied:

       1A    -20.604752     2A    -20.540796     3A    -11.374062
       4A    -11.239815     5A    -11.224178     6A    -11.215507
       7A     -1.478172     8A     -1.369562     9A     -1.084483
      10A     -0.980897    11A     -0.859156    12A     -0.793565
      13A     -0.704521    14A     -0.691873    15A     -0.668991
      16A     -0.618712    17A     -0.596809    18A     -0.574495
      19A     -0.546601    20A     -0.507364    21A     -0.492268
      22A     -0.484384    23A     -0.482786    24A     -0.447411

  @DF-RHF Final Energy:  -306.00089329613564

   => Energetics <=

    Nuclear Repulsion Energy =            240.4485739292318272
    One-Electron Energy =                -893.7366187316000605
    Two-Electron Energy =                 347.2871515062325898
    DFT Exchange-Correlation Energy =       0.0000000000000000
    Empirical Dispersion Energy =           0.0000000000000000
    PCM Polarization Energy =               0.0000000000000000
    EFP Energy =                            0.0000000000000000
    Total Energy =                       -306.0008932961355868
    Molecular point group: c1
  Basis Set: CC-PVTZ
  Basis Set:

  -Total Gradient:
     Atom            X                  Y                   Z
    ------   -----------------  -----------------  -----------------
       1       -0.000004252224     0.000003901544     0.000001699507
       2       -0.000042277650     0.000094748432     0.000561575261
       3        0.000010743738    -0.000009996929    -0.000822726127
       4        0.000273467562    -0.000591805401     0.000632318199
       5       -0.000006753353    -0.000019836683     0.000001890405
       6        0.000004008702     0.000000021031    -0.000019842480
       7       -0.000239101963     0.000520151594    -0.000368964171
       8        0.000004325664     0.000001790351    -0.000002093124
       9       -0.000000516455    -0.000001294841     0.000013117068
      10        0.000001867709     0.000001462641    -0.000000382736
      11       -0.000003252853     0.000001899639     0.000002840336
      12        0.000003427067     0.000002146284    -0.000001173532
      13        0.000003310985     0.000000630822     0.000001983962
      14       -0.000004996925    -0.000003818487    -0.000000242568

  **** Optimization is complete! (in 5 steps) ****
    Final optimized geometry and variables:
    Molecular point group: c1

    Geometry (in Angstrom), charge = 0, multiplicity = 1:

    H            2.840923033680    -0.393380793770     0.218848612425
    O            2.004725775674    -0.832444966584     0.262244719910
    C            1.050499128863     0.053079871132    -0.008879713297
    C           -0.317375644849    -0.574305063680     0.004140679301
    O            1.291850276446     1.187626867423    -0.238387671461
    C           -1.453554143614     0.439449348453    -0.012066167938
    H           -0.368285495031    -1.220261531484    -0.867992760278
    H           -0.377537716722    -1.227570059337     0.866656260909
    C           -2.821796062299    -0.233000047442    -0.024271760015
    H           -1.346741012749     1.080228655025    -0.878009434684
    H           -1.368675095392     1.085216311722     0.854481820628
    H           -2.944872404349    -0.859788854537    -0.901367951813
    H           -3.614282540146     0.505384366828    -0.032884334252
    H           -2.962896246281    -0.858839995618     0.850735464329

  Mulliken Charges: (a.u.)
   Center  Symbol    Alpha    Beta     Spin     Total
       1     H     0.38197  0.38197  0.00000  0.23605
       2     O     4.15986  4.15986  0.00000 -0.31972
       3     C     2.80628  2.80628  0.00000  0.38743
       4     C     3.10359  3.10359  0.00000 -0.20719
       5     O     4.19151  4.19151  0.00000 -0.38303
       6     C     3.08009  3.08009  0.00000 -0.16018
       7     H     0.44091  0.44091  0.00000  0.11818
       8     H     0.43749  0.43749  0.00000  0.12501
       9     C     3.15021  3.15021  0.00000 -0.30042
      10     H     0.44364  0.44364  0.00000  0.11272
      11     H     0.44844  0.44844  0.00000  0.10312
      12     H     0.45527  0.45527  0.00000  0.08946
      13     H     0.44513  0.44513  0.00000  0.10973
      14     H     0.45559  0.45559  0.00000  0.08883

   Total alpha = 24.00000, Total beta = 24.00000, Total charge = -0.00000
