                              Psi4 1.0.54 Driver

  ==> Input File <==

--------------------------------------------------------------------------
set {
	reference rhf
	basis cc-pvtz
}

set_num_threads( 4 )
memory 2 gb

molecule MOL {
0 1

H	 -3.144994	 -1.202467	 -0.018751
O	 -2.321472	 -0.864941	 -0.318626
C	 -2.021813	 0.336996	 0.342658
C	 -0.669613	 0.837286	 -0.127252
H	 -2.780861	 1.084746	 0.127159
H	 -2.006390	 0.184138	 1.420053
C	 0.490865	 -0.082543	 0.241244
H	 -0.708709	 0.967192	 -1.204587
H	 -0.507562	 1.822272	 0.303070
C	 1.083023	 0.223692	 1.613897
H	 1.264133	 -0.000657	 -0.514010
H	 0.148443	 -1.115248	 0.221546
C	 2.237856	 -0.700148	 1.986278
H	 1.426871	 1.254271	 1.633348
H	 0.304649	 0.148633	 2.369007
H	 3.047558	 -0.621453	 1.268569
H	 2.637457	 -0.456297	 2.964113
H	 1.918171	 -1.736839	 2.009041

	symmetry c1
}
set optking {
	frozen_dihedral = ("
		10 7 4 8
	")
}

ee,wfn = optimize('scf', return_wfn=True)
oeprop( wfn, 'DIPOLE', 'QUADRUPOLE', 'MULLIKEN_CHARGES')
f=open( 'psi4out.xyz', 'w' )
f.write( "18  " )
f.write( str(ee) + "\n" )
f.write( MOL.save_string_xyz() )
f.close()
--------------------------------------------------------------------------

    Molecular point group: c1
  Charge       = 0
  Multiplicity = 1
  Basis Set: CC-PVTZ
  Basis Set:
  @DF-RHF Final Energy:  -271.28398318526365
    Total Energy =                       -271.2839831852634802
    Molecular point group: c1
  Basis Set: CC-PVTZ
  Basis Set:
  Basis Set: CC-PVTZ
  Basis Set:
  @DF-RHF Final Energy:  -271.28420376000531
    Total Energy =                       -271.2842037600053686
  Basis Set: CC-PVTZ
  Basis Set:
  Basis Set: CC-PVTZ
  Basis Set:
  @DF-RHF Final Energy:  -271.28424525049081
    Total Energy =                       -271.2842452504908692
  Basis Set: CC-PVTZ
  Basis Set:
  Basis Set: CC-PVTZ
  Basis Set:
  @DF-RHF Final Energy:  -271.28424634150883
    Total Energy =                       -271.2842463415087195
  Basis Set: CC-PVTZ
  Basis Set:
  Charge       = 0
  Multiplicity = 1
  Basis Set: CC-PVTZ
  Basis Set:

    Orbital Energies (a.u.)
    -----------------------

    Doubly Occupied:

       1A    -20.546369     2A    -11.266014     3A    -11.210503
       4A    -11.210393     5A    -11.205086     6A    -11.203725
       7A     -1.364247     8A     -1.076309     9A     -1.009071
      10A     -0.914689    11A     -0.827523    12A     -0.778129
      13A     -0.705890    14A     -0.651773    15A     -0.620573
      16A     -0.584211    17A     -0.568579    18A     -0.558990
      19A     -0.531321    20A     -0.505265    21A     -0.486298
      22A     -0.470177    23A     -0.456212    24A     -0.450044
      25A     -0.430865

  @DF-RHF Final Energy:  -271.28424675218372

   => Energetics <=

    Nuclear Repulsion Energy =            251.5841633883935060
    One-Electron Energy =                -866.4723125042030460
    Two-Electron Energy =                 343.6039023636255934
    DFT Exchange-Correlation Energy =       0.0000000000000000
    Empirical Dispersion Energy =           0.0000000000000000
    PCM Polarization Energy =               0.0000000000000000
    EFP Energy =                            0.0000000000000000
    Total Energy =                       -271.2842467521838898
    Molecular point group: c1
  Basis Set: CC-PVTZ
  Basis Set:

  -Total Gradient:
     Atom            X                  Y                   Z
    ------   -----------------  -----------------  -----------------
       1       -0.000004978044     0.000001789072    -0.000005914555
       2       -0.000007427001     0.000025009134     0.000003825128
       3        0.000023568996    -0.000017000228     0.000017594606
       4       -0.001481443744    -0.002167863791    -0.000581143501
       5       -0.000010191918    -0.000015069374    -0.000008707043
       6       -0.000000447599     0.000006582099     0.000001760756
       7       -0.001353898997    -0.001245482002     0.001195987414
       8        0.001596656490     0.002144059757     0.000187703155
       9        0.000002880576    -0.000002877041     0.000009788424
      10        0.001233096781     0.001263310278    -0.000838982533
      11        0.000006861064     0.000003437453     0.000001884228
      12       -0.000008349713     0.000010079962     0.000010084639
      13        0.000003340813    -0.000006137672     0.000008703508
      14       -0.000010254156     0.000006121361    -0.000005555314
      15        0.000000253770    -0.000004170640    -0.000003648368
      16       -0.000001700933     0.000000381176     0.000000192740
      17        0.000009359039    -0.000004395132     0.000006928006
      18        0.000002674578     0.000002225589    -0.000000501286

  **** Optimization is complete! (in 5 steps) ****
    Final optimized geometry and variables:
    Molecular point group: c1

    Geometry (in Angstrom), charge = 0, multiplicity = 1:

    H           -2.905568241482    -1.129319334690    -0.628492126315
    O           -2.088802182163    -0.786428929378    -0.940358113563
    C           -1.777537786704     0.407091422046    -0.269010127319
    C           -0.425489625025     0.902148927972    -0.746459735651
    H           -2.532161868906     1.162139010741    -0.473911162602
    H           -1.761527499961     0.243538468782     0.806212402030
    C            0.751435609045    -0.006586822397    -0.371551655764
    H           -0.466818918260     1.033772932300    -1.821865490992
    H           -0.265393740720     1.893529455795    -0.330078062933
    C            1.349284195582     0.293452461437     1.001837188545
    H            1.534960423503     0.108720660596    -1.114598889078
    H            0.436342078806    -1.042487059608    -0.423470860770
    C            2.493123178974    -0.645160386985     1.370990975978
    H            1.706171910254     1.319676360295     1.016751954205
    H            0.576956533991     0.229832438423     1.763889066651
    H            3.297467931937    -0.584470248271     0.645266000777
    H            2.905950042044    -0.400283079448     2.343099683786
    H            2.157396357532    -1.676198169686     1.403532301896

  Mulliken Charges: (a.u.)
   Center  Symbol    Alpha    Beta     Spin     Total
       1     H     0.39568  0.39568  0.00000  0.20864
       2     O     4.19860  4.19860  0.00000 -0.39720
       3     C     2.97185  2.97185  0.00000  0.05629
       4     C     3.09761  3.09761  0.00000 -0.19521
       5     H     0.46427  0.46427  0.00000  0.07146
       6     H     0.47352  0.47352  0.00000  0.05297
       7     C     3.09639  3.09639  0.00000 -0.19278
       8     H     0.44578  0.44578  0.00000  0.10844
       9     H     0.45597  0.45597  0.00000  0.08806
      10     C     3.08296  3.08296  0.00000 -0.16592
      11     H     0.45032  0.45032  0.00000  0.09937
      12     H     0.44525  0.44525  0.00000  0.10950
      13     C     3.14988  3.14988  0.00000 -0.29976
      14     H     0.45579  0.45579  0.00000  0.08842
      15     H     0.45742  0.45742  0.00000  0.08516
      16     H     0.45489  0.45489  0.00000  0.09022
      17     H     0.44948  0.44948  0.00000  0.10103
      18     H     0.45434  0.45434  0.00000  0.09132

   Total alpha = 25.00000, Total beta = 25.00000, Total charge = -0.00000

*** Psi4 exiting successfully. Buy a developer a beer!
