  ==> Input File <==

--------------------------------------------------------------------------
set {
	reference rhf
	basis 6-31G*
}

set_num_threads( 1 )
memory 2 gb

molecule MOL {
0 1

H	 -3.420663	 1.227371	 -1.044276
O	 -3.452007	 0.283848	 -0.965577
C	 -3.181085	 -0.079926	 0.364119
C	 -1.765924	 0.277073	 0.805136
H	 -3.327791	 -1.152017	 0.410903
H	 -3.905698	 0.375695	 1.036898
C	 -1.460114	 -0.114569	 2.251378
H	 -1.053374	 -0.205184	 0.135313
H	 -1.626806	 1.348872	 0.674310
C	 -0.030664	 0.227568	 2.676576
H	 -1.635224	 -1.178621	 2.377237
H	 -2.163440	 0.390458	 2.911434
C	 0.266113	 -0.162003	 4.127178
H	 0.666305	 -0.271771	 2.007761
H	 0.138463	 1.296345	 2.551217
C	 1.657914	 0.240989	 4.627820
H	 0.140937	 -1.237407	 4.243505
H	 -0.479154	 0.300530	 4.770960
C	 2.816203	 -0.478078	 3.933765
H	 1.711876	 0.038446	 5.694757
H	 1.782371	 1.316396	 4.517305
H	 2.711667	 -1.556623	 4.017149
H	 3.765420	 -0.203425	 4.383643
H	 2.873780	 -0.231844	 2.878674

	symmetry c1
}
set optking {
	frozen_dihedral = ("
		20 16 13 17,
		17 13 10 7,
		13 10 7 11,
		11 7 4 3,
		1 2 3 5
	")
}

ee = energy('scf')
oeprop('DIPOLE', 'QUADRUPOLE', 'MULLIKEN_CHARGES')
f=open( 'psi4out.xyz', 'w' )
f.write( "24  " )
f.write( str(ee) + "\n" )
f.write( MOL.save_string_xyz() )
f.close()
--------------------------------------------------------------------------

    Molecular point group: c1

    Geometry (in Angstrom), charge = 0, multiplicity = 1:

       Center              X                  Y                   Z               Mass
    ------------   -----------------  -----------------  -----------------  -----------------
           H         -2.736574165107     1.195231811340    -3.213404005974     1.007825032070
           O         -2.767918165107     0.251708811340    -3.134705005974    15.994914619560
           C         -2.496996165107    -0.112065188660    -1.805009005974    12.000000000000
           C         -1.081835165107     0.244933811340    -1.363992005974    12.000000000000
           H         -2.643702165107    -1.184156188660    -1.758225005974     1.007825032070
           H         -3.221609165107     0.343555811340    -1.132230005974     1.007825032070
           C         -0.776025165107    -0.146708188660     0.082249994026    12.000000000000
           H         -0.369285165107    -0.237323188660    -2.033815005974     1.007825032070
           H         -0.942717165107     1.316732811340    -1.494818005974     1.007825032070
           C          0.653424834893     0.195428811340     0.507447994026    12.000000000000
           H         -0.951135165107    -1.210760188660     0.208108994026     1.007825032070
           H         -1.479351165107     0.358318811340     0.742305994026     1.007825032070
           C          0.950201834893    -0.194142188660     1.958049994026    12.000000000000
           H          1.350393834893    -0.303910188660    -0.161367005974     1.007825032070
           H          0.822551834893     1.264205811340     0.382088994026     1.007825032070
           C          2.342002834893     0.208849811340     2.458691994026    12.000000000000
           H          0.825025834893    -1.269546188660     2.074376994026     1.007825032070
           H          0.204934834893     0.268390811340     2.601831994026     1.007825032070
           C          3.500291834893    -0.510217188660     1.764636994026    12.000000000000
           H          2.395964834893     0.006306811340     3.525628994026     1.007825032070
           H          2.466459834893     1.284256811340     2.348176994026     1.007825032070
           H          3.395755834893    -1.588762188660     1.848020994026     1.007825032070
           H          4.449508834893    -0.235564188660     2.214514994026     1.007825032070
           H          3.557868834893    -0.263983188660     0.709545994026     1.007825032070

  Charge       = 0
  Multiplicity = 1
  Basis Set: 6-31G*
  Basis Set:

    Orbital Energies (a.u.)
    -----------------------

    Doubly Occupied:

       1A    -20.552515     2A    -11.266980     3A    -11.219711
       4A    -11.216762     5A    -11.216626     6A    -11.216573
       7A    -11.215121     8A    -11.209064     9A     -1.358740
      10A     -1.093004    11A     -1.051578    12A     -0.986707
      13A     -0.914886    14A     -0.851029    15A     -0.805220
      16A     -0.779454    17A     -0.692478    18A     -0.652002
      19A     -0.625085    20A     -0.607055    21A     -0.603949
      22A     -0.587879    23A     -0.559446    24A     -0.536064
      25A     -0.526878    26A     -0.514512    27A     -0.487936
      28A     -0.483557    29A     -0.471648    30A     -0.462257
      31A     -0.457058    32A     -0.453309    33A     -0.420428

  @DF-RHF Final Energy:  -349.24737969217381

   => Energetics <=

    Nuclear Repulsion Energy =            379.6682755590748002
    One-Electron Energy =               -1225.6403683777348306
    Two-Electron Energy =                 496.7247131264858808
    DFT Exchange-Correlation Energy =       0.0000000000000000
    Empirical Dispersion Energy =           0.0000000000000000
    PCM Polarization Energy =               0.0000000000000000
    EFP Energy =                            0.0000000000000000
    Total Energy =                       -349.2473796921741496

  Mulliken Charges: (a.u.)
   Center  Symbol    Alpha    Beta     Spin     Total
       1     H     0.28339  0.28339  0.00000  0.43321
       2     O     4.37080  4.37080  0.00000 -0.74161
       3     C     2.98796  2.98796  0.00000  0.02408
       4     C     3.16726  3.16726  0.00000 -0.33452
       5     H     0.41672  0.41672  0.00000  0.16655
       6     H     0.43191  0.43191  0.00000  0.13618
       7     C     3.15913  3.15913  0.00000 -0.31827
       8     H     0.41494  0.41494  0.00000  0.17013
       9     H     0.42900  0.42900  0.00000  0.14199
      10     C     3.15313  3.15313  0.00000 -0.30625
      11     H     0.42076  0.42076  0.00000  0.15848
      12     H     0.42336  0.42336  0.00000  0.15327
      13     C     3.15259  3.15259  0.00000 -0.30518
      14     H     0.41996  0.41996  0.00000  0.16007
      15     H     0.42380  0.42380  0.00000  0.15241
      16     C     3.15246  3.15246  0.00000 -0.30492
      17     H     0.42380  0.42380  0.00000  0.15240
      18     H     0.42245  0.42245  0.00000  0.15510
      19     C     3.24131  3.24131  0.00000 -0.48262
      20     H     0.42076  0.42076  0.00000  0.15848
      21     H     0.42346  0.42346  0.00000  0.15309
      22     H     0.42205  0.42205  0.00000  0.15590
      23     H     0.41906  0.41906  0.00000  0.16188
      24     H     0.41993  0.41993  0.00000  0.16015

   Total alpha = 33.00000, Total beta = 33.00000, Total charge = -0.00000
