                              Psi4 1.0.54 Driver

  ==> Input File <==

--------------------------------------------------------------------------
set {
	reference rhf
	basis cc-pvtz
}

set_num_threads( 4 )
memory 2 gb

molecule MOL {
0 1

H	 -2.698799	 -0.000846	 0.036018
C	 -1.694291	 -0.000483	 0.434279
O	 -0.828718	 -0.000608	 -0.655022
H	 -1.576855	 0.881100	 1.056504
H	 -1.576401	 -0.881658	 1.057001
C	 -1.026136	 -0.944550	 -1.678681
C	 -0.833079	 -2.378484	 -1.198232
C	 -2.352072	 -0.751221	 -2.405844
H	 -0.230411	 -0.720953	 -2.378284
H	 0.098837	 -2.471525	 -0.654233
H	 -0.799092	 -3.049535	 -2.048692
H	 -1.640928	 -2.707587	 -0.555072
H	 -2.473544	 0.284211	 -2.699391
H	 -2.373373	 -1.363200	 -3.300160
H	 -3.200213	 -1.037039	 -1.794691

	symmetry c1
}
set optking {
	frozen_dihedral = ("
		6 3 2 1
	")
}

ee,wfn = optimize('scf', return_wfn=True)
oeprop( wfn, 'DIPOLE', 'QUADRUPOLE', 'MULLIKEN_CHARGES')
f=open( 'psi4out.xyz', 'w' )
f.write( "15  " )
f.write( str(ee) + "\n" )
f.write( MOL.save_string_xyz() )
f.close()
--------------------------------------------------------------------------

    Molecular point group: c1
  Charge       = 0
  Multiplicity = 1
  Basis Set: CC-PVTZ
  Basis Set:
  @DF-RHF Final Energy:  -232.22358813239072
    Total Energy =                       -232.2235881323907734
    Molecular point group: c1
  Basis Set: CC-PVTZ
  Basis Set:
  Basis Set: CC-PVTZ
  Basis Set:
  @DF-RHF Final Energy:  -232.22543536957011
    Total Energy =                       -232.2254353695702207
  Basis Set: CC-PVTZ
  Basis Set:
  Basis Set: CC-PVTZ
  Basis Set:
  @DF-RHF Final Energy:  -232.22603888402975
    Total Energy =                       -232.2260388840294354
  Basis Set: CC-PVTZ
  Basis Set:
  Basis Set: CC-PVTZ
  Basis Set:
  @DF-RHF Final Energy:  -232.22604947506917
    Total Energy =                       -232.2260494750693738
  Basis Set: CC-PVTZ
  Basis Set:
  Basis Set: CC-PVTZ
  Basis Set:
  @DF-RHF Final Energy:  -232.22605623803329
    Total Energy =                       -232.2260562380334932
  Basis Set: CC-PVTZ
  Basis Set:
  Charge       = 0
  Multiplicity = 1
  Basis Set: CC-PVTZ
  Basis Set:

    Orbital Energies (a.u.)
    -----------------------

    Doubly Occupied:

       1A    -20.541645     2A    -11.272687     3A    -11.258673
       4A    -11.209347     5A    -11.208046     6A     -1.373431
       7A     -1.051522     8A     -0.940567     9A     -0.931335
      10A     -0.781532    11A     -0.676027    12A     -0.642254
      13A     -0.634887    14A     -0.573722    15A     -0.564932
      16A     -0.553034    17A     -0.534218    18A     -0.498886
      19A     -0.497427    20A     -0.444884    21A     -0.409006

  @DF-RHF Final Energy:  -232.22605647994735

   => Energetics <=

    Nuclear Repulsion Energy =            199.0549634486001480
    One-Electron Energy =                -709.3659153937616111
    Two-Electron Energy =                 278.0848954652142311
    DFT Exchange-Correlation Energy =       0.0000000000000000
    Empirical Dispersion Energy =           0.0000000000000000
    PCM Polarization Energy =               0.0000000000000000
    EFP Energy =                            0.0000000000000000
    Total Energy =                       -232.2260564799472604
    Molecular point group: c1
  Basis Set: CC-PVTZ
  Basis Set:

  -Total Gradient:
     Atom            X                  Y                   Z
    ------   -----------------  -----------------  -----------------
       1        0.000077889147    -0.000703485892    -0.000027095071
       2       -0.000163923753     0.001144032183    -0.000000943186
       3        0.000524662072    -0.000831450702     0.000331538705
       4       -0.000038398551    -0.000003196861     0.000030287568
       5       -0.000004950977    -0.000009140638    -0.000031157452
       6       -0.000377603751     0.000376316420    -0.000330474855
       7       -0.000014628754     0.000021698044     0.000046225685
       8        0.000011242118    -0.000031972008    -0.000018626912
       9        0.000000920072     0.000010630975    -0.000002600194
      10       -0.000009074045     0.000006952321     0.000007891848
      11       -0.000000727828     0.000026872843     0.000010465928
      12       -0.000005384618    -0.000009579928     0.000008705281
      13       -0.000009345486     0.000005732279     0.000011588436
      14       -0.000008369067     0.000006694326    -0.000007955043
      15        0.000017693422    -0.000010103361    -0.000027850742

  **** Optimization is complete! (in 6 steps) ****
    Final optimized geometry and variables:
    Molecular point group: c1

    Geometry (in Angstrom), charge = 0, multiplicity = 1:

    H           -1.367258586312     0.734397969134     1.261782896838
    C           -0.315403649273     0.809773801352     1.517646781798
    O            0.508143531291     0.836456916713     0.396112388499
    H           -0.160121115541     1.738654742094     2.047537401236
    H           -0.067089823250    -0.009392721552     2.185741877267
    C            0.334706664136    -0.145449174428    -0.595589650300
    C            0.496425478900    -1.562141197359    -0.057001069364
    C           -0.966939553866     0.036544488231    -1.368705932521
    H            1.152492283701     0.044188180322    -1.279658435960
    H            1.416219480957    -1.649878300328     0.508418470791
    H            0.535048852189    -2.266355382569    -0.879836387335
    H           -0.329042642018    -1.851396656851     0.583366428809
    H           -1.061840282588     1.061147109281    -1.706142188797
    H           -0.972922788753    -0.610892953919    -2.238182954947
    H           -1.837599177813    -0.210631122812    -0.772745441801

  Mulliken Charges: (a.u.)
   Center  Symbol    Alpha    Beta     Spin     Total
       1     H     0.47100  0.47100  0.00000  0.05800
       2     C     3.03953  3.03953  0.00000 -0.07905
       3     O     4.18344  4.18344  0.00000 -0.36689
       4     H     0.44152  0.44152  0.00000  0.11695
       5     H     0.46808  0.46808  0.00000  0.06385
       6     C     2.93447  2.93447  0.00000  0.13105
       7     C     3.16097  3.16097  0.00000 -0.32194
       8     C     3.15483  3.15483  0.00000 -0.30966
       9     H     0.44698  0.44698  0.00000  0.10603
      10     H     0.44381  0.44381  0.00000  0.11237
      11     H     0.44846  0.44846  0.00000  0.10308
      12     H     0.45522  0.45522  0.00000  0.08955
      13     H     0.44439  0.44439  0.00000  0.11121
      14     H     0.45097  0.45097  0.00000  0.09806
      15     H     0.45630  0.45630  0.00000  0.08739

   Total alpha = 21.00000, Total beta = 21.00000, Total charge = -0.00000

*** Psi4 exiting successfully. Buy a developer a beer!
