  ==> Input File <==

--------------------------------------------------------------------------
set {
	reference rhf
	basis cc-pvtz
}

set_num_threads( 4 )
memory 2 gb

molecule MOL {
0 1

H	 2.656265	 -0.390542	 0.933404
N	 1.680522	 -0.189020	 0.948374
C	 0.907934	 -1.407795	 1.080803
C	 1.294454	 0.561039	 -0.229848
H	 1.208923	 -1.921383	 1.985781
H	 1.061344	 -2.088765	 0.241538
C	 -0.567949	 -1.062370	 1.161575
H	 1.875524	 1.474114	 -0.274597
H	 1.472284	 0.004460	 -1.151920
C	 -0.181936	 0.903884	 -0.147358
H	 -0.753607	 -0.510005	 2.087325
H	 -1.151132	 -1.974754	 1.201246
N	 -0.976577	 -0.298712	 -0.000000
H	 -0.486006	 1.413226	 -1.054128
H	 -0.341001	 1.591708	 0.688218
C	 -2.391156	 -0.021003	 -0.000000
H	 -2.853954	 -0.458728	 -0.875714
H	 -2.853954	 -0.458728	 0.875714
H	 -2.614037	 1.049773	 -0.000000

	symmetry c1
}
set optking {
	frozen_dihedral = ("
		7 13 16 19
	")
}

ee = optimize('scf')
oeprop('DIPOLE', 'QUADRUPOLE', 'MULLIKEN_CHARGES')
f=open( 'psi4out.xyz', 'w' )
f.write( "19  " )
f.write( str(ee) + "\n" )
f.write( MOL.save_string_xyz() )
f.close()
--------------------------------------------------------------------------

    Molecular point group: c1
  Charge       = 0
  Multiplicity = 1
  Basis Set: CC-PVTZ
  Basis Set:
  @DF-RHF Final Energy:  -305.30232443392327
    Total Energy =                       -305.3023244339233315
    Molecular point group: c1
  Basis Set: CC-PVTZ
  Basis Set:
  Basis Set: CC-PVTZ
  Basis Set:
  @DF-RHF Final Energy:  -305.30291282481744
    Total Energy =                       -305.3029128248172128
  Basis Set: CC-PVTZ
  Basis Set:
  Basis Set: CC-PVTZ
  Basis Set:
  @DF-RHF Final Energy:  -305.30303517867645
    Total Energy =                       -305.3030351786762822
  Basis Set: CC-PVTZ
  Basis Set:
  Basis Set: CC-PVTZ
  Basis Set:
  @DF-RHF Final Energy:  -305.30304002638400
    Total Energy =                       -305.3030400263841670
  Basis Set: CC-PVTZ
  Basis Set:
  Charge       = 0
  Multiplicity = 1
  Basis Set: CC-PVTZ
  Basis Set:

    Orbital Energies (a.u.)
    -----------------------

    Doubly Occupied:

       1A    -15.532583     2A    -15.530626     3A    -11.236474
       4A    -11.236452     5A    -11.235653     6A    -11.235629
       7A    -11.232936     8A     -1.246024     9A     -1.184973
      10A     -1.023606    11A     -0.964938    12A     -0.861290
      13A     -0.859072    14A     -0.756394    15A     -0.691805
      16A     -0.632085    17A     -0.624306    18A     -0.605945
      19A     -0.605402    20A     -0.582063    21A     -0.544398
      22A     -0.534913    23A     -0.512703    24A     -0.488298
      25A     -0.467702    26A     -0.457322    27A     -0.365416
      28A     -0.340247

  @DF-RHF Final Energy:  -305.30304066790376

   => Energetics <=

    Nuclear Repulsion Energy =            339.6991247042690816
    One-Electron Energy =               -1086.8258245819945387
    Two-Electron Energy =                 441.8236592098218694
    DFT Exchange-Correlation Energy =       0.0000000000000000
    Empirical Dispersion Energy =           0.0000000000000000
    PCM Polarization Energy =               0.0000000000000000
    EFP Energy =                            0.0000000000000000
    Total Energy =                       -305.3030406679036446
    Molecular point group: c1
  Basis Set: CC-PVTZ
  Basis Set:

  -Total Gradient:
     Atom            X                  Y                   Z
    ------   -----------------  -----------------  -----------------
       1        0.000002521602     0.000000106645    -0.000001243691
       2       -0.000012814530     0.000005668336     0.000003663073
       3        0.000009437751    -0.000009595774     0.000024423617
       4        0.000014316029     0.000001612136    -0.000011341680
       5        0.000018014915    -0.000003585649     0.000003255013
       6       -0.000012163951     0.000003827768     0.000004427618
       7       -0.000137177071    -0.000788614245    -0.000508523071
       8        0.000009796774    -0.000001395916     0.000002611328
       9       -0.000004530381     0.000004063453    -0.000004258754
      10       -0.000025284875    -0.000000436983     0.000003452732
      11        0.000004673588    -0.000003159442    -0.000005468037
      12        0.000004557453     0.000002016494     0.000005366127
      13        0.000209126958     0.001096855922     0.000336755650
      14        0.000005735219     0.000002073246     0.000002933270
      15       -0.000004481243    -0.000002989253    -0.000000557043
      16       -0.000168002843    -0.000320080905     0.001334799338
      17        0.000016174517    -0.000003432252     0.000020719433
      18        0.000008248663    -0.000006202520     0.000002724519
      19        0.000061851423     0.000023268941    -0.001213739443

  **** Optimization is complete! (in 5 steps) ****
    Final optimized geometry and variables:
    Molecular point group: c1

    Geometry (in Angstrom), charge = 0, multiplicity = 1:

    H            2.705116428156    -0.185628252259     0.508493067830
    N            1.730315734815     0.019929238240     0.532427367914
    C            0.954336462753    -1.195573884100     0.672874210791
    C            1.336335483735     0.769685178042    -0.643111697653
    H            1.266602521568    -1.713867961898     1.571519321961
    H            1.092286069614    -1.874007475054    -0.171361055310
    C           -0.519265405717    -0.845432926214     0.776478456907
    H            1.924553248961     1.677786643469    -0.698279885266
    H            1.498128947120     0.208138366402    -1.565335344127
    C           -0.136130032257     1.125395910290    -0.544307807209
    H           -0.690312932742    -0.308500025526     1.714322272933
    H           -1.101153546684    -1.758554492728     0.809980017222
    N           -0.937443161507    -0.067132098353    -0.370380471540
    H           -0.445176328719     1.624273056025    -1.455254516320
    H           -0.276809853393     1.828523981753     0.281984429119
    C           -2.367482894628     0.180595875236    -0.424037398561
    H           -2.802657742683    -0.230366041186    -1.329232545928
    H           -2.877621804465    -0.267809274571     0.420640139467
    H           -2.591148257848     1.243052972423    -0.408864876002

  Mulliken Charges: (a.u.)
   Center  Symbol    Alpha    Beta     Spin     Total
       1     H     0.43995  0.43995  0.00000  0.12010
       2     N     3.64275  3.64275  0.00000 -0.28549
       3     C     3.04199  3.04199  0.00000 -0.08398
       4     C     3.04204  3.04204  0.00000 -0.08409
       5     H     0.45274  0.45274  0.00000  0.09451
       6     H     0.46624  0.46624  0.00000  0.06751
       7     C     3.03451  3.03451  0.00000 -0.06903
       8     H     0.45275  0.45275  0.00000  0.09450
       9     H     0.46621  0.46621  0.00000  0.06758
      10     C     3.03470  3.03470  0.00000 -0.06940
      11     H     0.46896  0.46896  0.00000  0.06208
      12     H     0.45382  0.45382  0.00000  0.09235
      13     N     3.61683  3.61683  0.00000 -0.23366
      14     H     0.45374  0.45374  0.00000  0.09253
      15     H     0.46885  0.46885  0.00000  0.06229
      16     C     3.09136  3.09136  0.00000 -0.18271
      17     H     0.45059  0.45059  0.00000  0.09881
      18     H     0.45988  0.45988  0.00000  0.08023
      19     H     0.46208  0.46208  0.00000  0.07584

   Total alpha = 28.00000, Total beta = 28.00000, Total charge = -0.00000
