  ==> Input File <==

--------------------------------------------------------------------------
set {
	reference rhf
	basis cc-pvtz
}

set_num_threads( 4 )
memory 2 gb

molecule MOL {
0 1

H	 1.515524	 0.110072	 -1.957239
O	 0.691481	 -0.009032	 -1.523173
C	 0.700177	 0.619554	 -0.266242
C	 -0.713111	 0.588314	 0.266177
H	 1.031426	 1.649721	 -0.355433
H	 1.361193	 0.100413	 0.422908
O	 -1.421673	 -0.521378	 -0.196983
H	 -1.244794	 1.469161	 -0.069059
H	 -0.685100	 0.604721	 1.352683
H	 -0.933408	 -1.297830	 0.014544

	symmetry c1
}
set optking {
	frozen_dihedral = ("
		5 3 4 7
	")
}

ee = optimize('scf')
oeprop('DIPOLE', 'QUADRUPOLE', 'MULLIKEN_CHARGES')
f=open( 'psi4out.xyz', 'w' )
f.write( "10  " )
f.write( str(ee) + "\n" )
f.write( MOL.save_string_xyz() )
f.close()
--------------------------------------------------------------------------

    Molecular point group: c1
  Charge       = 0
  Multiplicity = 1
  Basis Set: CC-PVTZ
  Basis Set:
  @DF-RHF Final Energy:  -229.01701240918302
    Total Energy =                       -229.0170124091829393
    Molecular point group: c1
  Basis Set: CC-PVTZ
  Basis Set:
  Basis Set: CC-PVTZ
  Basis Set:
  @DF-RHF Final Energy:  -229.01814381638999
    Total Energy =                       -229.0181438163898520
  Basis Set: CC-PVTZ
  Basis Set:
  Basis Set: CC-PVTZ
  Basis Set:
  @DF-RHF Final Energy:  -229.01879247830556
    Total Energy =                       -229.0187924783055564
  Basis Set: CC-PVTZ
  Basis Set:
  Basis Set: CC-PVTZ
  Basis Set:
  @DF-RHF Final Energy:  -229.01906324874790
    Total Energy =                       -229.0190632487478979
  Basis Set: CC-PVTZ
  Basis Set:
  @DF-RHF Final Energy:  -229.02060179534493
    Total Energy =                       -229.0206017953447883
  @DF-RHF Final Energy:  -229.02234691801769
    Total Energy =                       -229.0223469180176892
  @DF-RHF Final Energy:  -229.02301534050815
    Total Energy =                       -229.0230153405081523
  @DF-RHF Final Energy:  -229.02196376094628
    Total Energy =                       -229.0219637609461643
  @DF-RHF Final Energy:  -229.02350104652567
    Total Energy =                       -229.0235010465256664
  @DF-RHF Final Energy:  -229.02356034404187
    Total Energy =                       -229.0235603440418402
  Basis Set: CC-PVTZ
  Basis Set:
  @DF-RHF Final Energy:  -229.02359398617099
    Total Energy =                       -229.0235939861710222
  Basis Set: CC-PVTZ
  Basis Set:
  Basis Set: CC-PVTZ
  Basis Set:
  @DF-RHF Final Energy:  -229.02361685071526
    Total Energy =                       -229.0236168507153707
  Basis Set: CC-PVTZ
  Basis Set:
  Basis Set: CC-PVTZ
  Basis Set:
  @DF-RHF Final Energy:  -229.02361867645502
    Total Energy =                       -229.0236186764552144
  Basis Set: CC-PVTZ
  Basis Set:
  Charge       = 0
  Multiplicity = 1
  Basis Set: CC-PVTZ
  Basis Set:

    Orbital Energies (a.u.)
    -----------------------

    Doubly Occupied:

       1A    -20.564393     2A    -20.536125     3A    -11.278585
       4A    -11.267266     5A     -1.389483     6A     -1.350836
       7A     -1.000626     8A     -0.846940     9A     -0.728507
      10A     -0.682526    11A     -0.659250    12A     -0.596967
      13A     -0.580897    14A     -0.539093    15A     -0.488766
      16A     -0.462634    17A     -0.426611

  @DF-RHF Final Energy:  -229.02361885328833

   => Energetics <=

    Nuclear Repulsion Energy =            135.2055229126647760
    One-Electron Energy =                -581.6592741677201275
    Two-Electron Energy =                 217.4301324017668833
    DFT Exchange-Correlation Energy =       0.0000000000000000
    Empirical Dispersion Energy =           0.0000000000000000
    PCM Polarization Energy =               0.0000000000000000
    EFP Energy =                            0.0000000000000000
    Total Energy =                       -229.0236188532884682
    Molecular point group: c1
  Basis Set: CC-PVTZ
  Basis Set:

  -Total Gradient:
     Atom            X                  Y                   Z
    ------   -----------------  -----------------  -----------------
       1       -0.000003708942     0.000005587067     0.000003289275
       2        0.000014165677    -0.000006097576    -0.000029834450
       3        0.002915637628     0.002384173637     0.007083075750
       4        0.002711117499    -0.003367682091     0.005726676252
       5       -0.003100569254    -0.001289972916    -0.007312831063
       6       -0.000012217679    -0.000001827160     0.000009356823
       7       -0.002526758907     0.002275593820    -0.005478858299
       8       -0.000024301997    -0.000007926541     0.000003404631
       9        0.000027029944     0.000009997604    -0.000007488102
      10       -0.000000393968    -0.000001845846     0.000003209183

  **** Optimization is complete! (in 14 steps) ****
    Final optimized geometry and variables:
    Molecular point group: c1

    Geometry (in Angstrom), charge = 0, multiplicity = 1:

    H            1.690293824228    -0.197932536194    -1.496101749544
    O            0.840230851015    -0.199845433929    -1.097909647227
    C            0.846885749904     0.567648370873     0.083834393773
    C           -0.553673786624     0.482704795709     0.694774232317
    H            1.052191372027     1.598636566408    -0.184483710552
    H            1.602118143059     0.199771107878     0.769208298231
    O           -1.171027140190    -0.743999464072     0.467076127454
    H           -1.164026281150     1.280411818897     0.278024175675
    H           -0.496548873341     0.639996148716     1.763608940556
    H           -0.925275637445    -1.047754854921    -0.389229733474

  Mulliken Charges: (a.u.)
   Center  Symbol    Alpha    Beta     Spin     Total
       1     H     0.39299  0.39299  0.00000  0.21401
       2     O     4.20483  4.20483  0.00000 -0.40967
       3     C     2.97131  2.97131  0.00000  0.05738
       4     C     2.95750  2.95750  0.00000  0.08500
       5     H     0.47072  0.47072  0.00000  0.05856
       6     H     0.47080  0.47080  0.00000  0.05840
       7     O     4.20920  4.20920  0.00000 -0.41840
       8     H     0.47734  0.47734  0.00000  0.04531
       9     H     0.46351  0.46351  0.00000  0.07298
      10     H     0.38179  0.38179  0.00000  0.23642

   Total alpha = 17.00000, Total beta = 17.00000, Total charge = -0.00000
