  ==> Input File <==

--------------------------------------------------------------------------
set {
	reference rhf
	basis 6-31G*
}

set_num_threads( 4 )
memory 2 gb

molecule MOL {
0 1

O	 -0.866653	 -0.720817	 -2.188164
C	 -0.305646	 -0.929614	 -1.160829
C	 0.925746	 -1.788415	 -0.998346
O	 -0.698257	 -0.426125	 0.001050
C	 1.412561	 -2.389306	 -2.310942
H	 0.689415	 -2.561532	 -0.273305
H	 1.692451	 -1.173322	 -0.536731
H	 0.650643	 -3.015192	 -2.759396
H	 2.295929	 -2.995302	 -2.139925
H	 1.663075	 -1.614409	 -3.025155
C	 -1.853104	 0.406779	 0.000512
C	 -3.066105	 -0.499277	 -0.000959
H	 -1.828410	 1.043074	 -0.873618
H	 -1.829857	 1.042383	 0.875188
H	 -3.071820	 -1.133106	 -0.880383
H	 -3.972708	 0.097145	 -0.001528
H	 -3.073405	 -1.133813	 0.877999

	symmetry c1
}
set optking {
	frozen_dihedral = ("
		2 4 11 13
	")
}

ee = optimize('scf')
oeprop('DIPOLE', 'QUADRUPOLE', 'MULLIKEN_CHARGES')
f=open( 'psi4out.xyz', 'w' )
f.write( "17  " )
f.write( str(ee) + "\n" )
f.write( MOL.save_string_xyz() )
f.close()
--------------------------------------------------------------------------

    Molecular point group: c1
  Charge       = 0
  Multiplicity = 1
  Basis Set: 6-31G*
  Basis Set:
  @DF-RHF Final Energy:  -344.90935097350570
    Total Energy =                       -344.9093509735057523
    Molecular point group: c1
  Basis Set: 6-31G*
  Basis Set:
  Basis Set: 6-31G*
  Basis Set:
  @DF-RHF Final Energy:  -344.91094534186374
    Total Energy =                       -344.9109453418637372
  Basis Set: 6-31G*
  Basis Set:
  Basis Set: 6-31G*
  Basis Set:
  @DF-RHF Final Energy:  -344.90945409819267
    Total Energy =                       -344.9094540981926684
  Basis Set: 6-31G*
  Basis Set:
  Basis Set: 6-31G*
  Basis Set:
  @DF-RHF Final Energy:  -344.91123672855053
    Total Energy =                       -344.9112367285500227
  Basis Set: 6-31G*
  Basis Set:
  Basis Set: 6-31G*
  Basis Set:
  @DF-RHF Final Energy:  -344.91124868414283
    Total Energy =                       -344.9112486841424925
  Basis Set: 6-31G*
  Basis Set:
  Charge       = 0
  Multiplicity = 1
  Basis Set: 6-31G*
  Basis Set:

    Orbital Energies (a.u.)
    -----------------------

    Doubly Occupied:

       1A    -20.600614     2A    -20.544587     3A    -11.372510
       4A    -11.284746     5A    -11.237488     6A    -11.217938
       7A    -11.215828     8A     -1.466693     9A     -1.362178
      10A     -1.068947    11A     -1.028173    12A     -0.915518
      13A     -0.853759    14A     -0.759370    15A     -0.702821
      16A     -0.679766    17A     -0.659704    18A     -0.620224
      19A     -0.610217    20A     -0.568543    21A     -0.547973
      22A     -0.532373    23A     -0.520883    24A     -0.515016
      25A     -0.496672    26A     -0.491182    27A     -0.449795
      28A     -0.436092

  @DF-RHF Final Energy:  -344.91124931217945

   => Energetics <=

    Nuclear Repulsion Energy =            318.4783114700355213
    One-Electron Energy =               -1101.2599049828236275
    Two-Electron Energy =                 437.8703442006085993
    DFT Exchange-Correlation Energy =       0.0000000000000000
    Empirical Dispersion Energy =           0.0000000000000000
    PCM Polarization Energy =               0.0000000000000000
    EFP Energy =                            0.0000000000000000
    Total Energy =                       -344.9112493121794500
    Molecular point group: c1
  Basis Set: 6-31G*
  Basis Set:

  -Total Gradient:
     Atom            X                  Y                   Z
    ------   -----------------  -----------------  -----------------
       1       -0.000015419800     0.000003757280     0.000003164281
       2       -0.000007540750    -0.000061186025     0.000030617165
       3       -0.000027349741    -0.000014748972    -0.000012405309
       4        0.000114649961    -0.000008925810    -0.000009452190
       5        0.000025546991     0.000001184840    -0.000003191108
       6        0.000004450754     0.000010518678     0.000000900150
       7        0.000008984189     0.000001975092    -0.000003634483
       8       -0.000001882262     0.000001054000     0.000004267118
       9        0.000003300672    -0.000003876553    -0.000006536390
      10       -0.000001300961    -0.000004674468     0.000000979164
      11       -0.000106782517     0.000046757642    -0.000031750791
      12        0.000045396045    -0.000015480631    -0.000014236964
      13       -0.000005955683     0.000039345565     0.000040002957
      14       -0.000033788083    -0.000016697697    -0.000006666362
      15        0.000005599930     0.000001617317     0.000003102497
      16        0.000002628143     0.000019273294     0.000009599330
      17       -0.000010536889     0.000000106448    -0.000004759064

  **** Optimization is complete! (in 6 steps) ****
    Final optimized geometry and variables:
    Molecular point group: c1

    Geometry (in Angstrom), charge = 0, multiplicity = 1:

    O           -0.193712407727     0.157015462001    -1.258060586360
    C            0.354951740108    -0.037619332919    -0.220927110260
    C            1.599003941566    -0.874181706898    -0.039565417700
    O           -0.055253618183     0.464739962630     0.935865866638
    C            2.112414096114    -1.473572290651    -1.342719532093
    H            1.367009119825    -1.647216572761     0.686930967702
    H            2.349008176556    -0.243422074271     0.428154265091
    H            1.367551741575    -2.115897576395    -1.796575818284
    H            3.004485658016    -2.062396093638    -1.157483329333
    H            2.357488045561    -0.698351379728    -2.058441443469
    C           -1.220423559482     1.286103137015     0.944743729093
    C           -2.488345974185     0.454194295517     0.999129202360
    H           -1.209361339357     1.928162697738     0.076985058713
    H           -1.117612417324     1.892634885856     1.833054533369
    H           -2.597874358041    -0.141826559355     0.101887921295
    H           -3.352120811317     1.106687215294     1.082594751267
    H           -2.475187158104    -0.205276123709     1.860166471575

  Mulliken Charges: (a.u.)
   Center  Symbol    Alpha    Beta     Spin     Total
       1     O     4.28769  4.28769  0.00000 -0.57538
       2     C     2.60558  2.60558  0.00000  0.78884
       3     C     3.20500  3.20500  0.00000 -0.40999
       4     O     4.31390  4.31390  0.00000 -0.62780
       5     C     3.23878  3.23878  0.00000 -0.47757
       6     H     0.40072  0.40072  0.00000  0.19856
       7     H     0.40044  0.40044  0.00000  0.19912
       8     H     0.41024  0.41024  0.00000  0.17953
       9     H     0.41819  0.41819  0.00000  0.16362
      10     H     0.40994  0.40994  0.00000  0.18012
      11     C     3.00642  3.00642  0.00000 -0.01284
      12     C     3.25503  3.25503  0.00000 -0.51007
      13     H     0.40333  0.40333  0.00000  0.19335
      14     H     0.41007  0.41007  0.00000  0.17986
      15     H     0.40239  0.40239  0.00000  0.19523
      16     H     0.41776  0.41776  0.00000  0.16447
      17     H     0.41452  0.41452  0.00000  0.17095

   Total alpha = 28.00000, Total beta = 28.00000, Total charge =  0.00000
