  ==> Input File <==

--------------------------------------------------------------------------
set {
	reference rhf
	basis 6-31G*
}

set_num_threads( 4 )
memory 2 gb

molecule MOL {
0 1

H	 -0.814047	 1.572644	 -0.421691
O	 0.055946	 1.300438	 -0.164479
C	 0.004957	 -0.004114	 0.366649
C	 1.201664	 -0.828089	 -0.095740
C	 -1.317755	 -0.601827	 -0.081511
H	 0.013527	 0.048298	 1.454924
H	 1.216388	 -0.895289	 -1.178704
H	 2.135132	 -0.372895	 0.226467
H	 1.166770	 -1.832878	 0.313827
H	 -1.355732	 -0.658248	 -1.164429
H	 -2.141614	 0.017037	 0.254547
H	 -1.447303	 -1.600817	 0.322594

	symmetry c1
}
set optking {
	frozen_dihedral = ("
		1 2 3 4
	")
}

ee = optimize('scf')
oeprop('DIPOLE', 'QUADRUPOLE', 'MULLIKEN_CHARGES')
f=open( 'psi4out.xyz', 'w' )
f.write( "12  " )
f.write( str(ee) + "\n" )
f.write( MOL.save_string_xyz() )
f.close()
--------------------------------------------------------------------------

    Molecular point group: c1
  Charge       = 0
  Multiplicity = 1
  Basis Set: 6-31G*
  Basis Set:
  @DF-RHF Final Energy:  -193.11126054941158
    Total Energy =                       -193.1112605494115257
    Molecular point group: c1
  Basis Set: 6-31G*
  Basis Set:
  Basis Set: 6-31G*
  Basis Set:
  @DF-RHF Final Energy:  -193.11284990421765
    Total Energy =                       -193.1128499042175974
  Basis Set: 6-31G*
  Basis Set:
  Basis Set: 6-31G*
  Basis Set:
  @DF-RHF Final Energy:  -193.11329510077366
    Total Energy =                       -193.1132951007736551
  Basis Set: 6-31G*
  Basis Set:
  Basis Set: 6-31G*
  Basis Set:
  @DF-RHF Final Energy:  -193.11330046486580
    Total Energy =                       -193.1133004648657163
  Basis Set: 6-31G*
  Basis Set:
  Charge       = 0
  Multiplicity = 1
  Basis Set: 6-31G*
  Basis Set:

    Orbital Energies (a.u.)
    -----------------------

    Doubly Occupied:

       1A    -20.548984     2A    -11.275506     3A    -11.219768
       4A    -11.206030     5A     -1.358486     6A     -1.042904
       7A     -0.942866     8A     -0.808849     9A     -0.678671
      10A     -0.642918    11A     -0.606916    12A     -0.548915
      13A     -0.541717    14A     -0.521886    15A     -0.513428
      16A     -0.467343    17A     -0.427815

  @DF-RHF Final Energy:  -193.11330079840965

   => Energetics <=

    Nuclear Repulsion Energy =            135.5343235930608046
    One-Electron Energy =                -530.5892443473342155
    Two-Electron Energy =                 201.9416199558638141
    DFT Exchange-Correlation Energy =       0.0000000000000000
    Empirical Dispersion Energy =           0.0000000000000000
    PCM Polarization Energy =               0.0000000000000000
    EFP Energy =                            0.0000000000000000
    Total Energy =                       -193.1133007984096253
    Molecular point group: c1
  Basis Set: 6-31G*
  Basis Set:

  -Total Gradient:
     Atom            X                  Y                   Z
    ------   -----------------  -----------------  -----------------
       1        0.000325800179    -0.000696916303    -0.001737603548
       2       -0.000605970049     0.000796558033     0.001813682566
       3        0.000859503900     0.000296594006     0.000837203282
       4       -0.000599812619    -0.000348487823    -0.000923153036
       5       -0.000002384472    -0.000004974346    -0.000007101939
       6        0.000006759181    -0.000035343537     0.000000146303
       7       -0.000017003616     0.000009317507     0.000003614884
       8        0.000000361479     0.000004498578     0.000005578052
       9        0.000014712648    -0.000006046146    -0.000006984269
      10        0.000000954710     0.000010909068     0.000012526807
      11        0.000021571419    -0.000004528433    -0.000008935121
      12       -0.000004492759    -0.000021580607     0.000011026019

  **** Optimization is complete! (in 5 steps) ****
    Final optimized geometry and variables:
    Molecular point group: c1

    Geometry (in Angstrom), charge = 0, multiplicity = 1:

    H           -0.684821373399     1.643529997283    -0.429260772519
    O            0.149540177595     1.308775388550    -0.135623239995
    C            0.003123666861    -0.001386889977     0.370213589161
    C            1.203893996805    -0.809870001786    -0.095627840205
    C           -1.313929645830    -0.624436075511    -0.078148396927
    H            0.010471749765     0.048718898441     1.456835350999
    H            1.201702655198    -0.898245848147    -1.177227078647
    H            2.123333462437    -0.317608095436     0.200438621840
    H            1.193622614854    -1.806266774861     0.336012849895
    H           -1.357472382336    -0.685338440065    -1.162106241302
    H           -2.160486594648    -0.035240269963     0.266340210340
    H           -1.426678613076    -1.626214434720     0.322460399802

  Mulliken Charges: (a.u.)
   Center  Symbol    Alpha    Beta     Spin     Total
       1     H     0.27988  0.27988  0.00000  0.44023
       2     O     4.37879  4.37879  0.00000 -0.75757
       3     C     2.90503  2.90503  0.00000  0.18994
       4     C     3.23899  3.23899  0.00000 -0.47798
       5     C     3.26528  3.26528  0.00000 -0.53056
       6     H     0.42642  0.42642  0.00000  0.14716
       7     H     0.41900  0.41900  0.00000  0.16199
       8     H     0.41073  0.41073  0.00000  0.17854
       9     H     0.42504  0.42504  0.00000  0.14991
      10     H     0.41621  0.41621  0.00000  0.16757
      11     H     0.42013  0.42013  0.00000  0.15975
      12     H     0.41449  0.41449  0.00000  0.17102

   Total alpha = 17.00000, Total beta = 17.00000, Total charge =  0.00000
