                              Psi4 1.0.54 Driver

  ==> Input File <==

--------------------------------------------------------------------------
set {
	reference rhf
	basis cc-pvtz
}

set_num_threads( 4 )
memory 2 gb

molecule MOL {
0 1

O	 -2.071633	 -1.227563	 -0.223463
C	 -1.652164	 -0.152425	 0.058082
C	 -0.327811	 0.006324	 0.778296
C	 -2.402515	 1.108629	 -0.298924
C	 -0.163610	 -1.055764	 1.872111
H	 0.493834	 -0.062062	 0.073066
H	 -0.313453	 0.992741	 1.223956
C	 1.151381	 -0.918536	 2.633817
H	 -0.219902	 -2.048364	 1.432487
H	 -0.996176	 -0.974663	 2.562489
C	 1.313434	 -1.964970	 3.731031
H	 1.981331	 -0.994405	 1.936715
H	 1.208360	 0.074357	 3.070230
H	 1.295697	 -2.969159	 3.320757
H	 0.514531	 -1.892702	 4.461030
H	 2.253381	 -1.838951	 4.255454
H	 -3.240910	 0.874416	 -0.936711
H	 -1.747554	 1.818823	 -0.790984
H	 -2.760419	 1.579708	 0.610998

	symmetry c1
}
set optking {
	frozen_dihedral = ("
		5 3 2 4
	")
}

ee,wfn = optimize('scf', return_wfn=True)
oeprop( wfn, 'DIPOLE', 'QUADRUPOLE', 'MULLIKEN_CHARGES')
f=open( 'psi4out.xyz', 'w' )
f.write( "19  " )
f.write( str(ee) + "\n" )
f.write( MOL.save_string_xyz() )
f.close()
--------------------------------------------------------------------------

    Molecular point group: c1
  Charge       = 0
  Multiplicity = 1
  Basis Set: CC-PVTZ
  Basis Set:
  @DF-RHF Final Energy:  -309.17683140215053
    Total Energy =                       -309.1768314021505830
    Molecular point group: c1
  Basis Set: CC-PVTZ
  Basis Set:
  Basis Set: CC-PVTZ
  Basis Set:
  @DF-RHF Final Energy:  -309.17685370871715
    Total Energy =                       -309.1768537087172035
  Basis Set: CC-PVTZ
  Basis Set:
  Basis Set: CC-PVTZ
  Basis Set:
  @DF-RHF Final Energy:  -309.17752593734144
    Total Energy =                       -309.1775259373411018
  Basis Set: CC-PVTZ
  Basis Set:
  Basis Set: CC-PVTZ
  Basis Set:
  @DF-RHF Final Energy:  -309.17775633359838
    Total Energy =                       -309.1777563335984951
  Basis Set: CC-PVTZ
  Basis Set:
  Basis Set: CC-PVTZ
  Basis Set:
  @DF-RHF Final Energy:  -309.17776523440068
    Total Energy =                       -309.1777652344006810
  Basis Set: CC-PVTZ
  Basis Set:
  Basis Set: CC-PVTZ
  Basis Set:
  @DF-RHF Final Energy:  -309.17777083729226
    Total Energy =                       -309.1777708372924280
  Basis Set: CC-PVTZ
  Basis Set:
  Basis Set: CC-PVTZ
  Basis Set:
  @DF-RHF Final Energy:  -309.17777251630281
    Total Energy =                       -309.1777725163033210
  Basis Set: CC-PVTZ
  Basis Set:
  Charge       = 0
  Multiplicity = 1
  Basis Set: CC-PVTZ
  Basis Set:

    Orbital Energies (a.u.)
    -----------------------

    Doubly Occupied:

       1A    -20.537645     2A    -11.320823     3A    -11.229506
       4A    -11.227517     5A    -11.219375     6A    -11.218708
       7A    -11.209421     8A     -1.398375     9A     -1.088079
      10A     -1.030391    11A     -0.985162    12A     -0.887680
      13A     -0.803077    14A     -0.732844    15A     -0.661232
      16A     -0.649785    17A     -0.626195    18A     -0.613050
      19A     -0.582977    20A     -0.573211    21A     -0.554505
      22A     -0.533445    23A     -0.515110    24A     -0.492114
      25A     -0.476766    26A     -0.474902    27A     -0.469506
      28A     -0.400475

  @DF-RHF Final Energy:  -309.17777292449983

   => Energetics <=

    Nuclear Repulsion Energy =            301.3669870961767288
    One-Electron Energy =               -1016.0657677460840205
    Two-Electron Energy =                 405.5210077254075713
    DFT Exchange-Correlation Energy =       0.0000000000000000
    Empirical Dispersion Energy =           0.0000000000000000
    PCM Polarization Energy =               0.0000000000000000
    EFP Energy =                            0.0000000000000000
    Total Energy =                       -309.1777729244997772
    Molecular point group: c1
  Basis Set: CC-PVTZ
  Basis Set:

  -Total Gradient:
     Atom            X                  Y                   Z
    ------   -----------------  -----------------  -----------------
       1        0.000017586043     0.000133878002     0.000005200923
       2        0.000467909957     0.000101106402    -0.001037298683
       3        0.000430561174    -0.000725735050    -0.000531266055
       4       -0.000466266833    -0.000069311804     0.000841859383
       5       -0.000473033912     0.000583021996     0.000627898687
       6       -0.000027831150    -0.000001291341     0.000033835181
       7        0.000031561906    -0.000007792231     0.000005999569
       8        0.000005756202     0.000001629136     0.000018668916
       9       -0.000007652233    -0.000011436770     0.000016554236
      10        0.000007676650    -0.000007140888    -0.000012932846
      11        0.000021628631    -0.000000986725    -0.000003017647
      12        0.000002524500     0.000004313031     0.000010631781
      13        0.000003363023    -0.000011016031     0.000007551457
      14       -0.000000345168     0.000004900264     0.000003182027
      15        0.000008425208     0.000005499466    -0.000013506609
      16       -0.000001050511    -0.000011784776     0.000002449008
      17       -0.000012689332    -0.000008227480    -0.000009835099
      18        0.000013049968     0.000002422855    -0.000003812844
      19       -0.000021174124     0.000017951944     0.000037838611

  **** Optimization is complete! (in 8 steps) ****
    Final optimized geometry and variables:
    Molecular point group: c1

    Geometry (in Angstrom), charge = 0, multiplicity = 1:

    O           -1.490535136032    -0.598164344414    -1.485494654135
    C           -1.071505668186     0.467364764526    -1.170282677099
    C            0.233725485976     0.612479043133    -0.407360333841
    C           -1.808379867243     1.739338829050    -1.512427147901
    C            0.422461745228    -0.447987550540     0.674311384869
    H            1.029377938460     0.538863708207    -1.145389281036
    H            0.301516201486     1.607629181163     0.018739852748
    C            1.769098647305    -0.335381359700     1.382746808113
    H            0.320007850218    -1.428423214811     0.226895937958
    H           -0.378203956716    -0.359308357851     1.403661047116
    C            1.956576305355    -1.388360260100     2.469656894217
    H            2.567527890358    -0.427067663753     0.651322627289
    H            1.868980213811     0.654621287312     1.820025579092
    H            1.894863657342    -2.389702690676     2.057566283300
    H            1.193499484041    -1.299929718090     3.235655304291
    H            2.922120916017    -1.286972634094     2.951474132222
    H           -2.659170833802     1.520555415183    -2.139225036090
    H           -1.146080662855     2.436913109265    -2.013911766711
    H           -2.142343074643     2.217006296464    -0.596821563400

  Mulliken Charges: (a.u.)
   Center  Symbol    Alpha    Beta     Spin     Total
       1     O     4.17416  4.17416  0.00000 -0.34833
       2     C     2.85946  2.85946  0.00000  0.28108
       3     C     3.10748  3.10748  0.00000 -0.21496
       4     C     3.15280  3.15280  0.00000 -0.30560
       5     C     3.08665  3.08665  0.00000 -0.17330
       6     H     0.44395  0.44395  0.00000  0.11210
       7     H     0.44635  0.44635  0.00000  0.10729
       8     C     3.08530  3.08530  0.00000 -0.17059
       9     H     0.43881  0.43881  0.00000  0.12239
      10     H     0.45361  0.45361  0.00000  0.09278
      11     C     3.14945  3.14945  0.00000 -0.29890
      12     H     0.45405  0.45405  0.00000  0.09191
      13     H     0.45569  0.45569  0.00000  0.08861
      14     H     0.45294  0.45294  0.00000  0.09411
      15     H     0.45480  0.45480  0.00000  0.09041
      16     H     0.44842  0.44842  0.00000  0.10316
      17     H     0.43636  0.43636  0.00000  0.12728
      18     H     0.44988  0.44988  0.00000  0.10024
      19     H     0.44985  0.44985  0.00000  0.10031

   Total alpha = 28.00000, Total beta = 28.00000, Total charge = -0.00000

*** Psi4 exiting successfully. Buy a developer a beer!
