                              Psi4 1.0.54 Driver

  ==> Input File <==

--------------------------------------------------------------------------
set {
	reference rhf
	basis cc-pvtz
}

set_num_threads( 4 )
memory 2 gb

molecule MOL {
0 1

H	 -2.548226	 -1.028295	 0.184276
O	 -2.313989	 -0.142475	 -0.025864
C	 -0.943808	 -0.065018	 -0.330000
H	 -0.812293	 -0.225641	 -1.398673
C	 -0.231030	 -1.182113	 0.407592
C	 -0.353797	 1.300461	 0.050970
H	 -0.312800	 -0.992012	 1.473041
H	 -0.738841	 -2.119564	 0.220514
C	 1.246176	 -1.268044	 -0.015480
H	 -0.539537	 2.008579	 -0.751815
H	 -0.889989	 1.662858	 0.920677
C	 1.153605	 1.231851	 0.356834
H	 1.823096	 -1.684665	 0.802361
H	 1.352335	 -1.958223	 -0.845114
C	 1.826409	 0.100723	 -0.416008
H	 1.622968	 2.181508	 0.128734
H	 1.301983	 1.066493	 1.419367
H	 2.897299	 0.112407	 -0.249665
H	 1.683458	 0.265621	 -1.480024

	symmetry c1
}
set optking {
	frozen_dihedral = ("
		1 2 3 4
	")
}

ee,wfn = optimize('scf', return_wfn=True)
oeprop( wfn, 'DIPOLE', 'QUADRUPOLE', 'MULLIKEN_CHARGES')
f=open( 'psi4out.xyz', 'w' )
f.write( "19  " )
f.write( str(ee) + "\n" )
f.write( MOL.save_string_xyz() )
f.close()
--------------------------------------------------------------------------

    Molecular point group: c1
  Charge       = 0
  Multiplicity = 1
  Basis Set: CC-PVTZ
  Basis Set:
  @DF-RHF Final Energy:  -309.16066704878045
    Total Energy =                       -309.1606670487806809
    Molecular point group: c1
  Basis Set: CC-PVTZ
  Basis Set:
  Basis Set: CC-PVTZ
  Basis Set:
  @DF-RHF Final Energy:  -309.16210107859689
    Total Energy =                       -309.1621010785967201
  Basis Set: CC-PVTZ
  Basis Set:
  Basis Set: CC-PVTZ
  Basis Set:
  @DF-RHF Final Energy:  -309.16252722214705
    Total Energy =                       -309.1625272221473324
  Basis Set: CC-PVTZ
  Basis Set:
  Basis Set: CC-PVTZ
  Basis Set:
  @DF-RHF Final Energy:  -309.16253667150801
    Total Energy =                       -309.1625366715076666
  Basis Set: CC-PVTZ
  Basis Set:
  Charge       = 0
  Multiplicity = 1
  Basis Set: CC-PVTZ
  Basis Set:

    Orbital Energies (a.u.)
    -----------------------

    Doubly Occupied:

       1A    -20.541855     2A    -11.267190     3A    -11.218354
       4A    -11.216816     5A    -11.214618     6A    -11.213091
       7A    -11.206585     8A     -1.362248     9A     -1.111340
      10A     -1.004965    11A     -0.989936    12A     -0.852175
      13A     -0.832607    14A     -0.739358    15A     -0.695730
      16A     -0.662018    17A     -0.621072    18A     -0.610919
      19A     -0.574460    20A     -0.548705    21A     -0.530609
      22A     -0.522037    23A     -0.499728    24A     -0.489345
      25A     -0.467650    26A     -0.449394    27A     -0.427296
      28A     -0.415669

  @DF-RHF Final Energy:  -309.16253782228432

   => Energetics <=

    Nuclear Repulsion Energy =            332.0358487255341515
    One-Electron Energy =               -1077.8252340294538953
    Two-Electron Energy =                 436.6268474816350817
    DFT Exchange-Correlation Energy =       0.0000000000000000
    Empirical Dispersion Energy =           0.0000000000000000
    PCM Polarization Energy =               0.0000000000000000
    EFP Energy =                            0.0000000000000000
    Total Energy =                       -309.1625378222846621
    Molecular point group: c1
  Basis Set: CC-PVTZ
  Basis Set:

  -Total Gradient:
     Atom            X                  Y                   Z
    ------   -----------------  -----------------  -----------------
       1        0.000430830074     0.000199937500     0.002149781206
       2       -0.000517297141     0.000182112538    -0.002667394315
       3        0.000078192506    -0.002231977963     0.000705017923
       4        0.000077518081     0.001862413583    -0.000192567519
       5       -0.000079576254     0.000036804385    -0.000028820139
       6       -0.000040969917     0.000004543821    -0.000010910805
       7        0.000011461451    -0.000017610082     0.000006363502
       8        0.000006039403     0.000011015591     0.000006446361
       9        0.000020926577     0.000018255670     0.000005800876
      10       -0.000017481767     0.000001365615    -0.000005272277
      11       -0.000012643662    -0.000003271941    -0.000001435464
      12        0.000011848585    -0.000001086297     0.000012368742
      13        0.000030037437    -0.000002886666     0.000007849627
      14        0.000000614195    -0.000001405529     0.000008484271
      15       -0.000002913281    -0.000018570240     0.000004490363
      16       -0.000015048106     0.000001605377     0.000006868424
      17        0.000015011943    -0.000001753445     0.000015941269
      18        0.000000483598    -0.000039154511    -0.000011254825
      19        0.000002966276    -0.000000337404    -0.000011757219

  **** Optimization is complete! (in 5 steps) ****
    Final optimized geometry and variables:
    Molecular point group: c1

    Geometry (in Angstrom), charge = 0, multiplicity = 1:

    H           -2.682752712406    -0.769822583184     0.086558700748
    O           -2.322956727177     0.084154896335    -0.066841341793
    C           -0.945287473358    -0.008660848498    -0.335613708488
    H           -0.814229739474    -0.126734208702    -1.409361468897
    C           -0.287024596609    -1.185429796417     0.366130341071
    C           -0.291837243292     1.310341698424     0.091254496907
    H           -0.360307354050    -1.031083172708     1.438524907107
    H           -0.827183429641    -2.102062485604     0.145994684942
    C            1.185107224822    -1.331306471788    -0.059157225784
    H           -0.440081309198     2.045940678033    -0.691148985413
    H           -0.819843726302     1.673546857542     0.964073843373
    C            1.207004016130     1.154373717627     0.404081497462
    H            1.737564069550    -1.807417569341     0.742895971513
    H            1.256834699644    -1.994135578002    -0.914182530705
    C            1.831928813431     0.022029145728    -0.406245474743
    H            1.723881719940     2.087505365880     0.214235818714
    H            1.341011755948     0.943058460699     1.460810200083
    H            2.900725734838    -0.025682906419    -0.233341383830
    H            1.704252760353     0.231517216905    -1.464006075708

  Mulliken Charges: (a.u.)
   Center  Symbol    Alpha    Beta     Spin     Total
       1     H     0.39368  0.39368  0.00000  0.21265
       2     O     4.20545  4.20545  0.00000 -0.41090
       3     C     2.92583  2.92583  0.00000  0.14834
       4     H     0.46043  0.46043  0.00000  0.07914
       5     C     3.10878  3.10878  0.00000 -0.21755
       6     C     3.11070  3.11070  0.00000 -0.22141
       7     H     0.45133  0.45133  0.00000  0.09733
       8     H     0.45050  0.45050  0.00000  0.09901
       9     C     3.11381  3.11381  0.00000 -0.22762
      10     H     0.44619  0.44619  0.00000  0.10762
      11     H     0.44441  0.44441  0.00000  0.11117
      12     C     3.10132  3.10132  0.00000 -0.20264
      13     H     0.44688  0.44688  0.00000  0.10623
      14     H     0.44703  0.44703  0.00000  0.10595
      15     C     3.10186  3.10186  0.00000 -0.20372
      16     H     0.44181  0.44181  0.00000  0.11638
      17     H     0.45412  0.45412  0.00000  0.09176
      18     H     0.44278  0.44278  0.00000  0.11444
      19     H     0.45309  0.45309  0.00000  0.09381

   Total alpha = 28.00000, Total beta = 28.00000, Total charge =  0.00000

*** Psi4 exiting successfully. Buy a developer a beer!
