  ==> Input File <==

--------------------------------------------------------------------------
set {
	reference rhf
	basis 6-31G*
}

set_num_threads( 1 )
memory 2 gb

molecule MOL {
0 1

H	 2.184539	 -1.255076	 -0.473247
N	 2.434251	 -0.367735	 -0.081097
C	 1.267428	 0.496480	 0.024474
H	 3.117025	 0.037367	 -0.693165
C	 -0.016086	 -0.325158	 -0.029487
H	 1.288818	 1.183521	 -0.816092
H	 1.267576	 1.109062	 0.929528
C	 -1.282277	 0.529072	 0.046735
H	 -0.012495	 -0.908639	 -0.945788
H	 -0.015903	 -1.041248	 0.791956
C	 -2.563920	 -0.301775	 -0.006060
H	 -1.284084	 1.244622	 -0.773004
H	 -1.271387	 1.115393	 0.963286
H	 -2.621848	 -0.873522	 -0.927727
H	 -3.445135	 0.329952	 0.047812
H	 -2.609542	 -1.004582	 0.821105

	symmetry c1
}
set optking {
	frozen_dihedral = ("
		6 3 5 9,
		12 8 5 9
	")
}

ee = energy('scf')
oeprop('DIPOLE', 'QUADRUPOLE', 'MULLIKEN_CHARGES')
f=open( 'psi4out.xyz', 'w' )
f.write( "16  " )
f.write( str(ee) + "\n" )
f.write( MOL.save_string_xyz() )
f.close()
--------------------------------------------------------------------------

    Molecular point group: c1

    Geometry (in Angstrom), charge = 0, multiplicity = 1:

       Center              X                  Y                   Z               Mass
    ------------   -----------------  -----------------  -----------------  -----------------
           H          2.191110745270    -1.249197746200    -0.448737016685     1.007825032070
           N          2.440822745270    -0.361856746200    -0.056587016685    14.003074004780
           C          1.273999745270     0.502358253800     0.048983983315    12.000000000000
           H          3.123596745270     0.043245253800    -0.668655016685     1.007825032070
           C         -0.009514254730    -0.319279746200    -0.004977016685    12.000000000000
           H          1.295389745270     1.189399253800    -0.791582016685     1.007825032070
           H          1.274147745270     1.114940253800     0.954037983315     1.007825032070
           C         -1.275705254730     0.534950253800     0.071244983315    12.000000000000
           H         -0.005923254730    -0.902760746200    -0.921278016685     1.007825032070
           H         -0.009331254730    -1.035369746200     0.816465983315     1.007825032070
           C         -2.557348254730    -0.295896746200     0.018449983315    12.000000000000
           H         -1.277512254730     1.250500253800    -0.748494016685     1.007825032070
           H         -1.264815254730     1.121271253800     0.987795983315     1.007825032070
           H         -2.615276254730    -0.867643746200    -0.903217016685     1.007825032070
           H         -3.438563254730     0.335830253800     0.072321983315     1.007825032070
           H         -2.602970254730    -0.998703746200     0.845614983315     1.007825032070

  Charge       = 0
  Multiplicity = 1
  Basis Set: 6-31G*
  Basis Set:

    Orbital Energies (a.u.)
    -----------------------

    Doubly Occupied:

       1A    -15.529165     2A    -11.239751     3A    -11.218602
       4A    -11.216348     5A    -11.210741     6A     -1.176972
       7A     -1.062344     8A     -0.960038     9A     -0.845962
      10A     -0.799049    11A     -0.655964    12A     -0.645777
      13A     -0.596717    14A     -0.583030    15A     -0.570954
      16A     -0.521595    17A     -0.511834    18A     -0.474815
      19A     -0.470058    20A     -0.462839    21A     -0.375282

  @DF-RHF Final Energy:  -212.31183888728071

   => Energetics <=

    Nuclear Repulsion Energy =            186.6082900414868391
    One-Electron Energy =                -655.5846528786754561
    Two-Electron Energy =                 256.6645239499077888
    DFT Exchange-Correlation Energy =       0.0000000000000000
    Empirical Dispersion Energy =           0.0000000000000000
    PCM Polarization Energy =               0.0000000000000000
    EFP Energy =                            0.0000000000000000
    Total Energy =                       -212.3118388872808282

  Mulliken Charges: (a.u.)
   Center  Symbol    Alpha    Beta     Spin     Total
       1     H     0.33254  0.33254  0.00000  0.33492
       2     N     3.92807  3.92807  0.00000 -0.85615
       3     C     3.04588  3.04588  0.00000 -0.09175
       4     H     0.33309  0.33309  0.00000  0.33381
       5     C     3.16606  3.16606  0.00000 -0.33211
       6     H     0.43258  0.43258  0.00000  0.13484
       7     H     0.42118  0.42118  0.00000  0.15765
       8     C     3.15457  3.15457  0.00000 -0.30913
       9     H     0.42625  0.42625  0.00000  0.14750
      10     H     0.41633  0.41633  0.00000  0.16733
      11     C     3.23922  3.23922  0.00000 -0.47845
      12     H     0.42250  0.42250  0.00000  0.15500
      13     H     0.42054  0.42054  0.00000  0.15892
      14     H     0.42182  0.42182  0.00000  0.15636
      15     H     0.41866  0.41866  0.00000  0.16267
      16     H     0.42070  0.42070  0.00000  0.15859

   Total alpha = 21.00000, Total beta = 21.00000, Total charge =  0.00000
