                              Psi4 1.0.54 Driver

  ==> Input File <==

--------------------------------------------------------------------------
set {
	reference rhf
	basis cc-pvtz
}

set_num_threads( 4 )
memory 2 gb

molecule MOL {
0 1

O	 -0.694481	 1.313155	 -0.204815
C	 -0.862519	 0.151932	 -0.046791
C	 -2.171428	 -0.477048	 0.339095
O	 0.085519	 -0.757083	 -0.192238
H	 -2.467997	 -1.191667	 -0.417688
H	 -2.923379	 0.287970	 0.444097
H	 -2.053854	 -1.015120	 1.270901
C	 1.394352	 -0.463295	 0.282236
C	 1.540863	 -0.783182	 1.755364
H	 1.619546	 0.573162	 0.085104
H	 2.046910	 -1.084344	 -0.312925
H	 2.565637	 -0.610457	 2.064324
H	 0.895247	 -0.154781	 2.353423
H	 1.297702	 -1.821227	 1.947535

	symmetry c1
}
set optking {
	frozen_dihedral = ("
		8 4 2 1
	")
}

ee,wfn = optimize('scf', return_wfn=True)
oeprop( wfn, 'DIPOLE', 'QUADRUPOLE', 'MULLIKEN_CHARGES')
f=open( 'psi4out.xyz', 'w' )
f.write( "14  " )
f.write( str(ee) + "\n" )
f.write( MOL.save_string_xyz() )
f.close()
--------------------------------------------------------------------------

    Molecular point group: c1
  Charge       = 0
  Multiplicity = 1
  Basis Set: CC-PVTZ
  Basis Set:
  @DF-RHF Final Energy:  -305.98332775274332
    Total Energy =                       -305.9833277527433211
    Molecular point group: c1
  Basis Set: CC-PVTZ
  Basis Set:
  Basis Set: CC-PVTZ
  Basis Set:
  @DF-RHF Final Energy:  -305.92184053045378
    Total Energy =                       -305.9218405304537782
  Basis Set: CC-PVTZ
  Basis Set:
  Basis Set: CC-PVTZ
  Basis Set:
  @DF-RHF Final Energy:  -305.88869648119396
    Total Energy =                       -305.8886964811938469
  Basis Set: CC-PVTZ
  Basis Set:
  Basis Set: CC-PVTZ
  Basis Set:
  @DF-RHF Final Energy:  -305.86425562361580
    Total Energy =                       -305.8642556236158612
  Basis Set: CC-PVTZ
  Basis Set:
  @DF-RHF Final Energy:  -305.94098763299360
    Total Energy =                       -305.9409876329935969
  @DF-RHF Final Energy:  -305.98150511811809
    Total Energy =                       -305.9815051181179228
  @DF-RHF Final Energy:  -305.97545655341958
    Total Energy =                       -305.9754565534195763
  @DF-RHF Final Energy:  -305.98372993544513
    Total Energy =                       -305.9837299354451261
  @DF-RHF Final Energy:  -305.98412771704443
    Total Energy =                       -305.9841277170441458
  Basis Set: CC-PVTZ
  Basis Set:
  @DF-RHF Final Energy:  -305.98414294933843
    Total Energy =                       -305.9841429493384339
  Basis Set: CC-PVTZ
  Basis Set:
  Basis Set: CC-PVTZ
  Basis Set:
  @DF-RHF Final Energy:  -305.98414959595465
    Total Energy =                       -305.9841495959547046
  Basis Set: CC-PVTZ
  Basis Set:
  Basis Set: CC-PVTZ
  Basis Set:
  @DF-RHF Final Energy:  -305.98415132031505
    Total Energy =                       -305.9841513203148793
  Basis Set: CC-PVTZ
  Basis Set:
  Charge       = 0
  Multiplicity = 1
  Basis Set: CC-PVTZ
  Basis Set:

    Orbital Energies (a.u.)
    -----------------------

    Doubly Occupied:

       1A    -20.586955     2A    -20.537003     3A    -11.368766
       4A    -11.285714     5A    -11.232312     6A    -11.223794
       7A     -1.465875     8A     -1.366698     9A     -1.054116
      10A     -1.004306    11A     -0.885117    12A     -0.764725
      13A     -0.699176    14A     -0.685104    15A     -0.666088
      16A     -0.614713    17A     -0.590466    18A     -0.572065
      19A     -0.558660    20A     -0.538413    21A     -0.518882
      22A     -0.495575    23A     -0.454115    24A     -0.441070

  @DF-RHF Final Energy:  -305.98415157369129

   => Energetics <=

    Nuclear Repulsion Energy =            249.0907563674066694
    One-Electron Energy =                -910.9304002391203312
    Two-Electron Energy =                 355.8554922980221704
    DFT Exchange-Correlation Energy =       0.0000000000000000
    Empirical Dispersion Energy =           0.0000000000000000
    PCM Polarization Energy =               0.0000000000000000
    EFP Energy =                            0.0000000000000000
    Total Energy =                       -305.9841515736914630
    Molecular point group: c1
  Basis Set: CC-PVTZ
  Basis Set:

  -Total Gradient:
     Atom            X                  Y                   Z
    ------   -----------------  -----------------  -----------------
       1        0.006769702917    -0.001022106086    -0.006550331482
       2       -0.013084523185    -0.000422865766     0.011202205463
       3       -0.000009728568     0.000072580162    -0.000078721676
       4        0.011731519080     0.005181223834    -0.007486911957
       5        0.000036460859     0.000009567330    -0.000036024534
       6        0.000010107954    -0.000008177824    -0.000008434156
       7        0.000018160742    -0.000004493149     0.000011085616
       8       -0.005446286652    -0.003803196057     0.002998944137
       9       -0.000043623266     0.000014246133    -0.000069898303
      10        0.000000363389     0.000005557427    -0.000004151387
      11       -0.000018909967     0.000011541714    -0.000011416261
      12        0.000010004270     0.000004065817     0.000006979710
      13        0.000028497604    -0.000012839343     0.000017466011
      14       -0.000001745177    -0.000025104192     0.000009208819

  **** Optimization is complete! (in 13 steps) ****
    Final optimized geometry and variables:
    Molecular point group: c1

    Geometry (in Angstrom), charge = 0, multiplicity = 1:

    O           -0.221661426662     1.163067313470    -1.142408897399
    C           -0.123154781057     0.018575631265    -0.866941884951
    C           -0.808139685571    -1.096048268906    -1.603831646461
    O            0.697572905641    -0.441778183140     0.075949188108
    H           -0.071786633474    -1.817570004635    -1.932761257656
    H           -1.350490821955    -0.700535164458    -2.447258821869
    H           -1.487010909931    -1.606193768747    -0.931185770576
    C            0.827246506282     0.297804695181     1.283151589847
    C           -0.349439128348     0.055776746279     2.205971633119
    H            0.935757421392     1.346559138765     1.051123262398
    H            1.744959172596    -0.052786433782     1.730122794559
    H           -0.194670452904     0.583137533192     3.140196607118
    H           -1.271479042376     0.419087008507     1.767807370808
    H           -0.458746189826    -0.999831775244     2.422129994976

  Mulliken Charges: (a.u.)
   Center  Symbol    Alpha    Beta     Spin     Total
       1     O     4.18886  4.18886  0.00000 -0.37772
       2     C     2.80152  2.80152  0.00000  0.39695
       3     C     3.13650  3.13650  0.00000 -0.27301
       4     O     4.16653  4.16653  0.00000 -0.33307
       5     H     0.44384  0.44384  0.00000  0.11233
       6     H     0.43821  0.43821  0.00000  0.12358
       7     H     0.44930  0.44930  0.00000  0.10140
       8     C     2.98715  2.98715  0.00000  0.02571
       9     C     3.14821  3.14821  0.00000 -0.29642
      10     H     0.44505  0.44505  0.00000  0.10990
      11     H     0.44553  0.44553  0.00000  0.10894
      12     H     0.44883  0.44883  0.00000  0.10234
      13     H     0.44992  0.44992  0.00000  0.10017
      14     H     0.45055  0.45055  0.00000  0.09890

   Total alpha = 24.00000, Total beta = 24.00000, Total charge =  0.00000

*** Psi4 exiting successfully. Buy a developer a beer!
