                              Psi4 1.0.54 Driver

  ==> Input File <==

--------------------------------------------------------------------------
set {
	reference rhf
	basis cc-pvtz
}

set_num_threads( 4 )
memory 2 gb

molecule MOL {
0 1

H	 1.957332	 -1.453166	 -0.714745
C	 1.218446	 -1.394168	 0.076283
N	 0.526300	 -0.128137	 0.000000
H	 1.741948	 -1.470146	 1.020854
H	 0.560430	 -2.260326	 -0.020444
C	 -0.247113	 0.037112	 -1.209233
H	 -0.060619	 -0.012889	 0.797436
H	 -0.996493	 -0.743733	 -1.271440
H	 0.397975	 -0.057351	 -2.073512
H	 -0.763794	 0.997171	 -1.271673

	symmetry c1
}
set optking {
	frozen_dihedral = ("
		2 3 6 8
	")
}

ee,wfn = optimize('scf', return_wfn=True)
oeprop( wfn, 'DIPOLE', 'QUADRUPOLE', 'MULLIKEN_CHARGES')
f=open( 'psi4out.xyz', 'w' )
f.write( "10  " )
f.write( str(ee) + "\n" )
f.write( MOL.save_string_xyz() )
f.close()
--------------------------------------------------------------------------

    Molecular point group: c1
  Charge       = 0
  Multiplicity = 1
  Basis Set: CC-PVTZ
  Basis Set:
  @DF-RHF Final Energy:  -134.29184504118280
    Total Energy =                       -134.2918450411828246
    Molecular point group: c1
  Basis Set: CC-PVTZ
  Basis Set:
  Basis Set: CC-PVTZ
  Basis Set:
  @DF-RHF Final Energy:  -134.29287852233801
    Total Energy =                       -134.2928785223380146
  Basis Set: CC-PVTZ
  Basis Set:
  Basis Set: CC-PVTZ
  Basis Set:
  @DF-RHF Final Energy:  -134.29303687322383
    Total Energy =                       -134.2930368732238549
  Basis Set: CC-PVTZ
  Basis Set:
  Charge       = 0
  Multiplicity = 1
  Basis Set: CC-PVTZ
  Basis Set:

    Orbital Energies (a.u.)
    -----------------------

    Doubly Occupied:

       1A    -15.532348     2A    -11.234264     3A    -11.234227
       4A     -1.200896     5A     -0.948266     6A     -0.854783
       7A     -0.662985     8A     -0.612832     9A     -0.592378
      10A     -0.539410    11A     -0.511388    12A     -0.507197
      13A     -0.363802

  @DF-RHF Final Energy:  -134.29303801803997

   => Energetics <=

    Nuclear Repulsion Energy =             84.7508581093674564
    One-Electron Energy =                -348.4982384444439276
    Two-Electron Energy =                 129.4543423170364917
    DFT Exchange-Correlation Energy =       0.0000000000000000
    Empirical Dispersion Energy =           0.0000000000000000
    PCM Polarization Energy =               0.0000000000000000
    EFP Energy =                            0.0000000000000000
    Total Energy =                       -134.2930380180399652
    Molecular point group: c1
  Basis Set: CC-PVTZ
  Basis Set:

  -Total Gradient:
     Atom            X                  Y                   Z
    ------   -----------------  -----------------  -----------------
       1        0.000021652282    -0.000000412552    -0.000004247189
       2        0.000441305056     0.000147893824    -0.000376150587
       3       -0.000765780632    -0.000115834164     0.000510534130
       4       -0.000046081557     0.000066947353    -0.000004508263
       5       -0.000004842676     0.000008488359     0.000023992248
       6        0.000827019006    -0.000526430162    -0.000594382082
       7       -0.000035661728     0.000002778916    -0.000009656685
       8       -0.000480865912     0.000420113795     0.000398617455
       9        0.000020837857    -0.000001271091     0.000014951383
      10        0.000022418302    -0.000002274278     0.000040849591

  **** Optimization is complete! (in 4 steps) ****
    Final optimized geometry and variables:
    Molecular point group: c1

    Geometry (in Angstrom), charge = 0, multiplicity = 1:

    H            1.481723007399    -0.927581486242    -0.330227729715
    C            0.729676977958    -0.889298207250     0.449479881835
    N            0.032497711258     0.374757802174     0.388961858115
    H            1.237773568065    -0.982021648788     1.400916217604
    H            0.078433496192    -1.757043744662     0.324553454786
    C           -0.723976095399     0.562427916333    -0.827429511080
    H           -0.564313490788     0.474960453243     1.181023099120
    H           -1.496742125490    -0.192803545444    -0.985403921126
    H           -0.054624906468     0.535370017574    -1.679363495441
    H           -1.201663564017     1.534092340870    -0.815688436408

  Mulliken Charges: (a.u.)
   Center  Symbol    Alpha    Beta     Spin     Total
       1     H     0.45691  0.45691  0.00000  0.08618
       2     C     3.08073  3.08073  0.00000 -0.16145
       3     N     3.62900  3.62900  0.00000 -0.25801
       4     H     0.45245  0.45245  0.00000  0.09510
       5     H     0.47530  0.47530  0.00000  0.04939
       6     C     3.08142  3.08142  0.00000 -0.16284
       7     H     0.44044  0.44044  0.00000  0.11911
       8     H     0.47429  0.47429  0.00000  0.05142
       9     H     0.45722  0.45722  0.00000  0.08555
      10     H     0.45222  0.45222  0.00000  0.09555

   Total alpha = 13.00000, Total beta = 13.00000, Total charge =  0.00000

*** Psi4 exiting successfully. Buy a developer a beer!
