  ==> Input File <==

--------------------------------------------------------------------------
set {
	reference rhf
	basis cc-pvtz
}

set_num_threads( 4 )
memory 2 gb

molecule MOL {
0 1

H	 -1.869108	 1.870811	 -1.032389
C	 -1.180202	 2.276956	 -0.303915
C	 0.137066	 1.517031	 -0.315534
H	 -1.656332	 2.213672	 0.665368
H	 -1.013170	 3.322032	 -0.535906
C	 0.000000	 0.039916	 0.000014
H	 0.835189	 1.943157	 0.399965
H	 0.624307	 1.603290	 -1.283029
C	 1.286532	 -0.763243	 0.000268
O	 -1.052499	 -0.458349	 0.233161
C	 2.547023	 0.087626	 -0.000114
H	 1.264245	 -1.421103	 -0.864380
H	 1.264290	 -1.420353	 0.865489
H	 2.584452	 0.725630	 -0.872909
H	 3.427035	 -0.544422	 0.000125
H	 2.584484	 0.726356	 0.872143

	symmetry c1
}
set optking {
	frozen_dihedral = ("
		3 6 9 12
	")
}

ee = optimize('scf')
oeprop('DIPOLE', 'QUADRUPOLE', 'MULLIKEN_CHARGES')
f=open( 'psi4out.xyz', 'w' )
f.write( "16  " )
f.write( str(ee) + "\n" )
f.write( MOL.save_string_xyz() )
f.close()
--------------------------------------------------------------------------

    Molecular point group: c1
  Charge       = 0
  Multiplicity = 1
  Basis Set: CC-PVTZ
  Basis Set:
  @DF-RHF Final Energy:  -270.12474818866178
    Total Energy =                       -270.1247481886617265
    Molecular point group: c1
  Basis Set: CC-PVTZ
  Basis Set:
  Basis Set: CC-PVTZ
  Basis Set:
  @DF-RHF Final Energy:  -270.12625627774889
    Total Energy =                       -270.1262562777488938
  Basis Set: CC-PVTZ
  Basis Set:
  Basis Set: CC-PVTZ
  Basis Set:
  @DF-RHF Final Energy:  -270.12733494869701
    Total Energy =                       -270.1273349486970119
  Basis Set: CC-PVTZ
  Basis Set:
  Basis Set: CC-PVTZ
  Basis Set:
  @DF-RHF Final Energy:  -270.12742344887374
    Total Energy =                       -270.1274234488738557
  Basis Set: CC-PVTZ
  Basis Set:
  Basis Set: CC-PVTZ
  Basis Set:
  @DF-RHF Final Energy:  -270.12747819898516
    Total Energy =                       -270.1274781989851022
  Basis Set: CC-PVTZ
  Basis Set:
  Basis Set: CC-PVTZ
  Basis Set:
  @DF-RHF Final Energy:  -270.12749759047523
    Total Energy =                       -270.1274975904754569
  Basis Set: CC-PVTZ
  Basis Set:
  Charge       = 0
  Multiplicity = 1
  Basis Set: CC-PVTZ
  Basis Set:

    Orbital Energies (a.u.)
    -----------------------

    Doubly Occupied:

       1A    -20.534955     2A    -11.318434     3A    -11.232347
       4A    -11.231694     5A    -11.225453     6A    -11.211146
       7A     -1.396774     8A     -1.072807     9A     -1.036189
      10A     -0.907955    11A     -0.868188    12A     -0.722819
      13A     -0.656674    14A     -0.648148    15A     -0.632512
      16A     -0.609562    17A     -0.554122    18A     -0.542595
      19A     -0.538266    20A     -0.511560    21A     -0.507779
      22A     -0.503027    23A     -0.473736    24A     -0.398089

  @DF-RHF Final Energy:  -270.12749786099550

   => Energetics <=

    Nuclear Repulsion Energy =            240.8303751133846902
    One-Electron Energy =                -843.2460844745593249
    Two-Electron Energy =                 332.2882115001793295
    DFT Exchange-Correlation Energy =       0.0000000000000000
    Empirical Dispersion Energy =           0.0000000000000000
    PCM Polarization Energy =               0.0000000000000000
    EFP Energy =                            0.0000000000000000
    Total Energy =                       -270.1274978609953337
    Molecular point group: c1
  Basis Set: CC-PVTZ
  Basis Set:

  -Total Gradient:
     Atom            X                  Y                   Z
    ------   -----------------  -----------------  -----------------
       1       -0.000006448358     0.000004784219     0.000002763648
       2       -0.000013748384    -0.000019196244    -0.000012567147
       3        0.000132913269     0.000187076699     0.000894493362
       4       -0.000004536397     0.000000873260     0.000004686848
       5        0.000002617590    -0.000001715147     0.000001746350
       6       -0.000276909524    -0.000437438087    -0.001150022508
       7       -0.000004094354    -0.000014169416    -0.000009171555
       8        0.000001771104    -0.000011711183    -0.000014686213
       9        0.000654597009     0.001010632707    -0.000319071644
      10        0.000004199431     0.000036901191    -0.000005254198
      11        0.000012303708    -0.000001873589     0.000005159765
      12       -0.000501413107    -0.000777838464     0.000616522321
      13       -0.000007972887     0.000020799570    -0.000017073683
      14        0.000001334405     0.000000884194    -0.000002161389
      15        0.000004146360    -0.000003760078    -0.000000328634
      16        0.000001240133     0.000005750366     0.000004964679

  **** Optimization is complete! (in 7 steps) ****
    Final optimized geometry and variables:
    Molecular point group: c1

    Geometry (in Angstrom), charge = 0, multiplicity = 1:

    H           -2.216225672608     1.354639443325    -0.987147781421
    C           -1.555986172427     1.796765133868    -0.253209521321
    C           -0.201141544450     1.106212107847    -0.250621088372
    H           -2.037488736398     1.710026891159     0.711417727442
    H           -1.439906027371     2.848713768937    -0.485560603991
    C           -0.272630104043    -0.372848072840     0.067007755778
    H            0.466781952121     1.570132469322     0.468856869997
    H            0.290208564800     1.216467786470    -1.213636228605
    C            1.006813592558    -1.200611610905     0.064462282934
    O           -1.306947711467    -0.906834111268     0.306056040526
    C            2.343796687025    -0.467171739491     0.064109281029
    H            0.933366508623    -1.849445679322    -0.803415154894
    H            0.935748989036    -1.856705617494     0.923152384580
    H            2.468958039278     0.158506325752    -0.810787670799
    H            3.153908635028    -1.185787444841     0.068275523445
    H            2.459692415312     0.157763549092     0.941808772675

  Mulliken Charges: (a.u.)
   Center  Symbol    Alpha    Beta     Spin     Total
       1     H     0.44773  0.44773  0.00000  0.10455
       2     C     3.14195  3.14195  0.00000 -0.28390
       3     C     3.10542  3.10542  0.00000 -0.21084
       4     H     0.44739  0.44739  0.00000  0.10521
       5     H     0.45095  0.45095  0.00000  0.09809
       6     C     2.87209  2.87209  0.00000  0.25583
       7     H     0.44355  0.44355  0.00000  0.11290
       8     H     0.44350  0.44350  0.00000  0.11301
       9     C     3.08944  3.08944  0.00000 -0.17887
      10     O     4.17776  4.17776  0.00000 -0.35551
      11     C     3.15905  3.15905  0.00000 -0.31809
      12     H     0.44157  0.44157  0.00000  0.11686
      13     H     0.43709  0.43709  0.00000  0.12581
      14     H     0.45125  0.45125  0.00000  0.09750
      15     H     0.44115  0.44115  0.00000  0.11770
      16     H     0.45012  0.45012  0.00000  0.09975

   Total alpha = 24.00000, Total beta = 24.00000, Total charge = -0.00000
