  ==> Input File <==

--------------------------------------------------------------------------
set {
	reference rhf
	basis 6-31G*
}

set_num_threads( 4 )
memory 2 gb

molecule MOL {
0 1

O	 -0.988096	 -1.408613	 0.050699
C	 -0.676749	 -0.249230	 -0.009274
C	 -1.746085	 0.827156	 -0.009539
N	 0.623947	 0.147590	 -0.102813
H	 -1.701500	 1.431508	 -0.908902
H	 -2.703425	 0.330732	 0.036390
H	 -1.647323	 1.487769	 0.845106
C	 1.534375	 -0.197483	 0.971395
C	 1.095138	 1.171948	 -1.008857
H	 2.503725	 -0.450252	 0.556082
H	 1.146255	 -1.042665	 1.512662
H	 1.663578	 0.633120	 1.661921
H	 2.113389	 0.944962	 -1.301570
H	 0.499162	 1.212621	 -1.906683
H	 1.090986	 2.157069	 -0.545895

	symmetry c1
}
set optking {
	frozen_dihedral = ("
		8 4 2 3
	")
}

ee = optimize('scf')
oeprop('DIPOLE', 'QUADRUPOLE', 'MULLIKEN_CHARGES')
f=open( 'psi4out.xyz', 'w' )
f.write( "15  " )
f.write( str(ee) + "\n" )
f.write( MOL.save_string_xyz() )
f.close()
--------------------------------------------------------------------------

    Molecular point group: c1
  Charge       = 0
  Multiplicity = 1
  Basis Set: 6-31G*
  Basis Set:
  @DF-RHF Final Energy:  -286.00700061833504
    Total Energy =                       -286.0070006183350984
    Molecular point group: c1
  Basis Set: 6-31G*
  Basis Set:
  Basis Set: 6-31G*
  Basis Set:
  @DF-RHF Final Energy:  -286.01232959915092
    Total Energy =                       -286.0123295991508030
  Basis Set: 6-31G*
  Basis Set:
  Basis Set: 6-31G*
  Basis Set:
  @DF-RHF Final Energy:  -286.01476480603759
    Total Energy =                       -286.0147648060374763
  Basis Set: 6-31G*
  Basis Set:
  Basis Set: 6-31G*
  Basis Set:
  @DF-RHF Final Energy:  -286.01557900500126
    Total Energy =                       -286.0155790050012001
  Basis Set: 6-31G*
  Basis Set:
  Basis Set: 6-31G*
  Basis Set:
  @DF-RHF Final Energy:  -286.01584477862627
    Total Energy =                       -286.0158447786262741
  Basis Set: 6-31G*
  Basis Set:
  Basis Set: 6-31G*
  Basis Set:
  @DF-RHF Final Energy:  -286.01588306298044
    Total Energy =                       -286.0158830629805493
  Basis Set: 6-31G*
  Basis Set:
  Basis Set: 6-31G*
  Basis Set:
  @DF-RHF Final Energy:  -286.01588642807542
    Total Energy =                       -286.0158864280753050
  Basis Set: 6-31G*
  Basis Set:
  Charge       = 0
  Multiplicity = 1
  Basis Set: 6-31G*
  Basis Set:

    Orbital Energies (a.u.)
    -----------------------

    Doubly Occupied:

       1A    -20.531603     2A    -15.574310     3A    -11.346637
       4A    -11.260443     5A    -11.253637     6A    -11.232325
       7A     -1.396402     8A     -1.240664     9A     -1.012761
      10A     -0.968702    11A     -0.914148    12A     -0.738059
      13A     -0.681829    14A     -0.658727    15A     -0.649132
      16A     -0.594607    17A     -0.580441    18A     -0.572983
      19A     -0.560827    20A     -0.551073    21A     -0.528092
      22A     -0.498586    23A     -0.419046    24A     -0.370053

  @DF-RHF Final Energy:  -286.01588709210455

   => Energetics <=

    Nuclear Repulsion Energy =            252.6456318008800963
    One-Electron Energy =                -889.0528680456293387
    Two-Electron Energy =                 350.3913491526445796
    DFT Exchange-Correlation Energy =       0.0000000000000000
    Empirical Dispersion Energy =           0.0000000000000000
    PCM Polarization Energy =               0.0000000000000000
    EFP Energy =                            0.0000000000000000
    Total Energy =                       -286.0158870921046628
    Molecular point group: c1
  Basis Set: 6-31G*
  Basis Set:

  -Total Gradient:
     Atom            X                  Y                   Z
    ------   -----------------  -----------------  -----------------
       1        0.000004430424    -0.000046277386     0.000027012431
       2       -0.002075106363     0.000783717518    -0.011784105608
       3        0.001033134278     0.001884292010     0.008513107180
       4        0.002063654978    -0.011014973774     0.000391313257
       5       -0.000012897211     0.000012098254     0.000008475881
       6        0.000011356525     0.000013854263    -0.000008447931
       7        0.000021969354    -0.000006800838     0.000013034881
       8       -0.001069684104     0.008374206037     0.002896677612
       9        0.000116586806     0.000048865162    -0.000005119150
      10       -0.000028998223    -0.000000365277    -0.000009072933
      11       -0.000024446800     0.000001096900    -0.000023102186
      12       -0.000010137983    -0.000017310537    -0.000012243012
      13       -0.000016416341    -0.000002843123     0.000012915807
      14       -0.000005161492    -0.000013052394    -0.000009029466
      15       -0.000008283848    -0.000016506810    -0.000011416762

  **** Optimization is complete! (in 8 steps) ****
    Final optimized geometry and variables:
    Molecular point group: c1

    Geometry (in Angstrom), charge = 0, multiplicity = 1:

    O           -1.005327169056    -1.383954163143     0.406688176617
    C           -0.662884858165    -0.320293998337    -0.014912742125
    C           -1.666509723616     0.810114209767    -0.144644916596
    N            0.684448094207    -0.045388584697    -0.241592607487
    H           -1.711110314716     1.234886422237    -1.140501277614
    H           -2.640323234676     0.426571076086     0.120119303831
    H           -1.391403017807     1.606971590157     0.539469158485
    C            1.563000407083    -0.307765618253     0.889423483797
    C            1.045797482321     1.164605816233    -0.954473372937
    H            2.581286384190    -0.419965949569     0.537442199298
    H            1.263688430400    -1.223132143012     1.374161358416
    H            1.538030481746     0.507898459759     1.612310390717
    H            2.085939836803     1.090936639637    -1.246077895451
    H            0.463973072841     1.265148794226    -1.860255859385
    H            0.928421203162     2.071232094346    -0.359967963454

  Mulliken Charges: (a.u.)
   Center  Symbol    Alpha    Beta     Spin     Total
       1     O     4.28038  4.28038  0.00000 -0.56075
       2     C     2.63892  2.63892  0.00000  0.72215
       3     C     3.29490  3.29490  0.00000 -0.58980
       4     N     3.80919  3.80919  0.00000 -0.61839
       5     H     0.40695  0.40695  0.00000  0.18609
       6     H     0.39157  0.39157  0.00000  0.21686
       7     H     0.40654  0.40654  0.00000  0.18693
       8     C     3.15249  3.15249  0.00000 -0.30499
       9     C     3.14901  3.14901  0.00000 -0.29802
      10     H     0.41264  0.41264  0.00000  0.17472
      11     H     0.38957  0.38957  0.00000  0.22085
      12     H     0.42589  0.42589  0.00000  0.14822
      13     H     0.40716  0.40716  0.00000  0.18569
      14     H     0.40978  0.40978  0.00000  0.18044
      15     H     0.42500  0.42500  0.00000  0.15000

   Total alpha = 24.00000, Total beta = 24.00000, Total charge =  0.00000
