                              Psi4 1.0.54 Driver

  ==> Input File <==

--------------------------------------------------------------------------
set {
	reference rhf
	basis cc-pvtz
}

set_num_threads( 4 )
memory 2 gb

molecule MOL {
0 1

O	 0.306022	 0.130811	 -0.857534
C	 1.121787	 0.124983	 0.000110
C	 1.119092	 1.014398	 1.216826
O	 2.167739	 -0.685178	 -0.000678
C	 -0.062619	 1.971571	 1.274300
H	 1.143232	 0.367023	 2.087346
H	 2.061382	 1.552463	 1.222896
C	 -0.034544	 2.855673	 2.517636
H	 -0.985515	 1.403112	 1.248655
H	 -0.066202	 2.590095	 0.383817
C	 -1.215746	 3.817397	 2.586476
H	 -0.027712	 2.230281	 3.406500
H	 0.892488	 3.422627	 2.537908
H	 -2.157282	 3.279036	 2.602679
H	 -1.169858	 4.431545	 3.478324
H	 -1.230356	 4.480111	 1.727885
C	 3.449556	 -0.089977	 -0.000570
H	 3.585694	 0.522473	 -0.879546
H	 4.155805	 -0.904274	 -0.001389
H	 3.586173	 0.521118	 0.879272

	symmetry c1
}
set optking {
	frozen_dihedral = ("
		1 2 4 17
	")
}

ee,wfn = optimize('scf', return_wfn=True)
oeprop( wfn, 'DIPOLE', 'QUADRUPOLE', 'MULLIKEN_CHARGES')
f=open( 'psi4out.xyz', 'w' )
f.write( "20  " )
f.write( str(ee) + "\n" )
f.write( MOL.save_string_xyz() )
f.close()
--------------------------------------------------------------------------

    Molecular point group: c1
  Charge       = 0
  Multiplicity = 1
  Basis Set: CC-PVTZ
  Basis Set:
  @DF-RHF Final Energy:  -384.05904245666369
    Total Energy =                       -384.0590424566637466
    Molecular point group: c1
  Basis Set: CC-PVTZ
  Basis Set:
  Basis Set: CC-PVTZ
  Basis Set:
  @DF-RHF Final Energy:  -384.05866012094924
    Total Energy =                       -384.0586601209492983
  Basis Set: CC-PVTZ
  Basis Set:
  Basis Set: CC-PVTZ
  Basis Set:
  @DF-RHF Final Energy:  -384.06272605912096
    Total Energy =                       -384.0627260591214736
  Basis Set: CC-PVTZ
  Basis Set:
  Basis Set: CC-PVTZ
  Basis Set:
  @DF-RHF Final Energy:  -384.06346104510317
    Total Energy =                       -384.0634610451025992
  Basis Set: CC-PVTZ
  Basis Set:
  @DF-RHF Final Energy:  -384.06360638572374
    Total Energy =                       -384.0636063857233466
  Basis Set: CC-PVTZ
  Basis Set:
  @DF-RHF Final Energy:  -384.06367404935349
    Total Energy =                       -384.0636740493537218
  Basis Set: CC-PVTZ
  Basis Set:
  Basis Set: CC-PVTZ
  Basis Set:
  @DF-RHF Final Energy:  -384.06367941792774
    Total Energy =                       -384.0636794179276876
  Basis Set: CC-PVTZ
  Basis Set:
  Basis Set: CC-PVTZ
  Basis Set:
  @DF-RHF Final Energy:  -384.06368250515550
    Total Energy =                       -384.0636825051558390
  Basis Set: CC-PVTZ
  Basis Set:
  Charge       = 0
  Multiplicity = 1
  Basis Set: CC-PVTZ
  Basis Set:

    Orbital Energies (a.u.)
    -----------------------

    Doubly Occupied:

       1A    -20.581779     2A    -20.541440     3A    -11.367368
       4A    -11.291609     5A    -11.240447     6A    -11.221980
       7A    -11.221186     8A    -11.211292     9A     -1.461882
      10A     -1.370123    11A     -1.092177    12A     -1.018480
      13A     -0.976465    14A     -0.900299    15A     -0.809773
      16A     -0.767113    17A     -0.699006    18A     -0.683057
      19A     -0.677484    20A     -0.648343    21A     -0.616456
      22A     -0.591411    23A     -0.590856    24A     -0.553480
      25A     -0.539355    26A     -0.518095    27A     -0.497041
      28A     -0.488163    29A     -0.481004    30A     -0.474140
      31A     -0.454848    32A     -0.436063

  @DF-RHF Final Energy:  -384.06368279056977

   => Energetics <=

    Nuclear Repulsion Energy =            382.6962135647241325
    One-Electron Energy =               -1281.4753611424589508
    Two-Electron Energy =                 514.7154647871648194
    DFT Exchange-Correlation Energy =       0.0000000000000000
    Empirical Dispersion Energy =           0.0000000000000000
    PCM Polarization Energy =               0.0000000000000000
    EFP Energy =                            0.0000000000000000
    Total Energy =                       -384.0636827905700557
    Molecular point group: c1
  Basis Set: CC-PVTZ
  Basis Set:

  -Total Gradient:
     Atom            X                  Y                   Z
    ------   -----------------  -----------------  -----------------
       1        0.001553703785     0.002048132851    -0.001191382649
       2       -0.002343764196    -0.002561301869     0.000459418063
       3       -0.000044522154    -0.000049203821     0.000020999063
       4        0.000876473733     0.000289627500     0.003132657181
       5        0.000023296728    -0.000015160202     0.000007059085
       6        0.000002573287    -0.000009949174    -0.000002801679
       7       -0.000013505917    -0.000011384666    -0.000000593260
       8       -0.000008060514     0.000007607271    -0.000009710467
       9       -0.000004055716    -0.000001127056    -0.000002392664
      10       -0.000003172313     0.000005992116    -0.000003952736
      11        0.000002653245    -0.000002879158     0.000007003975
      12       -0.000000354886    -0.000002374220     0.000002110665
      13        0.000001890043     0.000003264967     0.000000298809
      14       -0.000001815344    -0.000002011199     0.000000460944
      15       -0.000001729974     0.000000415088    -0.000000018812
      16        0.000002056133     0.000002710793    -0.000001679050
      17       -0.000047486988     0.000300895249    -0.002410398390
      18       -0.000006816624    -0.000007330850     0.000003816672
      19        0.000000458517     0.000008330615     0.000003115498
      20        0.000012179157    -0.000004254238    -0.000014010253

  **** Optimization is complete! (in 9 steps) ****
    Final optimized geometry and variables:
    Molecular point group: c1

    Geometry (in Angstrom), charge = 0, multiplicity = 1:

    O           -0.456670181509    -0.721028914629    -1.789774761596
    C            0.343775531328    -0.807882033277    -0.932634002597
    C            0.278879527335    -0.048077016340     0.371864115082
    O            1.383157235944    -1.654241347932    -1.057300018881
    C           -1.019621221832     0.722866684578     0.566755784192
    H            0.436247841342    -0.763377618038     1.172791515687
    H            1.125880148200     0.630723043532     0.407143945705
    C           -1.053984240949     1.479990747280     1.891159279316
    H           -1.854616218220     0.033083426213     0.516199213042
    H           -1.151021310295     1.414472087027    -0.257068533963
    C           -2.353149882911     2.251078964952     2.097493124058
    H           -0.916518367260     0.781181390313     2.712136077825
    H           -0.215496681722     2.170388644852     1.935735320538
    H           -3.208095355668     1.583669483408     2.093149710510
    H           -2.349535857194     2.778763994442     3.044105307358
    H           -2.502440267687     2.982391011105     1.310506987164
    C            2.695567962311    -1.146578875630    -1.026794174595
    H            2.812088832154    -0.334657711839    -1.734693563031
    H            3.342714316509    -1.958563998186    -1.315782482276
    H            2.975875511617    -0.809192631211    -0.036692222846

  Mulliken Charges: (a.u.)
   Center  Symbol    Alpha    Beta     Spin     Total
       1     O     4.16786  4.16786  0.00000 -0.33571
       2     C     2.79368  2.79368  0.00000  0.41265
       3     C     3.12932  3.12932  0.00000 -0.25863
       4     O     4.15420  4.15420  0.00000 -0.30841
       5     C     3.08204  3.08204  0.00000 -0.16408
       6     H     0.43627  0.43627  0.00000  0.12745
       7     H     0.44532  0.44532  0.00000  0.10935
       8     C     3.08518  3.08518  0.00000 -0.17035
       9     H     0.44533  0.44533  0.00000  0.10934
      10     H     0.44426  0.44426  0.00000  0.11149
      11     C     3.14974  3.14974  0.00000 -0.29949
      12     H     0.45506  0.45506  0.00000  0.08988
      13     H     0.45600  0.45600  0.00000  0.08801
      14     H     0.45319  0.45319  0.00000  0.09361
      15     H     0.44811  0.44811  0.00000  0.10379
      16     H     0.45351  0.45351  0.00000  0.09299
      17     C     3.04501  3.04501  0.00000 -0.09002
      18     H     0.45779  0.45779  0.00000  0.08443
      19     H     0.43676  0.43676  0.00000  0.12648
      20     H     0.46139  0.46139  0.00000  0.07722

   Total alpha = 32.00000, Total beta = 32.00000, Total charge = -0.00000

*** Psi4 exiting successfully. Buy a developer a beer!
