  ==> Input File <==

--------------------------------------------------------------------------
set {
	reference rhf
	basis cc-pvtz
}

set_num_threads( 4 )
memory 2 gb

molecule MOL {
0 1

H	 2.288570	 -0.834994	 -0.842124
C	 1.554800	 -1.137659	 -0.103792
N	 0.526300	 -0.128137	 0.000000
H	 2.066375	 -1.239580	 0.844861
H	 1.177392	 -2.119917	 -0.395859
C	 -0.247113	 0.037112	 -1.209233
H	 -0.078428	 -0.336173	 0.764647
H	 -0.996493	 -0.743733	 -1.271440
H	 0.397975	 -0.057351	 -2.073512
H	 -0.763794	 0.997171	 -1.271673

	symmetry c1
}
set optking {
	frozen_dihedral = ("
		2 3 6 8
	")
}

ee = optimize('scf')
oeprop('DIPOLE', 'QUADRUPOLE', 'MULLIKEN_CHARGES')
f=open( 'psi4out.xyz', 'w' )
f.write( "10  " )
f.write( str(ee) + "\n" )
f.write( MOL.save_string_xyz() )
f.close()
--------------------------------------------------------------------------

    Molecular point group: c1
  Charge       = 0
  Multiplicity = 1
  Basis Set: CC-PVTZ
  Basis Set:
  @DF-RHF Final Energy:  -134.29024285040941
    Total Energy =                       -134.2902428504094985
    Molecular point group: c1
  Basis Set: CC-PVTZ
  Basis Set:
  Basis Set: CC-PVTZ
  Basis Set:
  @DF-RHF Final Energy:  -134.29133184175851
    Total Energy =                       -134.2913318417584492
  Basis Set: CC-PVTZ
  Basis Set:
  Basis Set: CC-PVTZ
  Basis Set:
  @DF-RHF Final Energy:  -134.29145240459883
    Total Energy =                       -134.2914524045988571
  Basis Set: CC-PVTZ
  Basis Set:
  Basis Set: CC-PVTZ
  Basis Set:
  @DF-RHF Final Energy:  -134.29145643954689
    Total Energy =                       -134.2914564395469483
  Basis Set: CC-PVTZ
  Basis Set:
  Charge       = 0
  Multiplicity = 1
  Basis Set: CC-PVTZ
  Basis Set:

    Orbital Energies (a.u.)
    -----------------------

    Doubly Occupied:

       1A    -15.530548     2A    -11.234254     3A    -11.233966
       4A     -1.198689     5A     -0.948188     6A     -0.855057
       7A     -0.663021     8A     -0.609353     9A     -0.591000
      10A     -0.541439    11A     -0.513529    12A     -0.507333
      13A     -0.359829

  @DF-RHF Final Energy:  -134.29145698887493

   => Energetics <=

    Nuclear Repulsion Energy =             84.6417736756441030
    One-Electron Energy =                -348.2940508011959082
    Two-Electron Energy =                 129.3608201366767787
    DFT Exchange-Correlation Energy =       0.0000000000000000
    Empirical Dispersion Energy =           0.0000000000000000
    PCM Polarization Energy =               0.0000000000000000
    EFP Energy =                            0.0000000000000000
    Total Energy =                       -134.2914569888750123
    Molecular point group: c1
  Basis Set: CC-PVTZ
  Basis Set:

  -Total Gradient:
     Atom            X                  Y                   Z
    ------   -----------------  -----------------  -----------------
       1       -0.000021927975     0.000018775557     0.000002537628
       2        0.001808970404     0.001861808573    -0.000926774353
       3       -0.003213027660    -0.002052495066     0.001882154233
       4       -0.000010398961     0.000013872747     0.000001430818
       5       -0.000010388709     0.000026168645     0.000006086131
       6        0.003788791534    -0.002025488408    -0.002831774715
       7        0.000009973063    -0.000010280790    -0.000002610823
       8       -0.002342294443     0.002154663602     0.001823360162
       9       -0.000001230724     0.000002160271     0.000039673230
      10       -0.000008466531     0.000010814869     0.000005917687

  **** Optimization is complete! (in 5 steps) ****
    Final optimized geometry and variables:
    Molecular point group: c1

    Geometry (in Angstrom), charge = 0, multiplicity = 1:

    H            1.691392766918    -0.409865159065    -0.390940263873
    C            0.958809607262    -0.704433249415     0.351104271998
    N           -0.075097377529     0.300734710191     0.435459683535
    H            1.469196630686    -0.782476317696     1.302834296155
    H            0.593488926725    -1.697850421312     0.081242314077
    C           -0.861492580081     0.455449863933    -0.768832109824
    H           -0.664656823555     0.135779373508     1.220972803614
    H           -1.640055125947    -0.299408227525    -0.886555044814
    H           -0.213802386689     0.417209140785    -1.635271813849
    H           -1.350871891165     1.422700726085    -0.768897860693

  Mulliken Charges: (a.u.)
   Center  Symbol    Alpha    Beta     Spin     Total
       1     H     0.45684  0.45684  0.00000  0.08632
       2     C     3.07995  3.07995  0.00000 -0.15990
       3     N     3.63242  3.63242  0.00000 -0.26483
       4     H     0.45285  0.45285  0.00000  0.09430
       5     H     0.47588  0.47588  0.00000  0.04823
       6     C     3.08196  3.08196  0.00000 -0.16392
       7     H     0.43945  0.43945  0.00000  0.12109
       8     H     0.46988  0.46988  0.00000  0.06024
       9     H     0.45803  0.45803  0.00000  0.08395
      10     H     0.45274  0.45274  0.00000  0.09452

   Total alpha = 13.00000, Total beta = 13.00000, Total charge =  0.00000
