                              Psi4 1.0.54 Driver

  ==> Input File <==

--------------------------------------------------------------------------
set {
	reference rhf
	basis cc-pvtz
}

set_num_threads( 4 )
memory 2 gb

molecule MOL {
0 1

H	 2.012744	 -0.722438	 -2.703310
O	 2.436932	 -0.199041	 -2.046925
C	 1.586703	 0.139294	 -1.061419
C	 2.084932	 0.914583	 -0.024203
C	 0.265631	 -0.254516	 -1.055239
H	 3.115163	 1.209845	 -0.048675
C	 1.261221	 1.291248	 1.011642
H	 -0.145099	 -0.852485	 -1.842025
C	 -0.532034	 0.141680	 0.000000
H	 1.655000	 1.890443	 1.808920
C	 -0.069299	 0.908040	 1.040121
N	 -1.937041	 -0.281114	 0.000000
H	 -0.720345	 1.192859	 1.837454
O	 -2.159542	 -1.446261	 0.000000
O	 -2.764978	 0.565773	 0.000000

	symmetry c1
}
set optking {
	frozen_dihedral = ("
		11 9 12 14
	")
}

ee,wfn = optimize('scf', return_wfn=True)
oeprop( wfn, 'DIPOLE', 'QUADRUPOLE', 'MULLIKEN_CHARGES')
f=open( 'psi4out.xyz', 'w' )
f.write( "15  " )
f.write( str(ee) + "\n" )
f.write( MOL.save_string_xyz() )
f.close()
--------------------------------------------------------------------------

    Molecular point group: c1
  Charge       = 0
  Multiplicity = 1
  Basis Set: CC-PVTZ
  Basis Set:
  @DF-RHF Final Energy:  -509.21234000871675
    Total Energy =                       -509.2123400087164100
    Molecular point group: c1
  Basis Set: CC-PVTZ
  Basis Set:
  Basis Set: CC-PVTZ
  Basis Set:
  @DF-RHF Final Energy:  -509.20625362653180
    Total Energy =                       -509.2062536265320887
  Basis Set: CC-PVTZ
  Basis Set:
  Basis Set: CC-PVTZ
  Basis Set:
  @DF-RHF Final Energy:  -509.21182889497936
    Total Energy =                       -509.2118288949794760
  Basis Set: CC-PVTZ
  Basis Set:
  Basis Set: CC-PVTZ
  Basis Set:
  @DF-RHF Final Energy:  -509.21279727882143
    Total Energy =                       -509.2127972788211991
  Basis Set: CC-PVTZ
  Basis Set:
  Basis Set: CC-PVTZ
  Basis Set:
  @DF-RHF Final Energy:  -509.21280841181158
    Total Energy =                       -509.2128084118113520
  Basis Set: CC-PVTZ
  Basis Set:
  Basis Set: CC-PVTZ
  Basis Set:
  @DF-RHF Final Energy:  -509.21283884799425
    Total Energy =                       -509.2128388479942487
  Basis Set: CC-PVTZ
  Basis Set:
  Charge       = 0
  Multiplicity = 1
  Basis Set: CC-PVTZ
  Basis Set:

    Orbital Energies (a.u.)
    -----------------------

    Doubly Occupied:

       1A    -20.610186     2A    -20.599200     3A    -20.598832
       4A    -15.850480     5A    -11.330119     6A    -11.313035
       7A    -11.264843     8A    -11.263948     9A    -11.258471
      10A    -11.252180    11A     -1.646783    12A     -1.443065
      13A     -1.429938    14A     -1.204392    15A     -1.096678
      16A     -1.049771    17A     -0.966909    18A     -0.886001
      19A     -0.833309    20A     -0.793866    21A     -0.766205
      22A     -0.740779    23A     -0.725048    24A     -0.712597
      25A     -0.673677    26A     -0.636210    27A     -0.623415
      28A     -0.597059    29A     -0.565036    30A     -0.549616
      31A     -0.534234    32A     -0.495140    33A     -0.489617
      34A     -0.460208    35A     -0.377262    36A     -0.346565

  @DF-RHF Final Energy:  -509.21283905456198

   => Energetics <=

    Nuclear Repulsion Energy =            504.2066318779436642
    One-Electron Energy =               -1694.8695928687109244
    Two-Electron Energy =                 681.4501219362048232
    DFT Exchange-Correlation Energy =       0.0000000000000000
    Empirical Dispersion Energy =           0.0000000000000000
    PCM Polarization Energy =               0.0000000000000000
    EFP Energy =                            0.0000000000000000
    Total Energy =                       -509.2128390545624370
    Molecular point group: c1
  Basis Set: CC-PVTZ
  Basis Set:

  -Total Gradient:
     Atom            X                  Y                   Z
    ------   -----------------  -----------------  -----------------
       1       -0.000002858392     0.000007298079    -0.000003536004
       2        0.000008049252     0.000009934433    -0.000021019524
       3       -0.000002914905    -0.000054276366     0.000040011597
       4       -0.000001047324     0.000013441007    -0.000015181060
       5        0.000018924084    -0.000004760545    -0.000012061755
       6        0.000000715591    -0.000006846776     0.000004540021
       7       -0.000016014788     0.000044265733    -0.000024020179
       8        0.000001805998     0.000003764100     0.000004359369
       9       -0.001907734007     0.005416439275    -0.001171136716
      10       -0.000002431827    -0.000002243932     0.000001755499
      11        0.001350937852    -0.003826350979     0.002159605076
      12        0.000324051290    -0.001564855557    -0.006125297081
      13        0.000003306513     0.000000557791    -0.000003996548
      14        0.000236316590    -0.000104441565     0.005162661347
      15       -0.000011105937     0.000068075302     0.000003315955

  **** Optimization is complete! (in 7 steps) ****
    Final optimized geometry and variables:
    Molecular point group: c1

    Geometry (in Angstrom), charge = 0, multiplicity = 1:

    H            2.041865324986    -0.826224457174    -2.478331276497
    O            2.461301797217    -0.295526640041    -1.824846049202
    C            1.615340137829     0.028902951849    -0.833152422303
    C            2.113475804118     0.798899967957     0.208325676931
    C            0.297850197521    -0.382872875440    -0.817985905755
    H            3.142204575512     1.098362202848     0.182850294400
    C            1.292863496725     1.159136154304     1.252024674839
    H           -0.104244275918    -1.006647960515    -1.592160446639
    C           -0.497072608316     0.025327686598     0.230111479753
    H            1.690084755630     1.744748143152     2.057828519664
    C           -0.039307299928     0.777994911753     1.278320528711
    N           -1.882381028954    -0.447907165611     0.263211245436
    H           -0.693103226729     1.063512186767     2.076080875613
    O           -2.051975166127    -1.620557401737     0.237745755770
    O           -2.732754741212     0.371432742236     0.352602302929

  Mulliken Charges: (a.u.)
   Center  Symbol    Alpha    Beta     Spin     Total
       1     H     0.38453  0.38453  0.00000  0.23095
       2     O     4.16729  4.16729  0.00000 -0.33458
       3     C     2.84273  2.84273  0.00000  0.31454
       4     C     3.10465  3.10465  0.00000 -0.20929
       5     C     3.14099  3.14099  0.00000 -0.28197
       6     H     0.41399  0.41399  0.00000  0.17201
       7     C     3.05111  3.05111  0.00000 -0.10222
       8     H     0.42013  0.42013  0.00000  0.15974
       9     C     2.92610  2.92610  0.00000  0.14780
      10     H     0.41629  0.41629  0.00000  0.16741
      11     C     3.10818  3.10818  0.00000 -0.21636
      12     N     3.28272  3.28272  0.00000  0.43456
      13     H     0.41009  0.41009  0.00000  0.17983
      14     O     4.16592  4.16592  0.00000 -0.33184
      15     O     4.16529  4.16529  0.00000 -0.33058

   Total alpha = 36.00000, Total beta = 36.00000, Total charge = -0.00000

*** Psi4 exiting successfully. Buy a developer a beer!
