  ==> Input File <==

--------------------------------------------------------------------------
set {
	reference rhf
	basis 6-31G*
}

set_num_threads( 1 )
memory 2 gb

molecule MOL {
0 1

H	 2.591676	 2.013956	 0.335017
O	 3.341076	 1.666752	 -0.126416
C	 3.569581	 0.339145	 0.272707
C	 2.539767	 -0.640285	 -0.279495
H	 4.553106	 0.084646	 -0.100901
H	 3.608576	 0.269204	 1.359154
C	 2.928777	 -2.111401	 -0.114094
H	 1.589309	 -0.456333	 0.214628
H	 2.395727	 -0.420896	 -1.336135
C	 1.901015	 -3.067261	 -0.726349
H	 3.045818	 -2.333122	 0.943028
H	 3.899018	 -2.283973	 -0.580131
C	 2.283765	 -4.550474	 -0.663719
H	 0.940435	 -2.922470	 -0.235260
H	 1.752198	 -2.793896	 -1.768859
C	 2.340963	 -5.142257	 0.747309
H	 1.559663	 -5.115168	 -1.247339
H	 3.245059	 -4.694619	 -1.154608
C	 2.622616	 -6.646281	 0.751971
H	 1.395906	 -4.953182	 1.254485
H	 3.106956	 -4.639866	 1.333109
C	 2.686598	 -7.238330	 2.159468
H	 1.851893	 -7.158539	 0.180074
H	 3.561767	 -6.838053	 0.237088
H	 1.749740	 -7.091480	 2.689521
H	 2.885460	 -8.305182	 2.129214
H	 3.473365	 -6.772108	 2.745982

	symmetry c1
}
set optking {
	frozen_dihedral = ("
		14 10 7 4,
		14 10 13 16,
		10 7 4 8,
		10 13 16 20,
		20 16 19 22,
		4 3 2 1
	")
}

ee = energy('scf')
oeprop('DIPOLE', 'QUADRUPOLE', 'MULLIKEN_CHARGES')
f=open( 'psi4out.xyz', 'w' )
f.write( "27  " )
f.write( str(ee) + "\n" )
f.write( MOL.save_string_xyz() )
f.close()
--------------------------------------------------------------------------

    Molecular point group: c1

    Geometry (in Angstrom), charge = 0, multiplicity = 1:

       Center              X                  Y                   Z               Mass
    ------------   -----------------  -----------------  -----------------  -----------------
           H         -0.109289923727     4.987322093920     0.098307361220     1.007825032070
           O          0.640110076273     4.640118093920    -0.363125638780    15.994914619560
           C          0.868615076273     3.312511093920     0.035997361220    12.000000000000
           C         -0.161198923727     2.333081093920    -0.516204638780    12.000000000000
           H          1.852140076273     3.058012093920    -0.337610638780     1.007825032070
           H          0.907610076273     3.242570093920     1.122444361220     1.007825032070
           C          0.227811076273     0.861965093920    -0.350803638780    12.000000000000
           H         -1.111656923727     2.517033093920    -0.022081638780     1.007825032070
           H         -0.305238923727     2.552470093920    -1.572844638780     1.007825032070
           C         -0.799950923727    -0.093894906080    -0.963058638780    12.000000000000
           H          0.344852076273     0.640244093920     0.706318361220     1.007825032070
           H          1.198052076273     0.689393093920    -0.816840638780     1.007825032070
           C         -0.417200923727    -1.577107906080    -0.900428638780    12.000000000000
           H         -1.760530923727     0.050896093920    -0.471969638780     1.007825032070
           H         -0.948767923727     0.179470093920    -2.005568638780     1.007825032070
           C         -0.360002923727    -2.168890906080     0.510599361220    12.000000000000
           H         -1.141302923727    -2.141801906080    -1.484048638780     1.007825032070
           H          0.544093076273    -1.721252906080    -1.391317638780     1.007825032070
           C         -0.078349923727    -3.672914906080     0.515261361220    12.000000000000
           H         -1.305059923727    -1.979815906080     1.017775361220     1.007825032070
           H          0.405990076273    -1.666499906080     1.096399361220     1.007825032070
           C         -0.014367923727    -4.264963906080     1.922758361220    12.000000000000
           H         -0.849072923727    -4.185172906080    -0.056635638780     1.007825032070
           H          0.860801076273    -3.864686906080     0.000378361220     1.007825032070
           H         -0.951225923727    -4.118113906080     2.452811361220     1.007825032070
           H          0.184494076273    -5.331815906080     1.892504361220     1.007825032070
           H          0.772399076273    -3.798741906080     2.509272361220     1.007825032070

  Charge       = 0
  Multiplicity = 1
  Basis Set: 6-31G*
  Basis Set:

    Orbital Energies (a.u.)
    -----------------------

    Doubly Occupied:

       1A    -20.552581     2A    -11.266810     3A    -11.218467
       4A    -11.216183     5A    -11.215376     6A    -11.214649
       7A    -11.214539     8A    -11.213418     9A    -11.208965
      10A     -1.358837    11A     -1.094642    12A     -1.061653
      13A     -1.011132    14A     -0.945392    15A     -0.883269
      16A     -0.822094    17A     -0.803887    18A     -0.777403
      19A     -0.695092    20A     -0.646837    21A     -0.640245
      22A     -0.608539    23A     -0.605253    24A     -0.584434
      25A     -0.573622    26A     -0.554109    27A     -0.543375
      28A     -0.522054    29A     -0.508702    30A     -0.490831
      31A     -0.481780    32A     -0.475379    33A     -0.465419
      34A     -0.460444    35A     -0.457348    36A     -0.442837
      37A     -0.420233

  @DF-RHF Final Energy:  -388.28140745192280

   => Energetics <=

    Nuclear Repulsion Energy =            452.8159658500737237
    One-Electron Energy =               -1423.6828127919582130
    Two-Electron Energy =                 582.5854394899623685
    DFT Exchange-Correlation Energy =       0.0000000000000000
    Empirical Dispersion Energy =           0.0000000000000000
    PCM Polarization Energy =               0.0000000000000000
    EFP Energy =                            0.0000000000000000
    Total Energy =                       -388.2814074519220640

  Mulliken Charges: (a.u.)
   Center  Symbol    Alpha    Beta     Spin     Total
       1     H     0.28287  0.28287  0.00000  0.43427
       2     O     4.37045  4.37045  0.00000 -0.74089
       3     C     2.98996  2.98996  0.00000  0.02009
       4     C     3.16673  3.16673  0.00000 -0.33346
       5     H     0.41733  0.41733  0.00000  0.16533
       6     H     0.43189  0.43189  0.00000  0.13623
       7     C     3.16110  3.16110  0.00000 -0.32220
       8     H     0.42769  0.42769  0.00000  0.14461
       9     H     0.41392  0.41392  0.00000  0.17216
      10     C     3.15246  3.15246  0.00000 -0.30492
      11     H     0.42133  0.42133  0.00000  0.15734
      12     H     0.42195  0.42195  0.00000  0.15611
      13     C     3.15343  3.15343  0.00000 -0.30687
      14     H     0.42380  0.42380  0.00000  0.15240
      15     H     0.42053  0.42053  0.00000  0.15893
      16     C     3.15275  3.15275  0.00000 -0.30549
      17     H     0.42141  0.42141  0.00000  0.15719
      18     H     0.42349  0.42349  0.00000  0.15303
      19     C     3.15117  3.15117  0.00000 -0.30234
      20     H     0.42485  0.42485  0.00000  0.15029
      21     H     0.42245  0.42245  0.00000  0.15510
      22     C     3.23917  3.23917  0.00000 -0.47834
      23     H     0.42305  0.42305  0.00000  0.15389
      24     H     0.42290  0.42290  0.00000  0.15419
      25     H     0.42200  0.42200  0.00000  0.15600
      26     H     0.41926  0.41926  0.00000  0.16147
      27     H     0.42207  0.42207  0.00000  0.15587

   Total alpha = 37.00000, Total beta = 37.00000, Total charge =  0.00000
