                              Psi4 1.0.54 Driver

  ==> Input File <==

--------------------------------------------------------------------------
set {
	reference rhf
	basis cc-pvtz
}

set_num_threads( 4 )
memory 2 gb

molecule MOL {
0 1

H	 -2.475122	 -1.431742	 -0.575497
O	 -2.658848	 -0.704215	 -0.000460
C	 -1.605397	 0.107680	 0.001145
C	 -0.310616	 -0.658853	 0.000791
O	 -1.718351	 1.284629	 -0.000627
C	 0.926581	 0.227233	 0.000178
H	 -0.327628	 -1.313681	 -0.864448
H	 -0.327041	 -1.313334	 0.866298
C	 2.220156	 -0.582071	 -0.000088
H	 0.899945	 0.878221	 -0.866390
H	 0.900542	 0.878581	 0.866486
C	 3.466689	 0.296012	 -0.000457
H	 2.239073	 -1.234095	 -0.869382
H	 2.239505	 -1.233985	 0.869270
H	 3.493549	 0.935857	 -0.875887
H	 4.368821	 -0.304526	 -0.001199
H	 3.494559	 0.935166	 0.875458

	symmetry c1
}
set optking {
	frozen_dihedral = ("
		1 2 3 5
	")
}

ee,wfn = optimize('scf', return_wfn=True)
oeprop( wfn, 'DIPOLE', 'QUADRUPOLE', 'MULLIKEN_CHARGES')
f=open( 'psi4out.xyz', 'w' )
f.write( "17  " )
f.write( str(ee) + "\n" )
f.write( MOL.save_string_xyz() )
f.close()
--------------------------------------------------------------------------

    Molecular point group: c1
  Charge       = 0
  Multiplicity = 1
  Basis Set: CC-PVTZ
  Basis Set:
  @DF-RHF Final Energy:  -345.03344583115745
    Total Energy =                       -345.0334458311574508
    Molecular point group: c1
  Basis Set: CC-PVTZ
  Basis Set:
  Basis Set: CC-PVTZ
  Basis Set:
  @DF-RHF Final Energy:  -345.03468337527750
    Total Energy =                       -345.0346833752777229
  Basis Set: CC-PVTZ
  Basis Set:
  Basis Set: CC-PVTZ
  Basis Set:
  @DF-RHF Final Energy:  -345.03479615076157
    Total Energy =                       -345.0347961507616787
  Basis Set: CC-PVTZ
  Basis Set:
  Basis Set: CC-PVTZ
  Basis Set:
  @DF-RHF Final Energy:  -345.03468575696331
    Total Energy =                       -345.0346857569631993
  Basis Set: CC-PVTZ
  Basis Set:
  Basis Set: CC-PVTZ
  Basis Set:
  @DF-RHF Final Energy:  -345.03485756057006
    Total Energy =                       -345.0348575605701740
  Basis Set: CC-PVTZ
  Basis Set:
  Charge       = 0
  Multiplicity = 1
  Basis Set: CC-PVTZ
  Basis Set:

    Orbital Energies (a.u.)
    -----------------------

    Doubly Occupied:

       1A    -20.597185     2A    -20.542178     3A    -11.373349
       4A    -11.247977     5A    -11.225714     6A    -11.225008
       7A    -11.213757     8A     -1.467665     9A     -1.373287
      10A     -1.096529    11A     -1.020294    12A     -0.909050
      13A     -0.832683    14A     -0.805351    15A     -0.716585
      16A     -0.676678    17A     -0.662831    18A     -0.639303
      19A     -0.602256    20A     -0.585773    21A     -0.557880
      22A     -0.544044    23A     -0.515227    24A     -0.492851
      25A     -0.484739    26A     -0.478946    27A     -0.476308
      28A     -0.443875

  @DF-RHF Final Energy:  -345.03485846849600

   => Energetics <=

    Nuclear Repulsion Energy =            304.5001698341743008
    One-Electron Energy =               -1073.4554125789009049
    Two-Electron Energy =                 423.9203842762304930
    DFT Exchange-Correlation Energy =       0.0000000000000000
    Empirical Dispersion Energy =           0.0000000000000000
    PCM Polarization Energy =               0.0000000000000000
    EFP Energy =                            0.0000000000000000
    Total Energy =                       -345.0348584684960542
    Molecular point group: c1
  Basis Set: CC-PVTZ
  Basis Set:

  -Total Gradient:
     Atom            X                  Y                   Z
    ------   -----------------  -----------------  -----------------
       1       -0.002563893433     0.003639645461    -0.005277205618
       2        0.003263491832    -0.004676089982     0.003995545175
       3       -0.000787872728     0.000825214316     0.007262444213
       4       -0.000023060091     0.000005994118     0.000064661037
       5        0.000108668427     0.000194970604    -0.005987530929
       6       -0.000008611912     0.000016579654    -0.000028266696
       7       -0.000005070479     0.000008623246    -0.000028810099
       8        0.000006906966    -0.000002932309    -0.000026538699
       9        0.000007964787    -0.000003256545     0.000007833299
      10       -0.000003932952    -0.000007779324     0.000014149717
      11       -0.000000464882    -0.000000802115     0.000003887208
      12        0.000004267197    -0.000002307267    -0.000001832559
      13       -0.000002044292     0.000000895647     0.000000371187
      14        0.000002016009    -0.000000442037     0.000000530185
      15       -0.000000280727     0.000000338745    -0.000000090397
      16        0.000001311592     0.000001654702    -0.000000178813
      17        0.000000604677    -0.000000306915     0.000001031788

  **** Optimization is complete! (in 6 steps) ****
    Final optimized geometry and variables:
    Molecular point group: c1

    Geometry (in Angstrom), charge = 0, multiplicity = 1:

    H           -2.618086956084    -1.404608377948    -0.567422121781
    O           -2.715582825942    -0.660234449176     0.001062233569
    C           -1.613904484641     0.111263217736     0.012545186178
    C           -0.310897214098    -0.653450515899     0.011972386048
    O           -1.707042830955     1.282247497898     0.023799585516
    C            0.925681344985     0.233586328849    -0.001508104601
    H           -0.313756986264    -1.316829348089    -0.850712005012
    H           -0.319238503485    -1.300248052802     0.883999194774
    C            2.221684917363    -0.571866738113     0.001017986526
    H            0.893067922280     0.877488206976    -0.872951566663
    H            0.898021099365     0.891104091591     0.859479983929
    C            3.465027876852     0.310641728864    -0.009205988127
    H            2.241406606151    -1.230458373092    -0.863572976271
    H            2.245620925000    -1.216813058094     0.875450484591
    H            3.487488582688     0.943632110352    -0.889651900393
    H            4.369128041707    -0.286803652702    -0.007256656622
    H            3.492267736412     0.956558293103     0.861585795997

  Mulliken Charges: (a.u.)
   Center  Symbol    Alpha    Beta     Spin     Total
       1     H     0.38814  0.38814  0.00000  0.22372
       2     O     4.15568  4.15568  0.00000 -0.31136
       3     C     2.80323  2.80323  0.00000  0.39353
       4     C     3.12393  3.12393  0.00000 -0.24786
       5     O     4.16819  4.16819  0.00000 -0.33637
       6     C     3.08539  3.08539  0.00000 -0.17079
       7     H     0.45209  0.45209  0.00000  0.09582
       8     H     0.43568  0.43568  0.00000  0.12864
       9     C     3.08639  3.08639  0.00000 -0.17279
      10     H     0.44502  0.44502  0.00000  0.10995
      11     H     0.44280  0.44280  0.00000  0.11439
      12     C     3.14930  3.14930  0.00000 -0.29860
      13     H     0.45566  0.45566  0.00000  0.08868
      14     H     0.45460  0.45460  0.00000  0.09081
      15     H     0.45333  0.45333  0.00000  0.09334
      16     H     0.44776  0.44776  0.00000  0.10448
      17     H     0.45280  0.45280  0.00000  0.09440

   Total alpha = 28.00000, Total beta = 28.00000, Total charge =  0.00000

*** Psi4 exiting successfully. Buy a developer a beer!
