  ==> Input File <==

--------------------------------------------------------------------------
set {
	reference rhf
	basis 6-31G*
}

set_num_threads( 4 )
memory 2 gb

molecule MOL {
0 1

H	 2.591676	 2.013956	 0.335017
O	 3.341076	 1.666752	 -0.126416
C	 3.569581	 0.339145	 0.272707
C	 2.539767	 -0.640285	 -0.279495
H	 4.553106	 0.084646	 -0.100901
H	 3.608576	 0.269204	 1.359154
C	 1.115811	 -0.397273	 0.226630
H	 2.556196	 -0.582511	 -1.364741
H	 2.852081	 -1.648031	 -0.010655
C	 0.115918	 -1.429151	 -0.302766
H	 0.797950	 0.599468	 -0.066350
H	 1.109961	 -0.420744	 1.316472
C	 -0.877474	 -1.956592	 0.739021
H	 -0.433370	 -0.999373	 -1.138481
H	 0.670920	 -2.272967	 -0.707301
C	 -1.871364	 -0.917691	 1.265657
H	 -1.436753	 -2.776620	 0.293402
H	 -0.327415	 -2.385865	 1.575081
C	 -2.907024	 -1.514263	 2.221139
H	 -2.385039	 -0.453763	 0.424812
H	 -1.341092	 -0.118198	 1.777443
C	 -3.896421	 -0.478141	 2.753311
H	 -3.452802	 -2.305607	 1.711838
H	 -2.395254	 -1.986760	 3.057036
H	 -4.448074	 -0.010313	 1.942731
H	 -4.618152	 -0.931814	 3.425562
H	 -3.384492	 0.308652	 3.300348

	symmetry c1
}
set optking {
	frozen_dihedral = ("
		14 10 7 4
	")
}

ee = optimize('scf')
oeprop('DIPOLE', 'QUADRUPOLE', 'MULLIKEN_CHARGES')
f=open( 'psi4out.xyz', 'w' )
f.write( "27  " )
f.write( str(ee) + "\n" )
f.write( MOL.save_string_xyz() )
f.close()
--------------------------------------------------------------------------

    Molecular point group: c1
  Charge       = 0
  Multiplicity = 1
  Basis Set: 6-31G*
  Basis Set:
  @DF-RHF Final Energy:  -388.27766841836001
    Total Energy =                       -388.2776684183595535
    Molecular point group: c1
  Basis Set: 6-31G*
  Basis Set:
  Basis Set: 6-31G*
  Basis Set:
  @DF-RHF Final Energy:  -388.27797716502727
    Total Energy =                       -388.2779771650273233
  Basis Set: 6-31G*
  Basis Set:
  Basis Set: 6-31G*
  Basis Set:
  @DF-RHF Final Energy:  -388.27793210537965
    Total Energy =                       -388.2779321053795911
  Basis Set: 6-31G*
  Basis Set:
  Basis Set: 6-31G*
  Basis Set:
  @DF-RHF Final Energy:  -388.27809166435236
    Total Energy =                       -388.2780916643524733
  Basis Set: 6-31G*
  Basis Set:
  Basis Set: 6-31G*
  Basis Set:
  @DF-RHF Final Energy:  -388.27807622333364
    Total Energy =                       -388.2780762233335281
  Basis Set: 6-31G*
  Basis Set:
  Basis Set: 6-31G*
  Basis Set:
  @DF-RHF Final Energy:  -388.27809810918177
    Total Energy =                       -388.2780981091809736
  Basis Set: 6-31G*
  Basis Set:
  Charge       = 0
  Multiplicity = 1
  Basis Set: 6-31G*
  Basis Set:

    Orbital Energies (a.u.)
    -----------------------

    Doubly Occupied:

       1A    -20.552229     2A    -11.266934     3A    -11.220227
       4A    -11.217063     5A    -11.216458     6A    -11.215750
       7A    -11.215597     8A    -11.214671     9A    -11.209886
      10A     -1.359001    11A     -1.094888    12A     -1.060939
      13A     -1.011787    14A     -0.947492    15A     -0.888345
      16A     -0.820878    17A     -0.802893    18A     -0.777092
      19A     -0.693020    20A     -0.656318    21A     -0.634260
      22A     -0.614859    23A     -0.594672    24A     -0.588054
      25A     -0.580371    26A     -0.550101    27A     -0.545899
      28A     -0.530174    29A     -0.503736    30A     -0.497398
      31A     -0.485131    32A     -0.474705    33A     -0.466174
      34A     -0.459171    35A     -0.453873    36A     -0.441735
      37A     -0.422617

  @DF-RHF Final Energy:  -388.27809780400588

   => Energetics <=

    Nuclear Repulsion Energy =            459.2200359423869145
    One-Electron Energy =               -1436.4274732134178976
    Two-Electron Energy =                 588.9293394670246471
    DFT Exchange-Correlation Energy =       0.0000000000000000
    Empirical Dispersion Energy =           0.0000000000000000
    PCM Polarization Energy =               0.0000000000000000
    EFP Energy =                            0.0000000000000000
    Total Energy =                       -388.2780978040063928
    Molecular point group: c1
  Basis Set: 6-31G*
  Basis Set:

  -Total Gradient:
     Atom            X                  Y                   Z
    ------   -----------------  -----------------  -----------------
       1       -0.000014985143    -0.000012366411     0.000003648690
       2        0.000002018136    -0.000000459915    -0.000010856027
       3       -0.000001618781     0.000012867858    -0.000011049603
       4        0.000497289816    -0.001616652472     0.002060066764
       5        0.000006013042     0.000007477064    -0.000000799503
       6       -0.000000902318    -0.000007008766    -0.000004043171
       7       -0.001304835026     0.002554674536    -0.002286140823
       8       -0.000010661310    -0.000020557841     0.000002533435
       9        0.000012663045     0.000009938018     0.000021209436
      10        0.003322761600    -0.002042439643    -0.002154085334
      11        0.000048688525     0.000012680279     0.000005293835
      12        0.000000429340    -0.000020209791     0.000018191468
      13       -0.000024087695    -0.000014045003    -0.000039901427
      14       -0.002553118404     0.001122201466     0.002395763390
      15       -0.000018144722    -0.000005374820    -0.000002017934
      16        0.000017147832     0.000020390416     0.000008771536
      17       -0.000005898882    -0.000016603294    -0.000001719214
      18        0.000012085112     0.000017378767    -0.000020714538
      19        0.000013333177     0.000002066832     0.000008355138
      20        0.000003263283     0.000014746284     0.000007874178
      21        0.000008985698    -0.000011840364     0.000009732274
      22       -0.000015168077    -0.000006125286    -0.000020959694
      23        0.000011356825    -0.000009779080     0.000006169558
      24       -0.000001632525     0.000010916622     0.000011523040
      25       -0.000002860636     0.000008338748    -0.000000455684
      26       -0.000004087200    -0.000001872442    -0.000005980587
      27        0.000001965289    -0.000008341763    -0.000000409201

  **** Optimization is complete! (in 7 steps) ****
    Final optimized geometry and variables:
    Molecular point group: c1

    Geometry (in Angstrom), charge = 0, multiplicity = 1:

    H            2.373882964797     2.565654210573    -0.400374524592
    O            3.134046626807     2.234945577585    -0.856226478915
    C            3.386163422144     0.911212436841    -0.458686280218
    C            2.379179915459    -0.086931428654    -1.018670540806
    H            4.376437583345     0.677184648532    -0.827850518761
    H            3.421254584437     0.839322088884     0.627913793087
    C            0.950990551568     0.111589841744    -0.503461920288
    H            2.393447592446    -0.019453129437    -2.103719417151
    H            2.712780982065    -1.090000924604    -0.758951214984
    C           -0.048970739659    -0.913405451016    -1.078071907533
    H            0.612858983228     1.118944189883    -0.729051466910
    H            0.968281193613     0.030794671400     0.582699567471
    C           -1.058026914424    -1.447184365108    -0.053926177438
    H           -0.608596816045    -0.459548949608    -1.892400195772
    H            0.493756945220    -1.754591119947    -1.500018606050
    C           -2.027041109742    -0.389022265012     0.479263156918
    H           -1.633150890973    -2.247531172122    -0.515120084690
    H           -0.520502229702    -1.899110979391     0.778380322183
    C           -3.041456957271    -0.951251430846     1.477136517263
    H           -2.559235652213     0.060969059843    -0.357710261781
    H           -1.472050572214     0.416966215609     0.954882618902
    C           -4.016700141556     0.104091004435     1.997563396586
    H           -3.600120461957    -1.757450823260     1.006517112905
    H           -2.511538669263    -1.397458558707     2.316103486899
    H           -4.586688141523     0.545847558738     1.185036349218
    H           -4.723044264817    -0.325361747328     2.701302108521
    H           -3.490874373053     0.907516766019     2.505912269122

  Mulliken Charges: (a.u.)
   Center  Symbol    Alpha    Beta     Spin     Total
       1     H     0.28005  0.28005  0.00000  0.43989
       2     O     4.37089  4.37089  0.00000 -0.74178
       3     C     2.99766  2.99766  0.00000  0.00467
       4     C     3.16299  3.16299  0.00000 -0.32597
       5     H     0.41439  0.41439  0.00000  0.17122
       6     H     0.43226  0.43226  0.00000  0.13549
       7     C     3.16322  3.16322  0.00000 -0.32644
       8     H     0.41465  0.41465  0.00000  0.17069
       9     H     0.42400  0.42400  0.00000  0.15200
      10     C     3.15448  3.15448  0.00000 -0.30896
      11     H     0.42331  0.42331  0.00000  0.15337
      12     H     0.42348  0.42348  0.00000  0.15304
      13     C     3.15498  3.15498  0.00000 -0.30997
      14     H     0.41999  0.41999  0.00000  0.16003
      15     H     0.41822  0.41822  0.00000  0.16357
      16     C     3.15224  3.15224  0.00000 -0.30449
      17     H     0.42188  0.42188  0.00000  0.15623
      18     H     0.42448  0.42448  0.00000  0.15104
      19     C     3.15112  3.15112  0.00000 -0.30225
      20     H     0.42420  0.42420  0.00000  0.15159
      21     H     0.42321  0.42321  0.00000  0.15359
      22     C     3.23919  3.23919  0.00000 -0.47838
      23     H     0.42275  0.42275  0.00000  0.15449
      24     H     0.42326  0.42326  0.00000  0.15348
      25     H     0.42161  0.42161  0.00000  0.15679
      26     H     0.41913  0.41913  0.00000  0.16174
      27     H     0.42234  0.42234  0.00000  0.15531

   Total alpha = 37.00000, Total beta = 37.00000, Total charge =  0.00000
