  ==> Input File <==

--------------------------------------------------------------------------
set {
	reference rhf
	basis 6-31G*
}

set_num_threads( 1 )
memory 2 gb

molecule MOL {
0 1

H	 -3.092134	 0.267536	 0.253564
O	 -2.347518	 -0.290803	 0.079804
C	 -1.184022	 0.487508	 -0.006784
C	 0.062599	 -0.378592	 0.031606
H	 -1.176523	 1.099369	 -0.904519
H	 -1.187323	 1.153111	 0.844927
O	 1.171513	 0.459272	 -0.058250
H	 0.050699	 -1.089204	 -0.797170
H	 0.078739	 -0.954914	 0.954740
C	 2.397842	 -0.198080	 -0.002151
H	 2.508049	 -0.905315	 -0.822092
H	 3.173794	 0.550865	 -0.078850
H	 2.517602	 -0.735921	 0.936026

	symmetry c1
}
set optking {
	frozen_dihedral = ("
		8 4 3 5,
		10 7 4 8,
		4 7 10 13
	")
}

ee = energy('scf')
oeprop('DIPOLE', 'QUADRUPOLE', 'MULLIKEN_CHARGES')
f=open( 'psi4out.xyz', 'w' )
f.write( "13  " )
f.write( str(ee) + "\n" )
f.write( MOL.save_string_xyz() )
f.close()
--------------------------------------------------------------------------

    Molecular point group: c1

    Geometry (in Angstrom), charge = 0, multiplicity = 1:

       Center              X                  Y                   Z               Mass
    ------------   -----------------  -----------------  -----------------  -----------------
           H         -3.084275105642     0.254316198782     0.240330264310     1.007825032070
           O         -2.339659105642    -0.304022801218     0.066570264310    15.994914619560
           C         -1.176163105642     0.474288198782    -0.020017735690    12.000000000000
           C          0.070457894358    -0.391811801218     0.018372264310    12.000000000000
           H         -1.168664105642     1.086149198782    -0.917752735690     1.007825032070
           H         -1.179464105642     1.139891198782     0.831693264310     1.007825032070
           O          1.179371894358     0.446052198782    -0.071483735690    15.994914619560
           H          0.058557894358    -1.102423801218    -0.810403735690     1.007825032070
           H          0.086597894358    -0.968133801218     0.941506264310     1.007825032070
           C          2.405700894358    -0.211299801218    -0.015384735690    12.000000000000
           H          2.515907894358    -0.918534801218    -0.835325735690     1.007825032070
           H          3.181652894358     0.537645198782    -0.092083735690     1.007825032070
           H          2.525460894358    -0.749140801218     0.922792264310     1.007825032070

  Charge       = 0
  Multiplicity = 1
  Basis Set: 6-31G*
  Basis Set:

    Orbital Energies (a.u.)
    -----------------------

    Doubly Occupied:

       1A    -20.560696     2A    -20.556637     3A    -11.269983
       4A    -11.268623     5A    -11.268546     6A     -1.386785
       7A     -1.362863     8A     -1.018023     9A     -0.911823
      10A     -0.832306    11A     -0.706126    12A     -0.684085
      13A     -0.643884    14A     -0.636285    15A     -0.620551
      16A     -0.551891    17A     -0.540159    18A     -0.496170
      19A     -0.469161    20A     -0.438508    21A     -0.419039

  @DF-RHF Final Energy:  -267.94929673604372

   => Energetics <=

    Nuclear Repulsion Energy =            189.8368835036492044
    One-Electron Energy =                -742.2880263763021276
    Two-Electron Energy =                 284.5018461366091174
    DFT Exchange-Correlation Energy =       0.0000000000000000
    Empirical Dispersion Energy =           0.0000000000000000
    PCM Polarization Energy =               0.0000000000000000
    EFP Energy =                            0.0000000000000000
    Total Energy =                       -267.9492967360437774

  Mulliken Charges: (a.u.)
   Center  Symbol    Alpha    Beta     Spin     Total
       1     H     0.27768  0.27768  0.00000  0.44464
       2     O     4.37581  4.37581  0.00000 -0.75162
       3     C     2.99921  2.99921  0.00000  0.00158
       4     C     2.99420  2.99420  0.00000  0.01160
       5     H     0.42292  0.42292  0.00000  0.15417
       6     H     0.42595  0.42595  0.00000  0.14810
       7     O     4.30820  4.30820  0.00000 -0.61639
       8     H     0.42438  0.42438  0.00000  0.15124
       9     H     0.42475  0.42475  0.00000  0.15049
      10     C     3.07969  3.07969  0.00000 -0.15938
      11     H     0.42800  0.42800  0.00000  0.14400
      12     H     0.41111  0.41111  0.00000  0.17778
      13     H     0.42810  0.42810  0.00000  0.14379

   Total alpha = 21.00000, Total beta = 21.00000, Total charge =  0.00000
