  ==> Input File <==

--------------------------------------------------------------------------
set {
	reference rhf
	basis cc-pvtz
}

set_num_threads( 4 )
memory 2 gb

molecule MOL {
0 1

H	 0.690566	 2.126121	 1.344077
C	 1.028649	 1.285922	 0.722301
C	 0.062554	 0.862911	 -0.350953
O	 2.084424	 0.791957	 0.918496
C	 -1.339253	 0.577611	 0.196911
H	 0.471812	 0.001708	 -0.863134
H	 0.008133	 1.682984	 -1.063408
C	 -1.813142	 -0.849710	 -0.061612
H	 -2.032833	 1.276441	 -0.256032
H	 -1.357249	 0.782269	 1.263793
H	 -1.839268	 -1.063526	 -1.124230
H	 -2.810118	 -1.001930	 0.334000
H	 -1.159274	 -1.579980	 0.402282

	symmetry c1
}
set optking {
	frozen_dihedral = ("
		6 3 5 9
	")
}

ee = optimize('scf')
oeprop('DIPOLE', 'QUADRUPOLE', 'MULLIKEN_CHARGES')
f=open( 'psi4out.xyz', 'w' )
f.write( "13  " )
f.write( str(ee) + "\n" )
f.write( MOL.save_string_xyz() )
f.close()
--------------------------------------------------------------------------

    Molecular point group: c1
  Charge       = 0
  Multiplicity = 1
  Basis Set: CC-PVTZ
  Basis Set:
  @DF-RHF Final Energy:  -231.06586678408470
    Total Energy =                       -231.0658667840846476
    Molecular point group: c1
  Basis Set: CC-PVTZ
  Basis Set:
  Basis Set: CC-PVTZ
  Basis Set:
  @DF-RHF Final Energy:  -231.06574249482634
    Total Energy =                       -231.0657424948264520
  Basis Set: CC-PVTZ
  Basis Set:
  Basis Set: CC-PVTZ
  Basis Set:
  @DF-RHF Final Energy:  -231.06274967812919
    Total Energy =                       -231.0627496781292507
  Basis Set: CC-PVTZ
  Basis Set:
  Basis Set: CC-PVTZ
  Basis Set:
  @DF-RHF Final Energy:  -231.06618590615182
    Total Energy =                       -231.0661859061519010
  Basis Set: CC-PVTZ
  Basis Set:
  Basis Set: CC-PVTZ
  Basis Set:
  @DF-RHF Final Energy:  -231.06621446617063
    Total Energy =                       -231.0662144661705497
  Basis Set: CC-PVTZ
  Basis Set:
  Basis Set: CC-PVTZ
  Basis Set:
  @DF-RHF Final Energy:  -231.06621685327295
    Total Energy =                       -231.0662168532730334
  Basis Set: CC-PVTZ
  Basis Set:
  Charge       = 0
  Multiplicity = 1
  Basis Set: CC-PVTZ
  Basis Set:

    Orbital Energies (a.u.)
    -----------------------

    Doubly Occupied:

       1A    -20.552247     2A    -11.321999     3A    -11.237235
       4A    -11.234487     5A    -11.220608     6A     -1.407430
       7A     -1.085004     8A     -0.976696     9A     -0.841350
      10A     -0.795598    11A     -0.672808    12A     -0.648631
      13A     -0.632385    14A     -0.586575    15A     -0.559653
      16A     -0.542873    17A     -0.502430    18A     -0.496556
      19A     -0.481419    20A     -0.413261

  @DF-RHF Final Energy:  -231.06621816526931

   => Energetics <=

    Nuclear Repulsion Energy =            171.6212212508958430
    One-Electron Energy =                -652.9563933974395695
    Two-Electron Energy =                 250.2689539812742794
    DFT Exchange-Correlation Energy =       0.0000000000000000
    Empirical Dispersion Energy =           0.0000000000000000
    PCM Polarization Energy =               0.0000000000000000
    EFP Energy =                            0.0000000000000000
    Total Energy =                       -231.0662181652694755
    Molecular point group: c1
  Basis Set: CC-PVTZ
  Basis Set:

  -Total Gradient:
     Atom            X                  Y                   Z
    ------   -----------------  -----------------  -----------------
       1        0.000009870793    -0.000014488014     0.000013617720
       2        0.000031569770     0.000007986656    -0.000033663905
       3       -0.000334430905     0.000368633569    -0.000610287133
       4       -0.000000448562     0.000011992758     0.000029922764
       5       -0.000079005081    -0.000578925164    -0.000497209085
       6        0.000269356527    -0.000209506002     0.000589218847
       7       -0.000003092553    -0.000002196967    -0.000006933486
       8        0.000000667294    -0.000011108578     0.000019224198
       9        0.000094255569     0.000450863016     0.000502725935
      10        0.000012021969    -0.000013434593    -0.000009018990
      11        0.000005273862     0.000007983729     0.000007079517
      12       -0.000001478586    -0.000004950300    -0.000006189219
      13       -0.000004560096    -0.000012850111     0.000001512835

  **** Optimization is complete! (in 7 steps) ****
    Final optimized geometry and variables:
    Molecular point group: c1

    Geometry (in Angstrom), charge = 0, multiplicity = 1:

    H            0.688142158466     1.585767460371     1.075399690492
    C            1.023498719952     0.757856641651     0.436802129227
    C            0.058798561679     0.356529053035    -0.646275048126
    O            2.074102081995     0.251116650710     0.627824890776
    C           -1.358952372139     0.073298032145    -0.098927790952
    H            0.471949414215    -0.505484682801    -1.151849932183
    H            0.030412153397     1.174794057314    -1.359905388027
    C           -1.812024611058    -1.362890357177    -0.341625100342
    H           -2.070032442321     0.758186780178    -0.544129909257
    H           -1.387317452099     0.274339234352     0.967984963326
    H           -1.844715107523    -1.586807428924    -1.402005990694
    H           -2.802140590949    -1.531141917108     0.065172352436
    H           -1.134251931587    -2.068901649232     0.125043557933

  Mulliken Charges: (a.u.)
   Center  Symbol    Alpha    Beta     Spin     Total
       1     H     0.46557  0.46557  0.00000  0.06885
       2     C     2.90370  2.90370  0.00000  0.19259
       3     C     3.08693  3.08693  0.00000 -0.17386
       4     O     4.16494  4.16494  0.00000 -0.32987
       5     C     3.09433  3.09433  0.00000 -0.18867
       6     H     0.44304  0.44304  0.00000  0.11392
       7     H     0.44454  0.44454  0.00000  0.11092
       8     C     3.14523  3.14523  0.00000 -0.29046
       9     H     0.44698  0.44698  0.00000  0.10605
      10     H     0.45483  0.45483  0.00000  0.09034
      11     H     0.45259  0.45259  0.00000  0.09482
      12     H     0.44766  0.44766  0.00000  0.10467
      13     H     0.44965  0.44965  0.00000  0.10070

   Total alpha = 20.00000, Total beta = 20.00000, Total charge =  0.00000
