  ==> Input File <==

--------------------------------------------------------------------------
set {
	reference rhf
	basis 6-31G*
}

set_num_threads( 4 )
memory 2 gb

molecule MOL {
0 1

H	 2.719666	 -0.120213	 0.808742
O	 1.874755	 -0.557481	 0.850075
C	 1.050492	 0.053836	 0.000068
C	 -0.318135	 -0.576402	 0.000164
O	 1.394783	 0.980355	 -0.658736
C	 -1.454360	 0.441875	 -0.000474
H	 -0.374042	 -1.230163	 -0.866135
H	 -0.374274	 -1.229227	 0.867154
C	 -2.826123	 -0.230780	 0.000056
H	 -1.357605	 1.085198	 -0.868380
H	 -1.357504	 1.086451	 0.866496
H	 -2.959731	 -0.858053	 -0.876869
H	 -3.619374	 0.509403	 -0.000080
H	 -2.959371	 -0.857318	 0.877556

	symmetry c1
}
set optking {
	frozen_dihedral = ("
		2 3 4 7
	")
}

ee = optimize('scf')
oeprop('DIPOLE', 'QUADRUPOLE', 'MULLIKEN_CHARGES')
f=open( 'psi4out.xyz', 'w' )
f.write( "14  " )
f.write( str(ee) + "\n" )
f.write( MOL.save_string_xyz() )
f.close()
--------------------------------------------------------------------------

    Molecular point group: c1
  Charge       = 0
  Multiplicity = 1
  Basis Set: 6-31G*
  Basis Set:
  @DF-RHF Final Energy:  -305.87924433958824
    Total Energy =                       -305.8792443395882970
    Molecular point group: c1
  Basis Set: 6-31G*
  Basis Set:
  Basis Set: 6-31G*
  Basis Set:
  @DF-RHF Final Energy:  -305.87967093935208
    Total Energy =                       -305.8796709393517403
  Basis Set: 6-31G*
  Basis Set:
  Basis Set: 6-31G*
  Basis Set:
  @DF-RHF Final Energy:  -305.87960536063923
    Total Energy =                       -305.8796053606392320
  Basis Set: 6-31G*
  Basis Set:
  Basis Set: 6-31G*
  Basis Set:
  @DF-RHF Final Energy:  -305.87973177306367
    Total Energy =                       -305.8797317730636678
  Basis Set: 6-31G*
  Basis Set:
  Charge       = 0
  Multiplicity = 1
  Basis Set: 6-31G*
  Basis Set:

    Orbital Energies (a.u.)
    -----------------------

    Doubly Occupied:

       1A    -20.614990     2A    -20.550006     3A    -11.381684
       4A    -11.240550     5A    -11.229087     6A    -11.218293
       7A     -1.475684     8A     -1.365584     9A     -1.083650
      10A     -0.979161    11A     -0.856431    12A     -0.796935
      13A     -0.701860    14A     -0.688408    15A     -0.657754
      16A     -0.622324    17A     -0.593598    18A     -0.571830
      19A     -0.548650    20A     -0.508651    21A     -0.492744
      22A     -0.485599    23A     -0.473913    24A     -0.442574

  @DF-RHF Final Energy:  -305.87973235856646

   => Energetics <=

    Nuclear Repulsion Energy =            239.9510817770001552
    One-Electron Energy =                -892.5017118411069532
    Two-Electron Energy =                 346.6708977055403693
    DFT Exchange-Correlation Energy =       0.0000000000000000
    Empirical Dispersion Energy =           0.0000000000000000
    PCM Polarization Energy =               0.0000000000000000
    EFP Energy =                            0.0000000000000000
    Total Energy =                       -305.8797323585664572
    Molecular point group: c1
  Basis Set: 6-31G*
  Basis Set:

  -Total Gradient:
     Atom            X                  Y                   Z
    ------   -----------------  -----------------  -----------------
       1        0.000020494959    -0.000020931758    -0.000027005225
       2       -0.000199847719     0.000537077475     0.000754907885
       3        0.000183329663    -0.000476735586    -0.001184088758
       4        0.000344678860    -0.000738168445     0.000866082410
       5       -0.000005438712    -0.000060779742     0.000114069004
       6        0.000024976241    -0.000001751280     0.000020551094
       7       -0.000380678540     0.000760806603    -0.000534813830
       8        0.000018452213     0.000005075032    -0.000004828718
       9       -0.000003925687    -0.000013338894    -0.000010140646
      10       -0.000009852390     0.000010215534     0.000005032893
      11       -0.000000081445     0.000000858966    -0.000001581840
      12        0.000000284714    -0.000010215239     0.000001376149
      13        0.000013411408     0.000004569851    -0.000003627420
      14       -0.000005803575     0.000003317481     0.000004067001

  **** Optimization is complete! (in 5 steps) ****
    Final optimized geometry and variables:
    Molecular point group: c1

    Geometry (in Angstrom), charge = 0, multiplicity = 1:

    H            2.765743461105    -0.124369269093     0.680332253120
    O            1.926982140727    -0.566344970756     0.772863927292
    C            1.053580002894     0.034746746025    -0.031461255329
    C           -0.309653417041    -0.609897926194     0.002574828894
    O            1.351426406604     0.971226088798    -0.700185379678
    C           -1.441175385510     0.420634328794    -0.029862835560
    H           -0.372405021861    -1.245456101557    -0.877904045824
    H           -0.381193300874    -1.252905804815     0.870782632696
    C           -2.817587788631    -0.240264102883    -0.070155213722
    H           -1.308141324586     1.061414257418    -0.893261790935
    H           -1.369589203853     1.060574385078     0.845406726562
    H           -2.929481433010    -0.862029231057    -0.953890795617
    H           -3.604086098856     0.506850049028    -0.090314109470
    H           -2.981012698727    -0.869246253382     0.800231346235

  Mulliken Charges: (a.u.)
   Center  Symbol    Alpha    Beta     Spin     Total
       1     H     0.26823  0.26823  0.00000  0.46355
       2     O     4.34933  4.34933  0.00000 -0.69866
       3     C     2.62271  2.62271  0.00000  0.75458
       4     C     3.20943  3.20943  0.00000 -0.41886
       5     O     4.28000  4.28000  0.00000 -0.56000
       6     C     3.15846  3.15846  0.00000 -0.31692
       7     H     0.39869  0.39869  0.00000  0.20262
       8     H     0.39880  0.39880  0.00000  0.20239
       9     C     3.24218  3.24218  0.00000 -0.48436
      10     H     0.40222  0.40222  0.00000  0.19555
      11     H     0.41553  0.41553  0.00000  0.16893
      12     H     0.41977  0.41977  0.00000  0.16047
      13     H     0.41444  0.41444  0.00000  0.17113
      14     H     0.42021  0.42021  0.00000  0.15958

   Total alpha = 24.00000, Total beta = 24.00000, Total charge = -0.00000
