                              Psi4 1.0.54 Driver

  ==> Input File <==

--------------------------------------------------------------------------
set {
	reference rhf
	basis cc-pvtz
}

set_num_threads( 4 )
memory 2 gb

molecule MOL {
0 1

H	 -0.939693	 0.000281	 1.681345
O	 -0.046262	 -0.000157	 1.387678
C	 -0.000837	 0.000006	 -0.025491
C	 0.735549	 1.246171	 -0.513300
C	 0.697072	 -1.267522	 -0.514820
C	 -1.454976	 0.022550	 -0.476225
H	 0.755030	 1.292549	 -1.596011
H	 1.763442	 1.247532	 -0.163294
H	 0.250922	 2.139044	 -0.138631
H	 0.715087	 -1.313185	 -1.597584
H	 1.724460	 -1.300744	 -0.164902
H	 0.185376	 -2.145605	 -0.141186
H	 -1.524432	 0.024231	 -1.557641
H	 -1.951103	 0.906928	 -0.096824
H	 -1.977981	 -0.846639	 -0.097820

	symmetry c1
}
set optking {
	frozen_dihedral = ("
		4 3 2 1
	")
}

ee,wfn = optimize('scf', return_wfn=True)
oeprop( wfn, 'DIPOLE', 'QUADRUPOLE', 'MULLIKEN_CHARGES')
f=open( 'psi4out.xyz', 'w' )
f.write( "15  " )
f.write( str(ee) + "\n" )
f.write( MOL.save_string_xyz() )
f.close()
--------------------------------------------------------------------------

    Molecular point group: c1
  Charge       = 0
  Multiplicity = 1
  Basis Set: CC-PVTZ
  Basis Set:
  @DF-RHF Final Energy:  -232.24279843144464
    Total Energy =                       -232.2427984314447258
    Molecular point group: c1
  Basis Set: CC-PVTZ
  Basis Set:
  Basis Set: CC-PVTZ
  Basis Set:
  @DF-RHF Final Energy:  -232.22174108705241
    Total Energy =                       -232.2217410870525214
  Basis Set: CC-PVTZ
  Basis Set:
  Basis Set: CC-PVTZ
  Basis Set:
  @DF-RHF Final Energy:  -232.24414621538068
    Total Energy =                       -232.2441462153807379
  Basis Set: CC-PVTZ
  Basis Set:
  Basis Set: CC-PVTZ
  Basis Set:
  @DF-RHF Final Energy:  -232.24471025867828
    Total Energy =                       -232.2447102586781966
  Basis Set: CC-PVTZ
  Basis Set:
  Basis Set: CC-PVTZ
  Basis Set:
  @DF-RHF Final Energy:  -232.24470081405488
    Total Energy =                       -232.2447008140549087
  Basis Set: CC-PVTZ
  Basis Set:
  Charge       = 0
  Multiplicity = 1
  Basis Set: CC-PVTZ
  Basis Set:

    Orbital Energies (a.u.)
    -----------------------

    Doubly Occupied:

       1A    -20.540247     2A    -11.281179     3A    -11.216436
       4A    -11.203463     5A    -11.203436     6A     -1.362761
       7A     -1.065735     8A     -0.946390     9A     -0.936474
      10A     -0.778565    11A     -0.671831    12A     -0.624561
      13A     -0.622800    14A     -0.576417    15A     -0.557365
      16A     -0.534844    17A     -0.517019    18A     -0.511358
      19A     -0.503085    20A     -0.458272    21A     -0.426422

  @DF-RHF Final Energy:  -232.24472265466659

   => Energetics <=

    Nuclear Repulsion Energy =            200.5602080326536907
    One-Electron Energy =                -712.5325405625303574
    Two-Electron Energy =                 279.7276098752104190
    DFT Exchange-Correlation Energy =       0.0000000000000000
    Empirical Dispersion Energy =           0.0000000000000000
    PCM Polarization Energy =               0.0000000000000000
    EFP Energy =                            0.0000000000000000
    Total Energy =                       -232.2447226546662478
    Molecular point group: c1
  Basis Set: CC-PVTZ
  Basis Set:

  -Total Gradient:
     Atom            X                  Y                   Z
    ------   -----------------  -----------------  -----------------
       1       -0.000016916355    -0.000039198566    -0.000049103090
       2        0.000020721993     0.000045645701     0.000023836701
       3       -0.000039657716    -0.000038800769     0.000141861994
       4       -0.000020108117    -0.000099121270    -0.000037165127
       5       -0.000029421666     0.000129920431     0.000048439241
       6       -0.000087662853     0.000004342873     0.000028150048
       7        0.000022673760     0.000078582083    -0.000174874498
       8        0.000147333392    -0.000025699730     0.000087392865
       9       -0.000064967114     0.000053540671     0.000065137347
      10        0.000021580745     0.000047242623    -0.000190357002
      11        0.000144721219    -0.000046333561     0.000074047842
      12       -0.000108483730    -0.000103314754     0.000028005695
      13        0.000030872840     0.000029863871    -0.000090263290
      14        0.000004184094     0.000006582331     0.000025497966
      15       -0.000024870491    -0.000043251933     0.000019393309

  **** Optimization is complete! (in 6 steps) ****
    Final optimized geometry and variables:
    Molecular point group: c1

    Geometry (in Angstrom), charge = 0, multiplicity = 1:

    H           -0.960662438281    -0.441002096602     1.622408819043
    O           -0.072240518776    -0.435806760995     1.321130913967
    C            0.003677241432     0.007660130065    -0.023617108868
    C            0.879683889252     1.256738264433    -0.043711475600
    C            0.646557282569    -1.112059849495    -0.836345203143
    C           -1.393830938767     0.321176055374    -0.550227710288
    H            1.023267253859     1.620588013431    -1.055275426075
    H            1.850248364554     1.035536629887     0.382898096240
    H            0.426687261843     2.045662179111     0.545067559803
    H            0.783778450951    -0.818200443467    -1.871273579542
    H            1.613922163635    -1.364008786982    -0.419626244314
    H            0.028037794464    -2.001467946819    -0.809660674703
    H           -1.354488232555     0.661016003733    -1.577752258973
    H           -1.860537167931     1.101905664810     0.041678870880
    H           -2.024114238611    -0.561516888842    -0.514415429643

  Mulliken Charges: (a.u.)
   Center  Symbol    Alpha    Beta     Spin     Total
       1     H     0.39167  0.39167  0.00000  0.21666
       2     O     4.21543  4.21543  0.00000 -0.43085
       3     C     2.88058  2.88058  0.00000  0.23883
       4     C     3.13951  3.13951  0.00000 -0.27901
       5     C     3.13945  3.13945  0.00000 -0.27889
       6     C     3.16357  3.16357  0.00000 -0.32715
       7     H     0.45957  0.45957  0.00000  0.08086
       8     H     0.44798  0.44798  0.00000  0.10404
       9     H     0.45373  0.45373  0.00000  0.09253
      10     H     0.45959  0.45959  0.00000  0.08081
      11     H     0.44795  0.44795  0.00000  0.10410
      12     H     0.45367  0.45367  0.00000  0.09266
      13     H     0.45023  0.45023  0.00000  0.09954
      14     H     0.44862  0.44862  0.00000  0.10276
      15     H     0.44844  0.44844  0.00000  0.10312

   Total alpha = 21.00000, Total beta = 21.00000, Total charge =  0.00000

*** Psi4 exiting successfully. Buy a developer a beer!
