  ==> Input File <==

--------------------------------------------------------------------------
set {
	reference rhf
	basis 6-31G*
}

set_num_threads( 4 )
memory 2 gb

molecule MOL {
0 1

O	 -2.042549	 -1.228399	 -0.269030
C	 -1.653912	 -0.146171	 0.050137
C	 -0.332303	 0.024011	 0.778412
C	 -2.438579	 1.106236	 -0.272369
C	 0.845713	 -0.001731	 -0.208243
H	 -0.323783	 0.953829	 1.340327
H	 -0.235459	 -0.796807	 1.480410
C	 1.691804	 1.270901	 -0.148489
H	 0.473551	 -0.137395	 -1.222232
H	 1.464707	 -0.865739	 0.014193
C	 2.869203	 1.244263	 -1.122259
H	 1.063948	 2.132979	 -0.363068
H	 2.062989	 1.406413	 0.864639
H	 2.527868	 1.143680	 -2.148624
H	 3.532832	 0.410822	 -0.911509
H	 3.452604	 2.157098	 -1.055917
H	 -3.277823	 0.863061	 -0.908988
H	 -1.806773	 1.843019	 -0.759671
H	 -2.802853	 1.554979	 0.648059

	symmetry c1
}
set optking {
	frozen_dihedral = ("
		9 5 3 2
	")
}

ee = optimize('scf')
oeprop('DIPOLE', 'QUADRUPOLE', 'MULLIKEN_CHARGES')
f=open( 'psi4out.xyz', 'w' )
f.write( "19  " )
f.write( str(ee) + "\n" )
f.write( MOL.save_string_xyz() )
f.close()
--------------------------------------------------------------------------

    Molecular point group: c1
  Charge       = 0
  Multiplicity = 1
  Basis Set: 6-31G*
  Basis Set:
  @DF-RHF Final Energy:  -309.05907713966735
    Total Energy =                       -309.0590771396674654
    Molecular point group: c1
  Basis Set: 6-31G*
  Basis Set:
  Basis Set: 6-31G*
  Basis Set:
  @DF-RHF Final Energy:  -309.05929249460007
    Total Energy =                       -309.0592924945999584
  Basis Set: 6-31G*
  Basis Set:
  Basis Set: 6-31G*
  Basis Set:
  @DF-RHF Final Energy:  -309.05713996427727
    Total Energy =                       -309.0571399642772121
  Basis Set: 6-31G*
  Basis Set:
  Basis Set: 6-31G*
  Basis Set:
  @DF-RHF Final Energy:  -309.05966739745259
    Total Energy =                       -309.0596673974526425
  Basis Set: 6-31G*
  Basis Set:
  @DF-RHF Final Energy:  -309.05984264907255
    Total Energy =                       -309.0598426490723796
  Basis Set: 6-31G*
  Basis Set:
  @DF-RHF Final Energy:  -309.05987130971118
    Total Energy =                       -309.0598713097110135
  Basis Set: 6-31G*
  Basis Set:
  Basis Set: 6-31G*
  Basis Set:
  @DF-RHF Final Energy:  -309.05988897757720
    Total Energy =                       -309.0598889775772022
  Basis Set: 6-31G*
  Basis Set:
  Basis Set: 6-31G*
  Basis Set:
  @DF-RHF Final Energy:  -309.05989690845763
    Total Energy =                       -309.0598969084574037
  Basis Set: 6-31G*
  Basis Set:
  Charge       = 0
  Multiplicity = 1
  Basis Set: 6-31G*
  Basis Set:

    Orbital Energies (a.u.)
    -----------------------

    Doubly Occupied:

       1A    -20.547433     2A    -11.324243     3A    -11.233510
       4A    -11.229421     5A    -11.228446     6A    -11.227964
       7A    -11.217554     8A     -1.392934     9A     -1.092364
      10A     -1.029319    11A     -0.982530    12A     -0.894185
      13A     -0.811274    14A     -0.734386    15A     -0.659976
      16A     -0.645956    17A     -0.621457    18A     -0.612860
      19A     -0.585226    20A     -0.575786    21A     -0.552859
      22A     -0.536125    23A     -0.519115    24A     -0.502629
      25A     -0.482955    26A     -0.475079    27A     -0.467496
      28A     -0.397065

  @DF-RHF Final Energy:  -309.05989788056371

   => Energetics <=

    Nuclear Repulsion Energy =            303.2150243804324532
    One-Electron Energy =               -1019.3895539402838040
    Two-Electron Energy =                 407.1146316792872994
    DFT Exchange-Correlation Energy =       0.0000000000000000
    Empirical Dispersion Energy =           0.0000000000000000
    PCM Polarization Energy =               0.0000000000000000
    EFP Energy =                            0.0000000000000000
    Total Energy =                       -309.0598978805641082
    Molecular point group: c1
  Basis Set: 6-31G*
  Basis Set:

  -Total Gradient:
     Atom            X                  Y                   Z
    ------   -----------------  -----------------  -----------------
       1        0.000017308351     0.000036468347    -0.000009801768
       2       -0.000080503067     0.000426723697     0.000065614975
       3        0.000156486087    -0.000863048165    -0.000102187357
       4       -0.000036338520     0.000058458931     0.000044396677
       5       -0.000099677539     0.000980349205     0.000050140546
       6       -0.000040867776    -0.000001141762     0.000014721065
       7       -0.000020121705    -0.000003870899     0.000015769005
       8        0.000001307491     0.000033256431    -0.000034641961
       9        0.000076559434    -0.000650847343     0.000014479619
      10        0.000006258992     0.000017231436    -0.000010813256
      11        0.000020446905    -0.000012865411     0.000016083186
      12       -0.000011435794    -0.000009395100    -0.000011054431
      13       -0.000011234173     0.000000380605     0.000000714858
      14       -0.000000336379     0.000005451399     0.000001434564
      15        0.000000392501    -0.000002413141    -0.000009446965
      16        0.000006063349    -0.000002001686     0.000004152667
      17        0.000004892344    -0.000014531273    -0.000009407692
      18       -0.000004859694    -0.000006724899    -0.000020912728
      19        0.000015659190     0.000008519630    -0.000019241004

  **** Optimization is complete! (in 9 steps) ****
    Final optimized geometry and variables:
    Molecular point group: c1

    Geometry (in Angstrom), charge = 0, multiplicity = 1:

    O           -2.096872504058    -1.544957156271     0.252368950855
    C           -1.515663892059    -0.504044274362     0.297383655614
    C           -0.147112659136    -0.384884465725     0.940850616637
    C           -2.113785112169     0.758607766460    -0.288283394981
    C            0.991109864706    -0.307599365069    -0.111919675829
    H           -0.128750111231     0.503238351091     1.567371325683
    H           -0.017186384278    -1.244864718912     1.584351470764
    C            1.863257399096     0.942918160980     0.016668119377
    H            0.579743911614    -0.354588242261    -1.117650301983
    H            1.615977999432    -1.189472956443    -0.016059621510
    C            2.992048314730     0.987286412620    -1.011588500250
    H            1.241992908738     1.830170932926    -0.088240748303
    H            2.283325700609     0.982739754229     1.019187644438
    H            2.600777011550     0.982750359259    -2.024981228845
    H            3.649997736316     0.129312804014    -0.908250809910
    H            3.594450568499     1.882350791191    -0.893592668937
    H           -2.990260150324     0.512775440927    -0.871619070777
    H           -1.396852620967     1.288932108965    -0.906710872850
    H           -2.399724235864     1.427873860437     0.518969074354

  Mulliken Charges: (a.u.)
   Center  Symbol    Alpha    Beta     Spin     Total
       1     O     4.26016  4.26016  0.00000 -0.52033
       2     C     2.74027  2.74027  0.00000  0.51946
       3     C     3.20393  3.20393  0.00000 -0.40786
       4     C     3.28945  3.28945  0.00000 -0.57890
       5     C     3.16236  3.16236  0.00000 -0.32473
       6     H     0.41299  0.41299  0.00000  0.17401
       7     H     0.39751  0.39751  0.00000  0.20498
       8     C     3.15483  3.15483  0.00000 -0.30965
       9     H     0.41561  0.41561  0.00000  0.16877
      10     H     0.40999  0.40999  0.00000  0.18003
      11     C     3.24105  3.24105  0.00000 -0.48209
      12     H     0.42289  0.42289  0.00000  0.15421
      13     H     0.41930  0.41930  0.00000  0.16140
      14     H     0.42029  0.42029  0.00000  0.15942
      15     H     0.41921  0.41921  0.00000  0.16157
      16     H     0.41695  0.41695  0.00000  0.16610
      17     H     0.39675  0.39675  0.00000  0.20651
      18     H     0.40985  0.40985  0.00000  0.18030
      19     H     0.40660  0.40660  0.00000  0.18680

   Total alpha = 28.00000, Total beta = 28.00000, Total charge =  0.00000
