  ==> Input File <==

--------------------------------------------------------------------------
set {
	reference rhf
	basis cc-pvtz
}

set_num_threads( 4 )
memory 2 gb

molecule MOL {
0 1

H	 3.459101	 0.139266	 -0.762951
C	 2.749156	 -0.051729	 0.031265
C	 1.322304	 0.099773	 -0.484271
H	 2.929445	 -1.053887	 0.403481
H	 2.954281	 0.646699	 0.834672
C	 0.308557	 -0.162619	 0.622645
H	 1.143368	 -0.594400	 -1.295960
H	 1.169532	 1.100095	 -0.870217
N	 -1.069352	 -0.004081	 0.085342
H	 0.371632	 -1.172932	 0.991288
H	 0.400391	 0.548875	 1.426218
O	 -1.950244	 -0.514266	 0.692234
O	 -1.190550	 0.597018	 -0.929021

	symmetry c1
}
set optking {
	frozen_dihedral = ("
		12 9 6 3
	")
}

ee = optimize('scf')
oeprop('DIPOLE', 'QUADRUPOLE', 'MULLIKEN_CHARGES')
f=open( 'psi4out.xyz', 'w' )
f.write( "13  " )
f.write( str(ee) + "\n" )
f.write( MOL.save_string_xyz() )
f.close()
--------------------------------------------------------------------------

    Molecular point group: c1
  Charge       = 0
  Multiplicity = 1
  Basis Set: CC-PVTZ
  Basis Set:
  @DF-RHF Final Energy:  -321.85872984315449
    Total Energy =                       -321.8587298431543218
    Molecular point group: c1
  Basis Set: CC-PVTZ
  Basis Set:
  Basis Set: CC-PVTZ
  Basis Set:
  @DF-RHF Final Energy:  -321.85659578754291
    Total Energy =                       -321.8565957875428580
  Basis Set: CC-PVTZ
  Basis Set:
  Basis Set: CC-PVTZ
  Basis Set:
  @DF-RHF Final Energy:  -321.85754443597062
    Total Energy =                       -321.8575444359705671
  Basis Set: CC-PVTZ
  Basis Set:
  Basis Set: CC-PVTZ
  Basis Set:
  @DF-RHF Final Energy:  -321.86050163481411
    Total Energy =                       -321.8605016348140566
  Basis Set: CC-PVTZ
  Basis Set:
  Basis Set: CC-PVTZ
  Basis Set:
  @DF-RHF Final Energy:  -321.86059560281240
    Total Energy =                       -321.8605956028125092
  Basis Set: CC-PVTZ
  Basis Set:
  Basis Set: CC-PVTZ
  Basis Set:
  @DF-RHF Final Energy:  -321.86061100524580
    Total Energy =                       -321.8606110052458007
  Basis Set: CC-PVTZ
  Basis Set:
  Basis Set: CC-PVTZ
  Basis Set:
  @DF-RHF Final Energy:  -321.86061252728598
    Total Energy =                       -321.8606125272856389
  Basis Set: CC-PVTZ
  Basis Set:
  Charge       = 0
  Multiplicity = 1
  Basis Set: CC-PVTZ
  Basis Set:

    Orbital Energies (a.u.)
    -----------------------

    Doubly Occupied:

       1A    -20.592641     2A    -20.588759     3A    -15.838395
       4A    -11.298984     5A    -11.247501     6A    -11.235072
       7A     -1.637172     8A     -1.421260     9A     -1.131778
      10A     -1.026792    11A     -0.884856    12A     -0.827251
      13A     -0.763392    14A     -0.750974    15A     -0.730838
      16A     -0.658805    17A     -0.607075    18A     -0.577507
      19A     -0.553381    20A     -0.522335    21A     -0.509761
      22A     -0.488030    23A     -0.474492    24A     -0.453973

  @DF-RHF Final Energy:  -321.86061278602790

   => Energetics <=

    Nuclear Repulsion Energy =            247.6328571958786995
    One-Electron Energy =                -929.3448915256080909
    Two-Electron Energy =                 359.8514215437015764
    DFT Exchange-Correlation Energy =       0.0000000000000000
    Empirical Dispersion Energy =           0.0000000000000000
    PCM Polarization Energy =               0.0000000000000000
    EFP Energy =                            0.0000000000000000
    Total Energy =                       -321.8606127860277866
    Molecular point group: c1
  Basis Set: CC-PVTZ
  Basis Set:

  -Total Gradient:
     Atom            X                  Y                   Z
    ------   -----------------  -----------------  -----------------
       1       -0.000007054240    -0.000001699307    -0.000001585358
       2       -0.000003324529    -0.000012699472     0.000002759945
       3        0.000003051210     0.000240732300     0.000053322049
       4        0.000001710008     0.000000107350     0.000004563445
       5        0.000002454456     0.000002578706    -0.000000839553
       6       -0.000000995015    -0.000237017088    -0.000016495864
       7        0.000000699816     0.000000999536     0.000004351584
       8       -0.000001699728     0.000008952261    -0.000007503384
       9        0.000064548651    -0.000252760908    -0.000196185420
      10       -0.000006681496    -0.000003666715     0.000008121700
      11       -0.000001924764    -0.000001529556    -0.000008195133
      12       -0.000034559431     0.000256919005     0.000151481998
      13       -0.000016224943    -0.000000916111     0.000006203991

  **** Optimization is complete! (in 8 steps) ****
    Final optimized geometry and variables:
    Molecular point group: c1

    Geometry (in Angstrom), charge = 0, multiplicity = 1:

    H            3.507752949039     0.125569493976    -0.739347133872
    C            2.772639707759    -0.056773884692     0.033593828614
    C            1.362600101856     0.120987800346    -0.522873305851
    H            2.929217483757    -1.062088215221     0.408649522479
    H            2.967987239439     0.635757187420     0.845080080832
    C            0.329186447678    -0.135741455398     0.555345427912
    H            1.199680892845    -0.563127038157    -1.346653395148
    H            1.237209721726     1.119865503336    -0.914849672537
    N           -1.080992369674    -0.010822230056     0.078546002913
    H            0.393940898369    -1.126451640423     0.974532440018
    H            0.400281581805     0.578628110147     1.364410478680
    O           -1.906724247270    -0.542207338610     0.742464707883
    O           -1.292470533036     0.623733580183    -0.898084810146

  Mulliken Charges: (a.u.)
   Center  Symbol    Alpha    Beta     Spin     Total
       1     H     0.44129  0.44129  0.00000  0.11741
       2     C     3.15250  3.15250  0.00000 -0.30499
       3     C     3.09186  3.09186  0.00000 -0.18372
       4     H     0.45290  0.45290  0.00000  0.09420
       5     H     0.45302  0.45302  0.00000  0.09395
       6     C     3.04574  3.04574  0.00000 -0.09148
       7     H     0.44230  0.44230  0.00000  0.11539
       8     H     0.43607  0.43607  0.00000  0.12786
       9     N     3.27377  3.27377  0.00000  0.45246
      10     H     0.43203  0.43203  0.00000  0.13594
      11     H     0.43532  0.43532  0.00000  0.12936
      12     O     4.17325  4.17325  0.00000 -0.34650
      13     O     4.16995  4.16995  0.00000 -0.33990

   Total alpha = 24.00000, Total beta = 24.00000, Total charge = -0.00000
