  ==> Input File <==

--------------------------------------------------------------------------
set {
	reference rhf
	basis cc-pvtz
}

set_num_threads( 4 )
memory 2 gb

molecule MOL {
0 1

H	 -3.162190	 0.493205	 -0.000107
C	 -2.363908	 -0.234727	 0.000005
O	 -1.158738	 0.454634	 -0.000087
H	 -2.464314	 -0.863616	 -0.882153
H	 -2.464327	 -0.863359	 0.882345
C	 -0.880293	 1.129093	 -1.186632
C	 0.453817	 1.836140	 -1.057684
H	 -1.668947	 1.850895	 -1.400324
H	 -0.853809	 0.425660	 -2.019172
C	 0.832000	 2.601015	 -2.321129
H	 0.405790	 2.512788	 -0.211654
H	 1.214443	 1.098879	 -0.825637
H	 0.095393	 3.361416	 -2.558378
H	 1.787901	 3.095946	 -2.201477
H	 0.909743	 1.938028	 -3.176391

	symmetry c1
}
set optking {
	frozen_dihedral = ("
		6 3 2 4
	")
}

ee = optimize('scf')
oeprop('DIPOLE', 'QUADRUPOLE', 'MULLIKEN_CHARGES')
f=open( 'psi4out.xyz', 'w' )
f.write( "15  " )
f.write( str(ee) + "\n" )
f.write( MOL.save_string_xyz() )
f.close()
--------------------------------------------------------------------------

    Molecular point group: c1
  Charge       = 0
  Multiplicity = 1
  Basis Set: CC-PVTZ
  Basis Set:
  @DF-RHF Final Energy:  -232.22699762994131
    Total Energy =                       -232.2269976299414793
    Molecular point group: c1
  Basis Set: CC-PVTZ
  Basis Set:
  Basis Set: CC-PVTZ
  Basis Set:
  @DF-RHF Final Energy:  -232.22776743384543
    Total Energy =                       -232.2277674338456563
  Basis Set: CC-PVTZ
  Basis Set:
  Basis Set: CC-PVTZ
  Basis Set:
  @DF-RHF Final Energy:  -232.22795510477096
    Total Energy =                       -232.2279551047706718
  Basis Set: CC-PVTZ
  Basis Set:
  Charge       = 0
  Multiplicity = 1
  Basis Set: CC-PVTZ
  Basis Set:

    Orbital Energies (a.u.)
    -----------------------

    Doubly Occupied:

       1A    -20.547325     2A    -11.264485     3A    -11.261780
       4A    -11.212756     5A    -11.210725     6A     -1.381649
       7A     -1.058470     8A     -0.956138     9A     -0.877398
      10A     -0.809610    11A     -0.676861    12A     -0.655979
      13A     -0.632510    14A     -0.608273    15A     -0.565342
      16A     -0.540930    17A     -0.503705    18A     -0.490744
      19A     -0.478390    20A     -0.462971    21A     -0.416225

  @DF-RHF Final Energy:  -232.22795626893287

   => Energetics <=

    Nuclear Repulsion Energy =            190.0009134624622220
    One-Electron Energy =                -691.2332081994346709
    Two-Electron Energy =                 269.0043384680394638
    DFT Exchange-Correlation Energy =       0.0000000000000000
    Empirical Dispersion Energy =           0.0000000000000000
    PCM Polarization Energy =               0.0000000000000000
    EFP Energy =                            0.0000000000000000
    Total Energy =                       -232.2279562689329850
    Molecular point group: c1
  Basis Set: CC-PVTZ
  Basis Set:

  -Total Gradient:
     Atom            X                  Y                   Z
    ------   -----------------  -----------------  -----------------
       1        0.000032740156     0.000025870101     0.000002200849
       2        0.000986877607    -0.001798347588     0.000687600018
       3       -0.000940057424     0.001701703272     0.000440417286
       4       -0.000573118740     0.001136537171    -0.000724887815
       5        0.000064740480     0.000023085404     0.000004710518
       6        0.000480205271    -0.001031391571    -0.000562052094
       7        0.000001294232    -0.000027840313     0.000087912915
       8       -0.000002923059    -0.000010890359     0.000049251813
       9       -0.000005269568    -0.000000528283    -0.000021198835
      10       -0.000062791370    -0.000018970788     0.000003684909
      11        0.000021357174     0.000018125637     0.000009115940
      12        0.000007297635    -0.000003841731     0.000006011851
      13       -0.000001079822     0.000005477191    -0.000008084299
      14       -0.000010777390    -0.000015378931     0.000025026674
      15        0.000001504817    -0.000003609212     0.000000290267

  **** Optimization is complete! (in 4 steps) ****
    Final optimized geometry and variables:
    Molecular point group: c1

    Geometry (in Angstrom), charge = 0, multiplicity = 1:

    H           -2.561234294244    -0.677077670287     0.936219141374
    C           -1.719754300054    -1.366644469505     0.906813770527
    O           -0.508925486722    -0.686900468255     0.903766299684
    H           -1.829375388625    -1.991987113124     0.023525069455
    H           -1.751015783051    -1.991139182388     1.787756453965
    C           -0.227580790838    -0.010176211899    -0.280638596613
    C            1.106432431731     0.696098870547    -0.146380703485
    H           -1.014698366171     0.713148501399    -0.496171581194
    H           -0.199333789057    -0.712743144719    -1.113601645766
    C            1.490755774836     1.458625954687    -1.409421169505
    H            1.055494608676     1.374298526200     0.698312124229
    H            1.865358684766    -0.041570516246     0.090244160439
    H            0.755620131074     2.219019924821    -1.651432933546
    H            2.446421436121     1.953284709623    -1.286222854378
    H            1.572089835010     0.794003494401    -2.263149111925

  Mulliken Charges: (a.u.)
   Center  Symbol    Alpha    Beta     Spin     Total
       1     H     0.46999  0.46999  0.00000  0.06001
       2     C     3.03321  3.03321  0.00000 -0.06642
       3     O     4.17180  4.17180  0.00000 -0.34361
       4     H     0.47380  0.47380  0.00000  0.05241
       5     H     0.44721  0.44721  0.00000  0.10559
       6     C     2.95612  2.95612  0.00000  0.08775
       7     C     3.08033  3.08033  0.00000 -0.16066
       8     H     0.47671  0.47671  0.00000  0.04657
       9     H     0.47486  0.47486  0.00000  0.05029
      10     C     3.15582  3.15582  0.00000 -0.31164
      11     H     0.45103  0.45103  0.00000  0.09794
      12     H     0.45115  0.45115  0.00000  0.09770
      13     H     0.45582  0.45582  0.00000  0.08835
      14     H     0.44627  0.44627  0.00000  0.10747
      15     H     0.45588  0.45588  0.00000  0.08824

   Total alpha = 21.00000, Total beta = 21.00000, Total charge = -0.00000
