                              Psi4 1.0.54 Driver

  ==> Input File <==

--------------------------------------------------------------------------
set {
	reference rhf
	basis cc-pvtz
}

set_num_threads( 4 )
memory 2 gb

molecule MOL {
0 1

H	 -0.595392	 1.839435	 0.250387
O	 0.057669	 1.301365	 -0.158528
C	 0.004145	 -0.005141	 0.363049
C	 1.199168	 -0.827145	 -0.096690
C	 -1.316386	 -0.602081	 -0.083515
H	 0.012026	 0.043363	 1.450619
H	 1.216685	 -0.896776	 -1.178167
H	 2.129940	 -0.372354	 0.228035
H	 1.160783	 -1.829622	 0.314294
H	 -1.357882	 -0.655920	 -1.165207
H	 -2.140147	 0.011735	 0.257253
H	 -1.440790	 -1.601175	 0.317669

	symmetry c1
}
set optking {
	frozen_dihedral = ("
		1 2 3 4
	")
}

ee,wfn = optimize('scf', return_wfn=True)
oeprop( wfn, 'DIPOLE', 'QUADRUPOLE', 'MULLIKEN_CHARGES')
f=open( 'psi4out.xyz', 'w' )
f.write( "12  " )
f.write( str(ee) + "\n" )
f.write( MOL.save_string_xyz() )
f.close()
--------------------------------------------------------------------------

    Molecular point group: c1
  Charge       = 0
  Multiplicity = 1
  Basis Set: CC-PVTZ
  Basis Set:
  @DF-RHF Final Energy:  -193.19413786281660
    Total Energy =                       -193.1941378628166035
    Molecular point group: c1
  Basis Set: CC-PVTZ
  Basis Set:
  Basis Set: CC-PVTZ
  Basis Set:
  @DF-RHF Final Energy:  -193.14423567515644
    Total Energy =                       -193.1442356751564944
  Basis Set: CC-PVTZ
  Basis Set:
  Basis Set: CC-PVTZ
  Basis Set:
  @DF-RHF Final Energy:  -193.19329667892109
    Total Energy =                       -193.1932966789211150
  Basis Set: CC-PVTZ
  Basis Set:
  Basis Set: CC-PVTZ
  Basis Set:
  @DF-RHF Final Energy:  -193.19587924662090
    Total Energy =                       -193.1958792466208763
  Basis Set: CC-PVTZ
  Basis Set:
  Basis Set: CC-PVTZ
  Basis Set:
  @DF-RHF Final Energy:  -193.19596596291208
    Total Energy =                       -193.1959659629120836
  Basis Set: CC-PVTZ
  Basis Set:
  Basis Set: CC-PVTZ
  Basis Set:
  @DF-RHF Final Energy:  -193.19597430881984
    Total Energy =                       -193.1959743088199275
  Basis Set: CC-PVTZ
  Basis Set:
  Charge       = 0
  Multiplicity = 1
  Basis Set: CC-PVTZ
  Basis Set:

    Orbital Energies (a.u.)
    -----------------------

    Doubly Occupied:

       1A    -20.544268     2A    -11.274132     3A    -11.209828
       4A    -11.205075     5A     -1.364634     6A     -1.043114
       7A     -0.939674     8A     -0.802612     9A     -0.705358
      10A     -0.624061    11A     -0.605028    12A     -0.547938
      13A     -0.537156    14A     -0.528969    15A     -0.510580
      16A     -0.468096    17A     -0.433305

  @DF-RHF Final Energy:  -193.19597449721670

   => Energetics <=

    Nuclear Repulsion Energy =            135.6987197007049986
    One-Electron Energy =                -531.1017320023934190
    Two-Electron Energy =                 202.2070378044717245
    DFT Exchange-Correlation Energy =       0.0000000000000000
    Empirical Dispersion Energy =           0.0000000000000000
    PCM Polarization Energy =               0.0000000000000000
    EFP Energy =                            0.0000000000000000
    Total Energy =                       -193.1959744972166959
    Molecular point group: c1
  Basis Set: CC-PVTZ
  Basis Set:

  -Total Gradient:
     Atom            X                  Y                   Z
    ------   -----------------  -----------------  -----------------
       1        0.000532024047     0.000250819126     0.000435629549
       2       -0.000591642267    -0.000231694792    -0.000450024501
       3       -0.000216490913    -0.000089871125    -0.000313981158
       4        0.000243491620     0.000122371442     0.000332398675
       5        0.000022768782    -0.000012403129    -0.000005120133
       6        0.000003910621    -0.000023170098    -0.000001366605
       7        0.000001430311    -0.000000287114    -0.000008005417
       8       -0.000023002911    -0.000003897691     0.000018011167
       9        0.000005375576    -0.000012062996    -0.000007551005
      10        0.000000714830     0.000005651813     0.000000641870
      11        0.000022845353     0.000005426831    -0.000001146804
      12       -0.000001425049    -0.000010882265     0.000000514362

  **** Optimization is complete! (in 7 steps) ****
    Final optimized geometry and variables:
    Molecular point group: c1

    Geometry (in Angstrom), charge = 0, multiplicity = 1:

    H           -0.928822651296     1.575839639271     0.661434401847
    O           -0.276670432024     1.281200563922     0.052465566986
    C            0.095644048710    -0.044920219223     0.345303006738
    C            1.311237184256    -0.359339431212    -0.505089457850
    C           -1.058345733068    -1.003433470109     0.091359634242
    H            0.381786211231    -0.113222343456     1.393387242168
    H            1.064296878777    -0.279548743058    -1.557489602239
    H            2.110064169800     0.338611897302    -0.290487254998
    H            1.667213957760    -1.364153538256    -0.309433179801
    H           -1.363176853931    -0.959843685149    -0.947760756049
    H           -1.915649008450    -0.746985079774     0.705520835036
    H           -0.774704660359    -2.023120015136     0.326908078476

  Mulliken Charges: (a.u.)
   Center  Symbol    Alpha    Beta     Spin     Total
       1     H     0.39590  0.39590  0.00000  0.20819
       2     O     4.20469  4.20469  0.00000 -0.40939
       3     C     2.92278  2.92278  0.00000  0.15444
       4     C     3.14198  3.14198  0.00000 -0.28396
       5     C     3.14387  3.14387  0.00000 -0.28773
       6     H     0.46674  0.46674  0.00000  0.06652
       7     H     0.45235  0.45235  0.00000  0.09531
       8     H     0.44698  0.44698  0.00000  0.10604
       9     H     0.45889  0.45889  0.00000  0.08221
      10     H     0.45128  0.45128  0.00000  0.09744
      11     H     0.45769  0.45769  0.00000  0.08463
      12     H     0.45685  0.45685  0.00000  0.08630

   Total alpha = 17.00000, Total beta = 17.00000, Total charge = -0.00000

*** Psi4 exiting successfully. Buy a developer a beer!
