                              Psi4 1.0.54 Driver

  ==> Input File <==

--------------------------------------------------------------------------
set {
	reference rhf
	basis cc-pvtz
}

set_num_threads( 4 )
memory 2 gb

molecule MOL {
0 1

H	 -3.401682	 -1.036167	 0.000000
O	 -3.113760	 -0.140926	 0.000000
C	 -1.775087	 -0.058754	 0.000000
C	 -0.966322	 -1.188504	 0.000000
C	 -1.211474	 1.206364	 0.000000
H	 -1.410986	 -2.166615	 0.000000
C	 0.401078	 -1.047398	 0.000000
H	 -1.853132	 2.064440	 0.000000
C	 0.159522	 1.330443	 0.000000
H	 1.035984	 -1.911113	 0.000000
C	 0.981121	 0.213562	 0.000000
H	 0.597857	 2.311453	 0.000000
C	 2.447402	 0.371303	 0.000000
O	 3.227427	 -0.521847	 0.000000
H	 2.796538	 1.409525	 0.000000

	symmetry c1
}
set optking {
	frozen_dihedral = ("
		5 3 2 1
	")
}

ee,wfn = optimize('scf', return_wfn=True)
oeprop( wfn, 'DIPOLE', 'QUADRUPOLE', 'MULLIKEN_CHARGES')
f=open( 'psi4out.xyz', 'w' )
f.write( "15  " )
f.write( str(ee) + "\n" )
f.write( MOL.save_string_xyz() )
f.close()
--------------------------------------------------------------------------

    Molecular point group: c1
  Charge       = 0
  Multiplicity = 1
  Basis Set: CC-PVTZ
  Basis Set:

    Orbital Energies (a.u.)
    -----------------------

    Doubly Occupied:

       1A    -20.604951     2A    -20.545420     3A    -11.322701
       4A    -11.322635     5A    -11.258280     6A    -11.254727
       7A    -11.242393     8A    -11.236743     9A    -11.236599
      10A     -1.438133    11A     -1.401614    12A     -1.175309
      13A     -1.044926    14A     -1.042568    15A     -0.892199
      16A     -0.871166    17A     -0.797474    18A     -0.762657
      19A     -0.717909    20A     -0.670938    21A     -0.646192
      22A     -0.631393    23A     -0.615389    24A     -0.610920
      25A     -0.587511    26A     -0.562634    27A     -0.555376
      28A     -0.509157    29A     -0.490284    30A     -0.421557
      31A     -0.362620    32A     -0.331514

  @DF-RHF Final Energy:  -418.44265919870668

   => Energetics <=

    Nuclear Repulsion Energy =            402.3178368124916915
    One-Electron Energy =               -1367.1932166273631992
    Two-Electron Energy =                 546.4327206161644881
    DFT Exchange-Correlation Energy =       0.0000000000000000
    Empirical Dispersion Energy =           0.0000000000000000
    PCM Polarization Energy =               0.0000000000000000
    EFP Energy =                            0.0000000000000000
    Total Energy =                       -418.4426591987070196
    Molecular point group: c1
  Basis Set: CC-PVTZ
  Basis Set:

  -Total Gradient:
     Atom            X                  Y                   Z
    ------   -----------------  -----------------  -----------------
       1       -0.000007717917     0.000165345693     0.000000005736
       2       -0.000201741431    -0.000189649814    -0.000000007803
       3        0.000283536476    -0.000299923009    -0.000000008454
       4       -0.000366608216     0.000141572209    -0.000000008434
       5        0.000277343526     0.000213367696    -0.000000012645
       6        0.000039877774     0.000029037332    -0.000000002349
       7        0.000264156242     0.000128020679     0.000000005160
       8       -0.000020691785    -0.000066930783    -0.000000007351
       9       -0.000317066732     0.000136071846     0.000000002427
      10       -0.000010180606     0.000049439582     0.000000009026
      11        0.000120271521    -0.000248547439    -0.000000016371
      12        0.000015841687    -0.000036797150     0.000000004770
      13       -0.000284429008     0.000198693422    -0.000000008584
      14        0.000152873526    -0.000099468552     0.000000007557
      15        0.000054534937    -0.000120231712     0.000000037315

  **** Optimization is complete! (in 1 steps) ****
    Final optimized geometry and variables:
    Molecular point group: c1

    Geometry (in Angstrom), charge = 0, multiplicity = 1:

    H           -3.401682497547    -1.036166771723     0.000000000000
    O           -3.113760497547    -0.140925771723     0.000000000000
    C           -1.775087497547    -0.058753771723     0.000000000000
    C           -0.966322497547    -1.188503771723     0.000000000000
    C           -1.211474497547     1.206364228277     0.000000000000
    H           -1.410986497547    -2.166614771723     0.000000000000
    C            0.401077502453    -1.047397771723     0.000000000000
    H           -1.853132497547     2.064440228277     0.000000000000
    C            0.159521502453     1.330443228277     0.000000000000
    H            1.035983502453    -1.911112771723     0.000000000000
    C            0.981120502453     0.213562228277     0.000000000000
    H            0.597856502453     2.311453228277     0.000000000000
    C            2.447401502453     0.371303228277     0.000000000000
    O            3.227426502453    -0.521846771723     0.000000000000
    H            2.796537502453     1.409525228277     0.000000000000

  Mulliken Charges: (a.u.)
   Center  Symbol    Alpha    Beta     Spin     Total
       1     H     0.38538  0.38538  0.00000  0.22925
       2     O     4.16619  4.16619  0.00000 -0.33238
       3     C     2.84401  2.84401  0.00000  0.31199
       4     C     3.13262  3.13262  0.00000 -0.26523
       5     C     3.10867  3.10867  0.00000 -0.21733
       6     H     0.43099  0.43099  0.00000  0.13802
       7     C     3.06648  3.06648  0.00000 -0.13296
       8     H     0.41665  0.41665  0.00000  0.16669
       9     C     3.06582  3.06582  0.00000 -0.13163
      10     H     0.40706  0.40706  0.00000  0.18588
      11     C     3.00405  3.00405  0.00000 -0.00810
      12     H     0.42140  0.42140  0.00000  0.15721
      13     C     2.91094  2.91094  0.00000  0.17811
      14     O     4.17923  4.17923  0.00000 -0.35847
      15     H     0.46052  0.46052  0.00000  0.07896

   Total alpha = 32.00000, Total beta = 32.00000, Total charge = -0.00000

*** Psi4 exiting successfully. Buy a developer a beer!
