  ==> Input File <==

--------------------------------------------------------------------------
set {
	reference rhf
	basis 6-31G*
}

set_num_threads( 4 )
memory 2 gb

molecule MOL {
0 1

H	 -2.798360	 -0.862255	 -0.071053
N	 -1.863561	 -0.715187	 0.256814
C	 -1.344686	 0.554728	 -0.219830
H	 -1.300452	 -1.461917	 -0.101532
C	 0.081427	 0.741154	 0.254071
H	 -1.362155	 0.656231	 -1.305829
H	 -1.952773	 1.354456	 0.191809
O	 0.874168	 -0.245412	 -0.342030
H	 0.444037	 1.730782	 -0.023037
H	 0.121165	 0.653424	 1.337565
C	 0.203630	 -1.434727	 -0.613100
H	 0.911833	 -2.114509	 -1.067018
H	 -0.185350	 -1.888590	 0.296671
H	 -0.624324	 -1.276442	 -1.301031

	symmetry c1
}
set optking {
	frozen_dihedral = ("
		11 8 5 3
	")
}

ee = optimize('scf')
oeprop('DIPOLE', 'QUADRUPOLE', 'MULLIKEN_CHARGES')
f=open( 'psi4out.xyz', 'w' )
f.write( "14  " )
f.write( str(ee) + "\n" )
f.write( MOL.save_string_xyz() )
f.close()
--------------------------------------------------------------------------

    Molecular point group: c1
  Charge       = 0
  Multiplicity = 1
  Basis Set: 6-31G*
  Basis Set:
  @DF-RHF Final Energy:  -248.03341616020083
    Total Energy =                       -248.0334161602008862
    Molecular point group: c1
  Basis Set: 6-31G*
  Basis Set:
  Basis Set: 6-31G*
  Basis Set:
  @DF-RHF Final Energy:  -248.08809761695451
    Total Energy =                       -248.0880976169544851
  Basis Set: 6-31G*
  Basis Set:
  Basis Set: 6-31G*
  Basis Set:
  @DF-RHF Final Energy:  -248.10290234327152
    Total Energy =                       -248.1029023432714666
  Basis Set: 6-31G*
  Basis Set:
  Basis Set: 6-31G*
  Basis Set:
  @DF-RHF Final Energy:  -248.10777258032354
    Total Energy =                       -248.1077725803235126
  Basis Set: 6-31G*
  Basis Set:
  @DF-RHF Final Energy:  -248.11134947865216
    Total Energy =                       -248.1113494786520732
  @DF-RHF Final Energy:  -248.11206858227791
    Total Energy =                       -248.1120685822779706
  @DF-RHF Final Energy:  -248.11216897921653
    Total Energy =                       -248.1121689792165625
  Basis Set: 6-31G*
  Basis Set:
  @DF-RHF Final Energy:  -248.11218955320354
    Total Energy =                       -248.1121895532033932
  Basis Set: 6-31G*
  Basis Set:
  Basis Set: 6-31G*
  Basis Set:
  @DF-RHF Final Energy:  -248.11219489080523
    Total Energy =                       -248.1121948908053696
  Basis Set: 6-31G*
  Basis Set:
  Basis Set: 6-31G*
  Basis Set:
  @DF-RHF Final Energy:  -248.11219614331947
    Total Energy =                       -248.1121961433193519
  Basis Set: 6-31G*
  Basis Set:
  Charge       = 0
  Multiplicity = 1
  Basis Set: 6-31G*
  Basis Set:

    Orbital Energies (a.u.)
    -----------------------

    Doubly Occupied:

       1A    -20.548299     2A    -15.542086     3A    -11.265274
       4A    -11.263106     5A    -11.250473     6A     -1.369342
       7A     -1.183865     8A     -1.001766     9A     -0.920145
      10A     -0.806999    11A     -0.690167    12A     -0.672415
      13A     -0.638559    14A     -0.618730    15A     -0.603401
      16A     -0.548285    17A     -0.536458    18A     -0.515777
      19A     -0.454436    20A     -0.407274    21A     -0.389281

  @DF-RHF Final Energy:  -248.11219674247357

   => Energetics <=

    Nuclear Repulsion Energy =            196.8979321497166382
    One-Electron Energy =                -727.5679785100605841
    Two-Electron Energy =                 282.5578496178703745
    DFT Exchange-Correlation Energy =       0.0000000000000000
    Empirical Dispersion Energy =           0.0000000000000000
    PCM Polarization Energy =               0.0000000000000000
    EFP Energy =                            0.0000000000000000
    Total Energy =                       -248.1121967424735431
    Molecular point group: c1
  Basis Set: 6-31G*
  Basis Set:

  -Total Gradient:
     Atom            X                  Y                   Z
    ------   -----------------  -----------------  -----------------
       1       -0.000004848520     0.000010102687     0.000000278532
       2        0.000002303489    -0.000031405311    -0.000003717887
       3       -0.000750723037    -0.002500580417     0.002761713294
       4       -0.000017390886     0.000021383032     0.000006422691
       5        0.000756950734     0.004539823388    -0.006210658640
       6        0.000001756064     0.000029094057     0.000011905007
       7       -0.000016214693    -0.000009339487     0.000022665094
       8        0.000822963911    -0.003611078813     0.007297685259
       9       -0.000020167271     0.000011482661     0.000003841638
      10        0.000011546721    -0.000008349806    -0.000007531386
      11       -0.000807091865     0.001567567575    -0.003863278358
      12       -0.000000134283    -0.000010559905    -0.000009509376
      13        0.000012942888    -0.000001599727     0.000001370812
      14        0.000008106748    -0.000006539933    -0.000011186682

  **** Optimization is complete! (in 11 steps) ****
    Final optimized geometry and variables:
    Molecular point group: c1

    Geometry (in Angstrom), charge = 0, multiplicity = 1:

    H           -2.736435202696    -0.113253721432     0.455703197635
    N           -1.753157742702    -0.282963435317     0.537181579553
    C           -1.002004223894     0.789317898030    -0.101707449671
    H           -1.578288232013    -1.169082873986     0.108936073881
    C            0.445798428185     0.890450409515     0.373015214702
    H           -1.034242910997     0.761025925507    -1.191780631667
    H           -1.472016642238     1.721744210985     0.193917568672
    O            1.387178633090    -0.000127419694    -0.172447411129
    H            0.820740129146     1.878021514114     0.132594797683
    H            0.440556246418     0.784773411852     1.454605305390
    C            0.991048950626    -1.266497944304    -0.586968558278
    H            1.873231226089    -1.754950996415    -0.978346066519
    H            0.604508183855    -1.864718136190     0.235266703411
    H            0.247800447433    -1.230683423161    -1.379301428534

  Mulliken Charges: (a.u.)
   Center  Symbol    Alpha    Beta     Spin     Total
       1     H     0.32966  0.32966  0.00000  0.34067
       2     N     3.92296  3.92296  0.00000 -0.84591
       3     C     3.09626  3.09626  0.00000 -0.19252
       4     H     0.33026  0.33026  0.00000  0.33948
       5     C     2.97640  2.97640  0.00000  0.04719
       6     H     0.42419  0.42419  0.00000  0.15162
       7     H     0.41502  0.41502  0.00000  0.16997
       8     O     4.31164  4.31164  0.00000 -0.62327
       9     H     0.42021  0.42021  0.00000  0.15958
      10     H     0.42002  0.42002  0.00000  0.15996
      11     C     3.08235  3.08235  0.00000 -0.16470
      12     H     0.41115  0.41115  0.00000  0.17769
      13     H     0.42620  0.42620  0.00000  0.14760
      14     H     0.43369  0.43369  0.00000  0.13263

   Total alpha = 21.00000, Total beta = 21.00000, Total charge = -0.00000
