  ==> Input File <==

--------------------------------------------------------------------------
set {
	reference rhf
	basis 6-31G*
}

set_num_threads( 4 )
memory 2 gb

molecule MOL {
0 1

H	 3.475119	 0.806209	 1.892226
N	 2.647712	 0.241674	 1.907823
C	 1.633019	 0.788629	 1.018574
H	 2.318765	 0.236442	 2.854711
C	 0.412828	 -0.124906	 0.970162
H	 2.067806	 0.858992	 0.026169
H	 1.319167	 1.798293	 1.295114
C	 -0.679275	 0.379305	 0.025956
H	 0.738825	 -1.117030	 0.671414
H	 0.002822	 -0.224518	 1.974806
C	 -1.903357	 -0.536963	 -0.023547
H	 -0.269345	 0.481904	 -0.977677
H	 -0.992043	 1.377034	 0.330192
C	 -3.225172	 0.228290	 0.028445
H	 -1.867824	 -1.134999	 -0.931459
H	 -1.860449	 -1.239604	 0.805977
H	 -3.313397	 0.915643	 -0.808262
H	 -4.073500	 -0.448134	 -0.008893
H	 -3.306061	 0.809945	 0.942516

	symmetry c1
}
set optking {
	frozen_dihedral = ("
		12 8 11 15
	")
}

ee = optimize('scf')
oeprop('DIPOLE', 'QUADRUPOLE', 'MULLIKEN_CHARGES')
f=open( 'psi4out.xyz', 'w' )
f.write( "19  " )
f.write( str(ee) + "\n" )
f.write( MOL.save_string_xyz() )
f.close()
--------------------------------------------------------------------------

    Molecular point group: c1
  Charge       = 0
  Multiplicity = 1
  Basis Set: 6-31G*
  Basis Set:
  @DF-RHF Final Energy:  -251.34681001797881
    Total Energy =                       -251.3468100179787825
    Molecular point group: c1
  Basis Set: 6-31G*
  Basis Set:
  Basis Set: 6-31G*
  Basis Set:
  @DF-RHF Final Energy:  -251.34706921626793
    Total Energy =                       -251.3470692162677551
  Basis Set: 6-31G*
  Basis Set:
  Basis Set: 6-31G*
  Basis Set:
  @DF-RHF Final Energy:  -251.34715493258236
    Total Energy =                       -251.3471549325823844
  Basis Set: 6-31G*
  Basis Set:
  Basis Set: 6-31G*
  Basis Set:
  @DF-RHF Final Energy:  -251.34715252501886
    Total Energy =                       -251.3471525250188279
  Basis Set: 6-31G*
  Basis Set:
  Basis Set: 6-31G*
  Basis Set:
  @DF-RHF Final Energy:  -251.34715696653464
    Total Energy =                       -251.3471569665344987
  Basis Set: 6-31G*
  Basis Set:
  Charge       = 0
  Multiplicity = 1
  Basis Set: 6-31G*
  Basis Set:

    Orbital Energies (a.u.)
    -----------------------

    Doubly Occupied:

       1A    -15.532434     2A    -11.239470     3A    -11.213766
       4A    -11.212585     5A    -11.209560     6A    -11.207637
       7A     -1.176484     8A     -1.070701     9A     -0.998027
      10A     -0.899373    11A     -0.814095    12A     -0.788718
      13A     -0.662693    14A     -0.641397    15A     -0.614237
      16A     -0.591838    17A     -0.563065    18A     -0.555867
      19A     -0.521981    20A     -0.499570    21A     -0.484468
      22A     -0.464869    23A     -0.456271    24A     -0.447666
      25A     -0.380859

  @DF-RHF Final Energy:  -251.34715695787472

   => Energetics <=

    Nuclear Repulsion Energy =            245.8098247841072350
    One-Electron Energy =                -825.8187009817436319
    Two-Electron Energy =                 328.6617192397613962
    DFT Exchange-Correlation Energy =       0.0000000000000000
    Empirical Dispersion Energy =           0.0000000000000000
    PCM Polarization Energy =               0.0000000000000000
    EFP Energy =                            0.0000000000000000
    Total Energy =                       -251.3471569578749722
    Molecular point group: c1
  Basis Set: 6-31G*
  Basis Set:

  -Total Gradient:
     Atom            X                  Y                   Z
    ------   -----------------  -----------------  -----------------
       1       -0.000003672566     0.000000288167    -0.000001776370
       2       -0.000003140789    -0.000001094877     0.000002359701
       3        0.000009054052    -0.000003038587    -0.000008608519
       4        0.000000668307    -0.000000188909     0.000000516372
       5       -0.000000532926     0.000002710093     0.000004312956
       6        0.000001020348     0.000002447257    -0.000002479465
       7       -0.000002263654    -0.000004042071     0.000001005888
       8       -0.003019918111     0.004005881913    -0.001090539104
       9       -0.000001203809    -0.000000930102    -0.000000289035
      10       -0.000000280777     0.000006602216    -0.000000866752
      11        0.002742016274    -0.003724799289     0.002242573007
      12        0.002095630163    -0.002769756767     0.000576806833
      13       -0.000004634116    -0.000003759779     0.000003366395
      14        0.000002036101     0.000001198989     0.000005395278
      15       -0.001815974414     0.002485507429    -0.001723658450
      16       -0.000001105992     0.000003496607    -0.000007273135
      17       -0.000000214358    -0.000006839076    -0.000005831082
      18       -0.000002111957    -0.000000084393     0.000009289672
      19        0.000004628223     0.000006401180    -0.000004304186

  **** Optimization is complete! (in 6 steps) ****
    Final optimized geometry and variables:
    Molecular point group: c1

    Geometry (in Angstrom), charge = 0, multiplicity = 1:

    H            3.659257497311     0.611098466971     1.181937176319
    N            2.826160115960     0.055569593452     1.211446813350
    C            1.805649120127     0.608861115122     0.332706892445
    H            2.509773579344     0.058832464475     2.162619535204
    C            0.574794943044    -0.290385837390     0.306002091924
    H            2.227794769953     0.669049746100    -0.665904268132
    H            1.506940399063     1.623694739965     0.607594117706
    C           -0.530277802066     0.225975937453    -0.619625814358
    H            0.882992052402    -1.286686821514     0.001598348625
    H            0.180154016731    -0.385776700619     1.317279309891
    C           -1.751835990411    -0.713874950282    -0.685187670591
    H           -0.108236707580     0.341286140738    -1.615176775186
    H           -0.838897188549     1.215760384898    -0.291496331136
    C           -3.085717360915     0.035872274755    -0.681444668561
    H           -1.703479815932    -1.309198837704    -1.592607413214
    H           -1.733017651208    -1.409253351460     0.149284392976
    H           -3.147312054305     0.728308115306    -1.516557498437
    H           -3.924204217125    -0.649820407491    -0.758017175620
    H           -3.209116950510     0.610777023406     0.232217324676

  Mulliken Charges: (a.u.)
   Center  Symbol    Alpha    Beta     Spin     Total
       1     H     0.33253  0.33253  0.00000  0.33494
       2     N     3.92180  3.92180  0.00000 -0.84359
       3     C     3.06066  3.06066  0.00000 -0.12133
       4     H     0.33538  0.33538  0.00000  0.32924
       5     C     3.15347  3.15347  0.00000 -0.30694
       6     H     0.42098  0.42098  0.00000  0.15804
       7     H     0.43488  0.43488  0.00000  0.13024
       8     C     3.15785  3.15785  0.00000 -0.31570
       9     H     0.41291  0.41291  0.00000  0.17419
      10     H     0.42780  0.42780  0.00000  0.14441
      11     C     3.15318  3.15318  0.00000 -0.30635
      12     H     0.42136  0.42136  0.00000  0.15728
      13     H     0.42217  0.42217  0.00000  0.15566
      14     C     3.24000  3.24000  0.00000 -0.48000
      15     H     0.42018  0.42018  0.00000  0.15964
      16     H     0.41975  0.41975  0.00000  0.16050
      17     H     0.42187  0.42187  0.00000  0.15626
      18     H     0.42058  0.42058  0.00000  0.15883
      19     H     0.42265  0.42265  0.00000  0.15470

   Total alpha = 25.00000, Total beta = 25.00000, Total charge = -0.00000
