                              Psi4 1.0.54 Driver

  ==> Input File <==

--------------------------------------------------------------------------
set {
	reference rhf
	basis cc-pvtz
}

set_num_threads( 4 )
memory 2 gb

molecule MOL {
0 1

H	 -4.340537	 -0.784487	 0.000000
O	 -3.958786	 0.074640	 0.000000
C	 -2.613554	 0.009900	 0.000000
C	 -2.024548	 -1.082977	 -0.613896
C	 -1.821491	 0.980910	 0.581947
H	 -2.648681	 -1.830232	 -1.062147
C	 -0.652596	 -1.199563	 -0.643054
H	 -2.271134	 1.831660	 1.060081
C	 -0.443907	 0.862296	 0.551777
H	 -0.198845	 -2.045684	 -1.118404
C	 0.135122	 -0.225598	 -0.059523
H	 0.166291	 1.617657	 1.004315
Br	 2.025806	 -0.390976	 -0.102421

	symmetry c1
}
set optking {
	frozen_dihedral = ("
		4 3 2 1
	")
}

ee,wfn = optimize('scf', return_wfn=True)
oeprop( wfn, 'DIPOLE', 'QUADRUPOLE', 'MULLIKEN_CHARGES')
f=open( 'psi4out.xyz', 'w' )
f.write( "13  " )
f.write( str(ee) + "\n" )
f.write( MOL.save_string_xyz() )
f.close()
--------------------------------------------------------------------------

    Molecular point group: c1
  Charge       = 0
  Multiplicity = 1
  Basis Set: CC-PVTZ
  Basis Set:
  @DF-RHF Final Energy: -2877.54401132577232
    Total Energy =                      -2877.5440113257732264
    Molecular point group: c1
  Basis Set: CC-PVTZ
  Basis Set:
  Basis Set: CC-PVTZ
  Basis Set:
  @DF-RHF Final Energy: -2877.54578736219082
    Total Energy =                      -2877.5457873621930958
  Basis Set: CC-PVTZ
  Basis Set:
  Basis Set: CC-PVTZ
  Basis Set:
  @DF-RHF Final Energy: -2877.54592461384846
    Total Energy =                      -2877.5459246138484559
  Basis Set: CC-PVTZ
  Basis Set:
  Basis Set: CC-PVTZ
  Basis Set:
  @DF-RHF Final Energy: -2877.54594282635435
    Total Energy =                      -2877.5459428263534392
  Basis Set: CC-PVTZ
  Basis Set:
  Basis Set: CC-PVTZ
  Basis Set:
  @DF-RHF Final Energy: -2877.54594730379040
    Total Energy =                      -2877.5459473037944917
  Basis Set: CC-PVTZ
  Basis Set:
  Charge       = 0
  Multiplicity = 1
  Basis Set: CC-PVTZ
  Basis Set:

    Orbital Energies (a.u.)
    -----------------------

    Doubly Occupied:

       1A   -490.018958     2A    -65.159282     3A    -58.514508
       4A    -58.513140     5A    -58.513134     6A    -20.593533
       7A    -11.309935     8A    -11.289074     9A    -11.253674
      10A    -11.252079    11A    -11.242861    12A    -11.238052
      13A     -9.833079    14A     -7.444699    15A     -7.437942
      16A     -7.437881    17A     -3.188389    18A     -3.184835
      19A     -3.184730    20A     -3.176080    21A     -3.176076
      22A     -1.424206    23A     -1.180060    24A     -1.066947
      25A     -1.042069    26A     -0.970541    27A     -0.867933
      28A     -0.827828    29A     -0.757293    30A     -0.687844
      31A     -0.654574    32A     -0.635523    33A     -0.610210
      34A     -0.605898    35A     -0.571102    36A     -0.525431
      37A     -0.508392    38A     -0.501486    39A     -0.428969
      40A     -0.414050    41A     -0.360023    42A     -0.319800

  @DF-RHF Final Energy: -2877.54594772603332

   => Energetics <=

    Nuclear Repulsion Energy =            525.4280563434440410
    One-Electron Energy =               -5042.1037737145297797
    Two-Electron Energy =                1639.1297696450506010
    DFT Exchange-Correlation Energy =       0.0000000000000000
    Empirical Dispersion Energy =           0.0000000000000000
    PCM Polarization Energy =               0.0000000000000000
    EFP Energy =                            0.0000000000000000
    Total Energy =                      -2877.5459477260351377
    Molecular point group: c1
  Basis Set: CC-PVTZ
  Basis Set:

  -Total Gradient:
     Atom            X                  Y                   Z
    ------   -----------------  -----------------  -----------------
       1        0.000062231083    -0.000018692639     0.002263875761
       2       -0.000039263720     0.000486144129    -0.003648434841
       3       -0.000125014912    -0.001328160541     0.002884977365
       4        0.000054832863     0.000832626940    -0.001482569131
       5        0.000075338263     0.000018326305    -0.000022326872
       6        0.000002102915    -0.000001474049     0.000000328221
       7       -0.000016331895    -0.000014366471    -0.000034076101
       8       -0.000013404550    -0.000006349099    -0.000000343733
       9       -0.000004258207    -0.000012806523    -0.000003271823
      10        0.000006028751     0.000003095614     0.000009010320
      11        0.000000113657     0.000047011441     0.000028572518
      12        0.000001396551     0.000001771392     0.000006491012
      13       -0.000003770644    -0.000007126630    -0.000002232730

  **** Optimization is complete! (in 6 steps) ****
    Final optimized geometry and variables:
    Molecular point group: c1

    Geometry (in Angstrom), charge = 0, multiplicity = 1:

    H           -4.382690366297    -0.508218795285     0.142063599451
    O           -3.946615051110     0.324873320791     0.136460513621
    C           -2.604774081915     0.172138268938     0.096341021052
    C           -2.004635087205    -0.912425630659    -0.515123731603
    C           -1.823241380060     1.172339822394     0.646032906063
    H           -2.607699810447    -1.681009672741    -0.961564886949
    C           -0.626554430638    -1.008946424273    -0.558488128050
    H           -2.299856956879     2.012547283843     1.110613670718
    C           -0.448492091222     1.081675843324     0.592782168077
    H           -0.164447592177    -1.853560812785    -1.028306593195
    C            0.145351068942    -0.011511255468    -0.005878281311
    H            0.155228160962     1.856658980597     1.020143786344
    BR           2.038134151453    -0.138632257269    -0.070146300407

  Mulliken Charges: (a.u.)
   Center  Symbol    Alpha    Beta     Spin     Total
       1     H     0.38526  0.38526  0.00000  0.22948
       2     O     4.17560  4.17560  0.00000 -0.35119
       3     C     2.86637  2.86637  0.00000  0.26726
       4     C     3.11352  3.11352  0.00000 -0.22704
       5     C     3.09280  3.09280  0.00000 -0.18560
       6     H     0.42646  0.42646  0.00000  0.14709
       7     C     3.08514  3.08514  0.00000 -0.17029
       8     H     0.41494  0.41494  0.00000  0.17013
       9     C     3.07870  3.07870  0.00000 -0.15740
      10     H     0.41057  0.41057  0.00000  0.17887
      11     C     2.97372  2.97372  0.00000  0.05255
      12     H     0.41058  0.41058  0.00000  0.17883
      13    BR    17.56634 17.56634  0.00000 -0.13267

   Total alpha = 42.00000, Total beta = 42.00000, Total charge = -0.00000

*** Psi4 exiting successfully. Buy a developer a beer!
