  ==> Input File <==

--------------------------------------------------------------------------
set {
	reference rhf
	basis 6-31G*
}

set_num_threads( 1 )
memory 2 gb

molecule MOL {
0 1

O	 0.625848	 1.349995	 -0.000749
C	 0.486307	 0.169203	 0.000779
C	 1.608116	 -0.841643	 0.000302
O	 -0.698257	 -0.426125	 0.001050
C	 2.990107	 -0.200498	 -0.000684
H	 1.468623	 -1.481519	 -0.865924
H	 1.469683	 -1.481289	 0.866878
H	 3.129736	 0.423364	 -0.875135
H	 3.757882	 -0.966877	 -0.001197
H	 3.130964	 0.423383	 0.873533
C	 -1.002846	 -1.285533	 -1.092587
C	 -2.393440	 -1.838114	 -0.861909
H	 -0.262620	 -2.072603	 -1.139198
H	 -0.944927	 -0.719735	 -2.012429
H	 -2.436212	 -2.397387	 0.065745
H	 -2.667044	 -2.501584	 -1.675910
H	 -3.122352	 -1.037187	 -0.812308

	symmetry c1
}
set optking {
	frozen_dihedral = ("
		2 4 11 13,
		4 2 3 6
	")
}

ee = energy('scf')
oeprop('DIPOLE', 'QUADRUPOLE', 'MULLIKEN_CHARGES')
f=open( 'psi4out.xyz', 'w' )
f.write( "17  " )
f.write( str(ee) + "\n" )
f.write( MOL.save_string_xyz() )
f.close()
--------------------------------------------------------------------------

    Molecular point group: c1

    Geometry (in Angstrom), charge = 0, multiplicity = 1:

       Center              X                  Y                   Z               Mass
    ------------   -----------------  -----------------  -----------------  -----------------
           O          0.403917121622     1.791716420396     0.284001635110    15.994914619560
           C          0.264376121622     0.610924420396     0.285529635110    12.000000000000
           C          1.386185121622    -0.399921579604     0.285052635110    12.000000000000
           O         -0.920187878378     0.015596420396     0.285800635110    15.994914619560
           C          2.768176121622     0.241223420396     0.284066635110    12.000000000000
           H          1.246692121622    -1.039797579604    -0.581173364890     1.007825032070
           H          1.247752121622    -1.039567579604     1.151628635110     1.007825032070
           H          2.907805121622     0.865085420396    -0.590384364890     1.007825032070
           H          3.535951121622    -0.525155579604     0.283553635110     1.007825032070
           H          2.909033121622     0.865104420396     1.158283635110     1.007825032070
           C         -1.224776878378    -0.843811579604    -0.807836364890    12.000000000000
           C         -2.615370878378    -1.396392579604    -0.577158364890    12.000000000000
           H         -0.484550878378    -1.630881579604    -0.854447364890     1.007825032070
           H         -1.166857878378    -0.278013579604    -1.727678364890     1.007825032070
           H         -2.658142878378    -1.955665579604     0.350495635110     1.007825032070
           H         -2.888974878378    -2.059862579604    -1.391159364890     1.007825032070
           H         -3.344282878378    -0.595465579604    -0.527557364890     1.007825032070

  Charge       = 0
  Multiplicity = 1
  Basis Set: 6-31G*
  Basis Set:

    Orbital Energies (a.u.)
    -----------------------

    Doubly Occupied:

       1A    -20.589724     2A    -20.551747     3A    -11.372846
       4A    -11.300877     5A    -11.239910     6A    -11.229000
       7A    -11.217663     8A     -1.462981     9A     -1.368051
      10A     -1.064238    11A     -1.044904    12A     -0.902553
      13A     -0.879990    14A     -0.772494    15A     -0.701744
      16A     -0.689285    17A     -0.659328    18A     -0.640797
      19A     -0.602127    20A     -0.567248    21A     -0.557847
      22A     -0.538482    23A     -0.529340    24A     -0.518242
      25A     -0.510228    26A     -0.482807    27A     -0.453899
      28A     -0.432057

  @DF-RHF Final Energy:  -344.88705328413295

   => Energetics <=

    Nuclear Repulsion Energy =            316.9408284401961851
    One-Electron Energy =               -1097.8948762139784776
    Two-Electron Energy =                 436.0669944896501420
    DFT Exchange-Correlation Energy =       0.0000000000000000
    Empirical Dispersion Energy =           0.0000000000000000
    PCM Polarization Energy =               0.0000000000000000
    EFP Energy =                            0.0000000000000000
    Total Energy =                       -344.8870532841322074

  Mulliken Charges: (a.u.)
   Center  Symbol    Alpha    Beta     Spin     Total
       1     O     4.26044  4.26044  0.00000 -0.52087
       2     C     2.60763  2.60763  0.00000  0.78475
       3     C     3.22238  3.22238  0.00000 -0.44477
       4     O     4.31118  4.31118  0.00000 -0.62235
       5     C     3.23725  3.23725  0.00000 -0.47450
       6     H     0.40609  0.40609  0.00000  0.18782
       7     H     0.39918  0.39918  0.00000  0.20165
       8     H     0.41054  0.41054  0.00000  0.17892
       9     H     0.41940  0.41940  0.00000  0.16121
      10     H     0.40826  0.40826  0.00000  0.18348
      11     C     3.00865  3.00865  0.00000 -0.01730
      12     C     3.24589  3.24589  0.00000 -0.49177
      13     H     0.41915  0.41915  0.00000  0.16171
      14     H     0.41247  0.41247  0.00000  0.17505
      15     H     0.40931  0.40931  0.00000  0.18137
      16     H     0.41722  0.41722  0.00000  0.16556
      17     H     0.40496  0.40496  0.00000  0.19007

   Total alpha = 28.00000, Total beta = 28.00000, Total charge =  0.00000
