  ==> Input File <==

--------------------------------------------------------------------------
set {
	reference rhf
	basis 6-31G*
}

set_num_threads( 4 )
memory 2 gb

molecule MOL {
0 1

O	 -0.682937	 1.318834	 -0.186099
C	 -0.860635	 0.152188	 -0.042321
C	 -2.173363	 -0.477127	 0.338347
O	 0.083258	 -0.765189	 -0.202595
H	 -2.477673	 -1.180929	 -0.427595
H	 -2.923125	 0.290956	 0.455536
H	 -2.058825	 -1.029004	 1.264191
C	 1.237710	 -0.424104	 -0.966597
C	 2.269155	 0.301399	 -0.122551
H	 0.937990	 0.170081	 -1.816452
H	 1.620878	 -1.371896	 -1.316414
H	 3.164619	 0.479711	 -0.709984
H	 1.888261	 1.257017	 0.215208
H	 2.541793	 -0.294165	 0.741965

	symmetry c1
}
set optking {
	frozen_dihedral = ("
		8 4 2 1
	")
}

ee = optimize('scf')
oeprop('DIPOLE', 'QUADRUPOLE', 'MULLIKEN_CHARGES')
f=open( 'psi4out.xyz', 'w' )
f.write( "14  " )
f.write( str(ee) + "\n" )
f.write( MOL.save_string_xyz() )
f.close()
--------------------------------------------------------------------------

    Molecular point group: c1
  Charge       = 0
  Multiplicity = 1
  Basis Set: 6-31G*
  Basis Set:
  @DF-RHF Final Energy:  -305.87293025217218
    Total Energy =                       -305.8729302521721820
    Molecular point group: c1
  Basis Set: 6-31G*
  Basis Set:
  Basis Set: 6-31G*
  Basis Set:
  @DF-RHF Final Energy:  -305.87010117461250
    Total Energy =                       -305.8701011746127278
  Basis Set: 6-31G*
  Basis Set:
  Basis Set: 6-31G*
  Basis Set:
  @DF-RHF Final Energy:  -305.87332167451780
    Total Energy =                       -305.8733216745177970
  Basis Set: 6-31G*
  Basis Set:
  Basis Set: 6-31G*
  Basis Set:
  @DF-RHF Final Energy:  -305.87340080040985
    Total Energy =                       -305.8734008004099678
  Basis Set: 6-31G*
  Basis Set:
  Basis Set: 6-31G*
  Basis Set:
  @DF-RHF Final Energy:  -305.87342072553179
    Total Energy =                       -305.8734207255317301
  Basis Set: 6-31G*
  Basis Set:
  Basis Set: 6-31G*
  Basis Set:
  @DF-RHF Final Energy:  -305.87342582682004
    Total Energy =                       -305.8734258268197550
  Basis Set: 6-31G*
  Basis Set:
  Charge       = 0
  Multiplicity = 1
  Basis Set: 6-31G*
  Basis Set:

    Orbital Energies (a.u.)
    -----------------------

    Doubly Occupied:

       1A    -20.600027     2A    -20.545863     3A    -11.376282
       4A    -11.286743     5A    -11.233606     6A    -11.216442
       7A     -1.466636     8A     -1.363104     9A     -1.054471
      10A     -0.998400    11A     -0.880861    12A     -0.768325
      13A     -0.698993    14A     -0.681259    15A     -0.654412
      16A     -0.610884    17A     -0.585479    18A     -0.570405
      19A     -0.561179    20A     -0.529618    21A     -0.511455
      22A     -0.496353    23A     -0.449184    24A     -0.439273

  @DF-RHF Final Energy:  -305.87342673839464

   => Energetics <=

    Nuclear Repulsion Energy =            248.1989600304004000
    One-Electron Energy =                -908.9862654809134028
    Two-Electron Energy =                 354.9138787121183896
    DFT Exchange-Correlation Energy =       0.0000000000000000
    Empirical Dispersion Energy =           0.0000000000000000
    PCM Polarization Energy =               0.0000000000000000
    EFP Energy =                            0.0000000000000000
    Total Energy =                       -305.8734267383946417
    Molecular point group: c1
  Basis Set: 6-31G*
  Basis Set:

  -Total Gradient:
     Atom            X                  Y                   Z
    ------   -----------------  -----------------  -----------------
       1        0.001312757939     0.001060969145     0.005960314315
       2       -0.003029853393    -0.002533289071    -0.010887315036
       3       -0.000029792117    -0.000022205820    -0.000106275508
       4        0.003805700225     0.003475528872     0.008907357612
       5        0.000010379170    -0.000017240164     0.000026868488
       6        0.000007504698     0.000003546671     0.000011912007
       7        0.000010919211     0.000025857072     0.000025505600
       8       -0.002066205562    -0.001983161418    -0.003973258056
       9        0.000020800517    -0.000020870867     0.000023622177
      10       -0.000013133792     0.000001693438     0.000005610838
      11       -0.000021264589    -0.000006816813     0.000004567111
      12       -0.000008852709     0.000005103878     0.000001264027
      13        0.000002161112     0.000004306940    -0.000001372544
      14       -0.000001120708     0.000006578137     0.000001198969

  **** Optimization is complete! (in 7 steps) ****
    Final optimized geometry and variables:
    Molecular point group: c1

    Geometry (in Angstrom), charge = 0, multiplicity = 1:

    O           -0.741687618109     1.288301266790    -0.124262680899
    C           -0.873207275841     0.130279934138     0.107956109952
    C           -2.150214823030    -0.512390769097     0.576815786206
    O            0.115507004075    -0.753178212946     0.038331092261
    H           -2.470946830439    -1.255194111396    -0.144770297811
    H           -2.914284665882     0.241062135694     0.696811421835
    H           -1.978283914017    -1.022541175629     1.517422047518
    C            1.270945721083    -0.418800559387    -0.728388611748
    C            2.331981325655     0.250496728702     0.124765030712
    H            0.977096982889     0.214985966525    -1.552174210507
    H            1.624144899937    -1.363049471918    -1.117866646453
    H            3.225455129241     0.425175969900    -0.467121178629
    H            1.976536601020     1.201555225604     0.499929717267
    H            2.598156414453    -0.381092603699     0.965346731360

  Mulliken Charges: (a.u.)
   Center  Symbol    Alpha    Beta     Spin     Total
       1     O     4.28159  4.28159  0.00000 -0.56319
       2     C     2.62124  2.62124  0.00000  0.75752
       3     C     3.28179  3.28179  0.00000 -0.56358
       4     O     4.30758  4.30758  0.00000 -0.61515
       5     H     0.40163  0.40163  0.00000  0.19674
       6     H     0.39722  0.39722  0.00000  0.20555
       7     H     0.39928  0.39928  0.00000  0.20144
       8     C     3.00630  3.00630  0.00000 -0.01260
       9     C     3.25207  3.25207  0.00000 -0.50413
      10     H     0.40645  0.40645  0.00000  0.18710
      11     H     0.41039  0.41039  0.00000  0.17922
      12     H     0.41936  0.41936  0.00000  0.16127
      13     H     0.40068  0.40068  0.00000  0.19864
      14     H     0.41442  0.41442  0.00000  0.17116

   Total alpha = 24.00000, Total beta = 24.00000, Total charge = -0.00000
