                              Psi4 1.0.54 Driver

  ==> Input File <==

--------------------------------------------------------------------------
set {
	reference rhf
	basis cc-pvtz
}

set_num_threads( 4 )
memory 2 gb

molecule MOL {
0 1

O	 0.929984	 -1.737852	 1.921590
C	 0.203467	 -1.482109	 1.023453
C	 -1.210948	 -1.970270	 0.893900
O	 0.550743	 -0.719877	 0.000412
H	 -1.883143	 -1.123967	 0.836202
H	 -1.459887	 -2.585781	 1.742845
H	 -1.316656	 -2.537062	 -0.022074
C	 1.863204	 -0.194033	 0.000410
H	 2.031502	 0.409177	 -0.879273
H	 2.524488	 -1.045142	 0.000793
H	 2.031291	 0.409823	 0.879686

	symmetry c1
}
set optking {
	frozen_dihedral = ("
		2 4 8 9
	")
}

ee,wfn = optimize('scf', return_wfn=True)
oeprop( wfn, 'DIPOLE', 'QUADRUPOLE', 'MULLIKEN_CHARGES')
f=open( 'psi4out.xyz', 'w' )
f.write( "11  " )
f.write( str(ee) + "\n" )
f.write( MOL.save_string_xyz() )
f.close()
--------------------------------------------------------------------------

    Molecular point group: c1
  Charge       = 0
  Multiplicity = 1
  Basis Set: CC-PVTZ
  Basis Set:
  @DF-RHF Final Energy:  -266.93767524071149
    Total Energy =                       -266.9376752407113145
    Molecular point group: c1
  Basis Set: CC-PVTZ
  Basis Set:
  Basis Set: CC-PVTZ
  Basis Set:
  @DF-RHF Final Energy:  -266.93853034096480
    Total Energy =                       -266.9385303409648031
  Basis Set: CC-PVTZ
  Basis Set:
  Basis Set: CC-PVTZ
  Basis Set:
  @DF-RHF Final Energy:  -266.93916187691286
    Total Energy =                       -266.9391618769128058
  Basis Set: CC-PVTZ
  Basis Set:
  Basis Set: CC-PVTZ
  Basis Set:
  @DF-RHF Final Energy:  -266.93900091699231
    Total Energy =                       -266.9390009169921996
  Basis Set: CC-PVTZ
  Basis Set:
  Basis Set: CC-PVTZ
  Basis Set:
  @DF-RHF Final Energy:  -266.93923923072953
    Total Energy =                       -266.9392392307297541
  Basis Set: CC-PVTZ
  Basis Set:
  Charge       = 0
  Multiplicity = 1
  Basis Set: CC-PVTZ
  Basis Set:

    Orbital Energies (a.u.)
    -----------------------

    Doubly Occupied:

       1A    -20.598811     2A    -20.535311     3A    -11.368828
       4A    -11.279964     5A    -11.233268     6A     -1.474391
       7A     -1.367668     8A     -1.037048     9A     -0.953699
      10A     -0.780217    11A     -0.698206    12A     -0.684678
      13A     -0.681210    14A     -0.595645    15A     -0.593706
      16A     -0.561868    17A     -0.526557    18A     -0.525786
      19A     -0.462408    20A     -0.446015

  @DF-RHF Final Energy:  -266.93923959553308

   => Energetics <=

    Nuclear Repulsion Energy =            183.7236768462442171
    One-Electron Energy =                -728.5152673707070790
    Two-Electron Energy =                 277.8523509289299227
    DFT Exchange-Correlation Energy =       0.0000000000000000
    Empirical Dispersion Energy =           0.0000000000000000
    PCM Polarization Energy =               0.0000000000000000
    EFP Energy =                            0.0000000000000000
    Total Energy =                       -266.9392395955329675
    Molecular point group: c1
  Basis Set: CC-PVTZ
  Basis Set:

  -Total Gradient:
     Atom            X                  Y                   Z
    ------   -----------------  -----------------  -----------------
       1        0.000026021658     0.000025508617    -0.000024311542
       2       -0.000034969391    -0.000009986803     0.000015548371
       3        0.000007286107     0.000008669634    -0.000014843768
       4        0.000014379769     0.000010113910     0.000014500640
       5       -0.000000449324     0.000000450643    -0.000000465655
       6        0.000012976006     0.000007281270    -0.000003250464
       7       -0.000000017540    -0.000000462807    -0.000000199528
       8        0.000013621453    -0.000036749060     0.000013376568
       9       -0.000013642527     0.000002657184    -0.000002915381
      10       -0.000002274139    -0.000008184335    -0.000003981499
      11       -0.000022932071     0.000000701749     0.000006542260

  **** Optimization is complete! (in 6 steps) ****
    Final optimized geometry and variables:
    Molecular point group: c1

    Geometry (in Angstrom), charge = 0, multiplicity = 1:

    O            0.550083857199    -0.680517612741     1.029643170424
    C           -0.255787102483    -0.310699631630     0.246237423218
    C           -1.675871754450    -0.794435068581     0.177680231521
    O           -0.003805042425     0.592325507329    -0.686116124757
    H           -2.350723279496     0.042598323396     0.301594645829
    H           -1.845669757437    -1.526662586840     0.950038971472
    H           -1.864833876170    -1.227844428242    -0.795906985073
    C            1.303003635615     1.129972963449    -0.730564996723
    H            1.306424300575     1.835977583622    -1.544978515452
    H            2.029286226977     0.350962528263    -0.908638962635
    H            1.540965191650     1.628896346945     0.197064707015

  Mulliken Charges: (a.u.)
   Center  Symbol    Alpha    Beta     Spin     Total
       1     O     4.19665  4.19665  0.00000 -0.39329
       2     C     2.80186  2.80186  0.00000  0.39628
       3     C     3.13788  3.13788  0.00000 -0.27576
       4     O     4.14770  4.14770  0.00000 -0.29540
       5     H     0.44543  0.44543  0.00000  0.10915
       6     H     0.43786  0.43786  0.00000  0.12427
       7     H     0.44543  0.44543  0.00000  0.10914
       8     C     3.03351  3.03351  0.00000 -0.06703
       9     H     0.44551  0.44551  0.00000  0.10898
      10     H     0.45409  0.45409  0.00000  0.09183
      11     H     0.45408  0.45408  0.00000  0.09183

   Total alpha = 20.00000, Total beta = 20.00000, Total charge = -0.00000

*** Psi4 exiting successfully. Buy a developer a beer!
