  ==> Input File <==

--------------------------------------------------------------------------
set {
	reference rhf
	basis 6-31G*
}

set_num_threads( 4 )
memory 2 gb

molecule MOL {
0 1

H	 -3.048796	 2.007402	 0.214113
C	 -2.388443	 2.176361	 1.062362
O	 -1.051958	 2.035060	 0.702949
H	 -2.525608	 3.188732	 1.416528
H	 -2.664745	 1.485307	 1.857679
C	 -0.719715	 0.768384	 0.229244
C	 0.719720	 0.768376	 -0.229267
H	 -0.844791	 0.025070	 1.017619
H	 -1.361149	 0.485843	 -0.603065
O	 1.392611	 -0.295398	 0.366430
H	 0.750534	 0.687200	 -1.313918
H	 1.185043	 1.714359	 0.050526
C	 2.706965	 -0.449871	 -0.062409
H	 2.756559	 -0.644779	 -1.131878
H	 3.305899	 0.433456	 0.155466
H	 3.125548	 -1.294566	 0.467107

	symmetry c1
}
set optking {
	frozen_dihedral = ("
		3 6 7 11
	")
}

ee = optimize('scf')
oeprop('DIPOLE', 'QUADRUPOLE', 'MULLIKEN_CHARGES')
f=open( 'psi4out.xyz', 'w' )
f.write( "16  " )
f.write( str(ee) + "\n" )
f.write( MOL.save_string_xyz() )
f.close()
--------------------------------------------------------------------------

    Molecular point group: c1
  Charge       = 0
  Multiplicity = 1
  Basis Set: 6-31G*
  Basis Set:
  @DF-RHF Final Energy:  -306.97375247653815
    Total Energy =                       -306.9737524765382659
    Molecular point group: c1
  Basis Set: 6-31G*
  Basis Set:
  Basis Set: 6-31G*
  Basis Set:
  @DF-RHF Final Energy:  -306.97436513173699
    Total Energy =                       -306.9743651317369313
  Basis Set: 6-31G*
  Basis Set:
  Basis Set: 6-31G*
  Basis Set:
  @DF-RHF Final Energy:  -306.97443647822638
    Total Energy =                       -306.9744364782264370
  Basis Set: 6-31G*
  Basis Set:
  Basis Set: 6-31G*
  Basis Set:
  @DF-RHF Final Energy:  -306.97444320905299
    Total Energy =                       -306.9744432090530495
  Basis Set: 6-31G*
  Basis Set:
  Charge       = 0
  Multiplicity = 1
  Basis Set: 6-31G*
  Basis Set:

    Orbital Energies (a.u.)
    -----------------------

    Doubly Occupied:

       1A    -20.556963     2A    -20.556630     3A    -11.267717
       4A    -11.267082     5A    -11.265629     6A    -11.265497
       7A     -1.387060     8A     -1.375056     9A     -1.027319
      10A     -0.939502    11A     -0.884861    12A     -0.831461
      13A     -0.687344    14A     -0.675966    15A     -0.657037
      16A     -0.643684    17A     -0.625103    18A     -0.599006
      19A     -0.560673    20A     -0.526351    21A     -0.507638
      22A     -0.480803    23A     -0.465899    24A     -0.420000
      25A     -0.412723

  @DF-RHF Final Energy:  -306.97444345235220

   => Energetics <=

    Nuclear Repulsion Energy =            255.0312375085262033
    One-Electron Energy =                -924.2373565440520906
    Two-Electron Energy =                 362.2316755831736259
    DFT Exchange-Correlation Energy =       0.0000000000000000
    Empirical Dispersion Energy =           0.0000000000000000
    PCM Polarization Energy =               0.0000000000000000
    EFP Energy =                            0.0000000000000000
    Total Energy =                       -306.9744434523523182
    Molecular point group: c1
  Basis Set: 6-31G*
  Basis Set:

  -Total Gradient:
     Atom            X                  Y                   Z
    ------   -----------------  -----------------  -----------------
       1       -0.000000848624     0.000003882548    -0.000002789142
       2        0.000001044767    -0.000033346475    -0.000000545073
       3        0.000573721577    -0.000506590499     0.001745624090
       4        0.000015336059     0.000000384030    -0.000009353805
       5       -0.000000355256    -0.000000006467     0.000001288080
       6       -0.000736937194    -0.000001120501    -0.002208356019
       7        0.000141120318     0.002935592481     0.000257882078
       8       -0.000005926618     0.000001864526     0.000011437189
       9        0.000010963623     0.000014962673    -0.000000824817
      10       -0.000034913073     0.000028508051    -0.000010385203
      11        0.000046074703    -0.002477766684     0.000227946413
      12        0.000008977227     0.000008267074     0.000000012189
      13        0.000005858602     0.000029896907    -0.000014684090
      14       -0.000001617486    -0.000004719725     0.000000022350
      15       -0.000000309999     0.000000772611     0.000001068217
      16       -0.000022188628    -0.000000580549     0.000001657542

  **** Optimization is complete! (in 5 steps) ****
    Final optimized geometry and variables:
    Molecular point group: c1

    Geometry (in Angstrom), charge = 0, multiplicity = 1:

    H           -3.192395217564     1.135150083031    -0.027840582262
    C           -2.476033474658     1.345289053888     0.764574337588
    O           -1.165271649914     1.217696031038     0.314836829867
    H           -2.609964907189     2.365986829183     1.095530355190
    H           -2.677825453175     0.674768602890     1.597769399377
    C           -0.842850027994    -0.062966992348    -0.141360618168
    C            0.612898790359    -0.069440031636    -0.600479073708
    H           -0.952532573405    -0.789697733340     0.658716678727
    H           -1.513210298273    -0.351402880828    -0.948932099507
    O            1.261278050695    -1.156152848457    -0.005349997355
    H            0.682143112384    -0.162967045184    -1.682750673891
    H            1.078241219884     0.866194375193    -0.305006648209
    C            2.602486575212    -1.276440831120    -0.356126611191
    H            2.723416800180    -1.420534504782    -1.428525139783
    H            3.171893005053    -0.397196849049    -0.060754159021
    H            2.998877648888    -2.140252088042     0.159653265833

  Mulliken Charges: (a.u.)
   Center  Symbol    Alpha    Beta     Spin     Total
       1     H     0.43006  0.43006  0.00000  0.13988
       2     C     3.08040  3.08040  0.00000 -0.16080
       3     O     4.30813  4.30813  0.00000 -0.61625
       4     H     0.41162  0.41162  0.00000  0.17676
       5     H     0.42821  0.42821  0.00000  0.14359
       6     C     2.99980  2.99980  0.00000  0.00041
       7     C     2.99936  2.99936  0.00000  0.00129
       8     H     0.41301  0.41301  0.00000  0.17397
       9     H     0.42870  0.42870  0.00000  0.14259
      10     O     4.30854  4.30854  0.00000 -0.61707
      11     H     0.42887  0.42887  0.00000  0.14226
      12     H     0.41281  0.41281  0.00000  0.17438
      13     C     3.08030  3.08030  0.00000 -0.16059
      14     H     0.43025  0.43025  0.00000  0.13949
      15     H     0.42829  0.42829  0.00000  0.14343
      16     H     0.41167  0.41167  0.00000  0.17667

   Total alpha = 25.00000, Total beta = 25.00000, Total charge =  0.00000
