                              Psi4 1.0.54 Driver

  ==> Input File <==

--------------------------------------------------------------------------
set {
	reference rhf
	basis cc-pvtz
}

set_num_threads( 4 )
memory 2 gb

molecule MOL {
0 1

H	 -2.259155	 0.205988	 3.198982
C	 -2.304096	 -0.170435	 2.197686
C	 -1.195962	 -0.317648	 1.513791
H	 -3.259899	 -0.419664	 1.780404
O	 -1.189946	 -0.765863	 0.237511
H	 -0.232103	 -0.079013	 1.925079
C	 0.026572	 -0.995256	 -0.379403
C	 1.057223	 0.049888	 -0.004615
H	 -0.054361	 -1.010670	 -1.459674
H	 0.397526	 -1.952058	 -0.044198
F	 2.203233	 -0.234060	 -0.590375
F	 0.698147	 1.254887	 -0.392621
F	 1.266440	 0.094219	 1.288722

	symmetry c1
}
set optking {
	frozen_dihedral = ("
		3 5 7 9
	")
}

ee,wfn = optimize('scf', return_wfn=True)
oeprop( wfn, 'DIPOLE', 'QUADRUPOLE', 'MULLIKEN_CHARGES')
f=open( 'psi4out.xyz', 'w' )
f.write( "13  " )
f.write( str(ee) + "\n" )
f.write( MOL.save_string_xyz() )
f.close()
--------------------------------------------------------------------------

    Molecular point group: c1
  Charge       = 0
  Multiplicity = 1
  Basis Set: CC-PVTZ
  Basis Set:
  @DF-RHF Final Energy:  -527.71536159485640
    Total Energy =                       -527.7153615948564038
    Molecular point group: c1
  Basis Set: CC-PVTZ
  Basis Set:
  Basis Set: CC-PVTZ
  Basis Set:
  @DF-RHF Final Energy:  -527.62302812305256
    Total Energy =                       -527.6230281230525634
  Basis Set: CC-PVTZ
  Basis Set:
  Basis Set: CC-PVTZ
  Basis Set:
  @DF-RHF Final Energy:  -527.71556209010942
    Total Energy =                       -527.7155620901091879
  Basis Set: CC-PVTZ
  Basis Set:
  Basis Set: CC-PVTZ
  Basis Set:
  @DF-RHF Final Energy:  -527.73306587883508
    Total Energy =                       -527.7330658788351911
  Basis Set: CC-PVTZ
  Basis Set:
  @DF-RHF Final Energy:  -527.73494136250497
    Total Energy =                       -527.7349413625050829
  @DF-RHF Final Energy:  -527.73558527806108
    Total Energy =                       -527.7355852780610803
  @DF-RHF Final Energy:  -527.73589099123637
    Total Energy =                       -527.7358909912367153
  @DF-RHF Final Energy:  -527.73597352414345
    Total Energy =                       -527.7359735241432190
  @DF-RHF Final Energy:  -527.73607210988348
    Total Energy =                       -527.7360721098834802
  @DF-RHF Final Energy:  -527.73612063705718
    Total Energy =                       -527.7361206370571836
  @DF-RHF Final Energy:  -527.73617748267657
    Total Energy =                       -527.7361774826771352
  @DF-RHF Final Energy:  -527.73620483617856
    Total Energy =                       -527.7362048361786719
  @DF-RHF Final Energy:  -527.73622806376989
    Total Energy =                       -527.7362280637695449
  @DF-RHF Final Energy:  -527.73627175903209
    Total Energy =                       -527.7362717590319789
  @DF-RHF Final Energy:  -527.73431091358839
    Total Energy =                       -527.7343109135885015
  @DF-RHF Final Energy:  -527.73513933748632
    Total Energy =                       -527.7351393374862027
  @DF-RHF Final Energy:  -527.73596062963679
    Total Energy =                       -527.7359606296370202
  @DF-RHF Final Energy:  -527.73628590019769
    Total Energy =                       -527.7362859001980269
  @DF-RHF Final Energy:  -527.73629903381720
    Total Energy =                       -527.7362990338174313
  @DF-RHF Final Energy:  -527.73630413539183
    Total Energy =                       -527.7363041353914923
  @DF-RHF Final Energy:  -527.73367951273849
    Total Energy =                       -527.7336795127384903
  @DF-RHF Final Energy:  -527.72871634625312
    Total Energy =                       -527.7287163462530089
  @DF-RHF Final Energy:  -527.72240483049995
    Total Energy =                       -527.7224048305001816
  @DF-RHF Final Energy:  -527.70851325460217
    Total Energy =                       -527.7085132546021669
  @DF-RHF Final Energy:  -527.73478409677500
    Total Energy =                       -527.7347840967748880
  @DF-RHF Final Energy:  -527.73611986909918
    Total Energy =                       -527.7361198690996389
  Basis Set: CC-PVTZ
  Basis Set:
  @DF-RHF Final Energy:  -527.73624371817823
    Total Energy =                       -527.7362437181783434
  Basis Set: CC-PVTZ
  Basis Set:
  Basis Set: CC-PVTZ
  Basis Set:
  @DF-RHF Final Energy:  -527.73629370871265
    Total Energy =                       -527.7362937087127648
  Basis Set: CC-PVTZ
  Basis Set:
  Basis Set: CC-PVTZ
  Basis Set:
  @DF-RHF Final Energy:  -527.73630377927248
    Total Energy =                       -527.7363037792723617
  Basis Set: CC-PVTZ
  Basis Set:
  Charge       = 0
  Multiplicity = 1
  Basis Set: CC-PVTZ
  Basis Set:

    Orbital Energies (a.u.)
    -----------------------

    Doubly Occupied:

       1A    -26.343173     2A    -26.342985     3A    -26.341031
       4A    -20.599050     5A    -11.501560     6A    -11.319459
       7A    -11.294158     8A    -11.214820     9A     -1.753141
      10A     -1.648572    11A     -1.648436    12A     -1.437118
      13A     -1.085559    14A     -1.022493    15A     -0.934102
      16A     -0.844802    17A     -0.841516    18A     -0.837612
      19A     -0.779098    20A     -0.727197    21A     -0.721367
      22A     -0.700624    23A     -0.684665    24A     -0.669467
      25A     -0.663411    26A     -0.653344    27A     -0.644353
      28A     -0.597392    29A     -0.564060    30A     -0.525615
      31A     -0.498490    32A     -0.359844

  @DF-RHF Final Energy:  -527.73630456022715

   => Energetics <=

    Nuclear Repulsion Energy =            417.9230495515357688
    One-Electron Energy =               -1559.7216829815977235
    Two-Electron Energy =                 614.0623288698349143
    DFT Exchange-Correlation Energy =       0.0000000000000000
    Empirical Dispersion Energy =           0.0000000000000000
    PCM Polarization Energy =               0.0000000000000000
    EFP Energy =                            0.0000000000000000
    Total Energy =                       -527.7363045602270404
    Molecular point group: c1
  Basis Set: CC-PVTZ
  Basis Set:

  -Total Gradient:
     Atom            X                  Y                   Z
    ------   -----------------  -----------------  -----------------
       1       -0.000021575534    -0.000018067077    -0.000007521893
       2        0.000029844508    -0.000012823322    -0.000038012340
       3       -0.004569373347     0.002623065250    -0.000675727095
       4        0.000038536823     0.000028481500    -0.000004007123
       5        0.005961149632    -0.002893517550     0.001083692766
       6       -0.000036732890    -0.000036873130    -0.000008932760
       7        0.002569997549    -0.004134119529    -0.000118729780
       8       -0.000123449261    -0.000033356953    -0.000133581468
       9       -0.003951139201     0.004434454287    -0.000186458627
      10       -0.000012025753     0.000015453403    -0.000023311962
      11       -0.000006329237    -0.000008794872     0.000037701630
      12        0.000094103721    -0.000013366744     0.000018059470
      13        0.000026992991     0.000049464730     0.000056829177

  **** Optimization is complete! (in 30 steps) ****
    Final optimized geometry and variables:
    Molecular point group: c1

    Geometry (in Angstrom), charge = 0, multiplicity = 1:

    H           -0.233611956515     0.210810389812     3.745179171041
    C           -0.530905424589    -0.424516487120     2.935921959446
    C            0.226199839806    -0.513461229144     1.870701186739
    H           -1.443213237193    -0.981259997032     3.023393787667
    O           -0.072691307387    -1.359583588532     0.853867995214
    H            1.141653418179     0.037958385534     1.768722891290
    C            0.309489900888    -1.072435037292    -0.448405794342
    C            0.067431063530     0.354648315615    -0.913750312038
    H           -0.323863511322    -1.667695062724    -1.088048144811
    H            1.352069899867    -1.305993172145    -0.630579826318
    F            0.265263795409     0.404890809111    -2.215745905008
    F           -1.159152063144     0.750322449624    -0.674995468761
    F            0.883319699278     1.231870359134    -0.365488826304

  Mulliken Charges: (a.u.)
   Center  Symbol    Alpha    Beta     Spin     Total
       1     H     0.42535  0.42535  0.00000  0.14929
       2     C     3.18844  3.18844  0.00000 -0.37687
       3     C     2.96969  2.96969  0.00000  0.06063
       4     H     0.42428  0.42428  0.00000  0.15145
       5     O     4.14824  4.14824  0.00000 -0.29647
       6     H     0.42809  0.42809  0.00000  0.14383
       7     C     3.01156  3.01156  0.00000 -0.02312
       8     C     2.68388  2.68388  0.00000  0.63225
       9     H     0.44073  0.44073  0.00000  0.11853
      10     H     0.45071  0.45071  0.00000  0.09857
      11     F     4.60948  4.60948  0.00000 -0.21897
      12     F     4.60671  4.60671  0.00000 -0.21343
      13     F     4.61284  4.61284  0.00000 -0.22569

   Total alpha = 32.00000, Total beta = 32.00000, Total charge = -0.00000

*** Psi4 exiting successfully. Buy a developer a beer!
