                              Psi4 1.0.54 Driver

  ==> Input File <==

--------------------------------------------------------------------------
set {
	reference rhf
	basis cc-pvtz
}

set_num_threads( 4 )
memory 2 gb

molecule MOL {
0 1

H	 3.459101	 0.139266	 -0.762951
C	 2.749156	 -0.051729	 0.031265
C	 1.322304	 0.099773	 -0.484271
H	 2.929445	 -1.053887	 0.403481
H	 2.954281	 0.646699	 0.834672
C	 0.308557	 -0.162619	 0.622645
H	 1.143368	 -0.594400	 -1.295960
H	 1.169532	 1.100095	 -0.870217
N	 -1.069352	 -0.004081	 0.085342
H	 0.371632	 -1.172932	 0.991288
H	 0.400391	 0.548875	 1.426218
O	 -1.588864	 -0.967846	 -0.368355
O	 -1.544075	 1.081433	 0.120524

	symmetry c1
}
set optking {
	frozen_dihedral = ("
		12 9 6 3
	")
}

ee,wfn = optimize('scf', return_wfn=True)
oeprop( wfn, 'DIPOLE', 'QUADRUPOLE', 'MULLIKEN_CHARGES')
f=open( 'psi4out.xyz', 'w' )
f.write( "13  " )
f.write( str(ee) + "\n" )
f.write( MOL.save_string_xyz() )
f.close()
--------------------------------------------------------------------------

    Molecular point group: c1
  Charge       = 0
  Multiplicity = 1
  Basis Set: CC-PVTZ
  Basis Set:
  @DF-RHF Final Energy:  -321.86153994352605
    Total Energy =                       -321.8615399435262248
    Molecular point group: c1
  Basis Set: CC-PVTZ
  Basis Set:
  Basis Set: CC-PVTZ
  Basis Set:
  @DF-RHF Final Energy:  -321.86153479530077
    Total Energy =                       -321.8615347953005426
  Basis Set: CC-PVTZ
  Basis Set:
  Basis Set: CC-PVTZ
  Basis Set:
  @DF-RHF Final Energy:  -321.86153779768301
    Total Energy =                       -321.8615377976832406
  Basis Set: CC-PVTZ
  Basis Set:
  Charge       = 0
  Multiplicity = 1
  Basis Set: CC-PVTZ
  Basis Set:

    Orbital Energies (a.u.)
    -----------------------

    Doubly Occupied:

       1A    -20.590438     2A    -20.590267     3A    -15.836916
       4A    -11.297261     5A    -11.254339     6A    -11.237302
       7A     -1.635950     8A     -1.420282     9A     -1.134386
      10A     -1.027928    11A     -0.884046    12A     -0.834531
      13A     -0.761517    14A     -0.738543    15A     -0.727520
      16A     -0.673609    17A     -0.604153    18A     -0.588589
      19A     -0.551503    20A     -0.520537    21A     -0.515084
      22A     -0.486853    23A     -0.475180    24A     -0.452883

  @DF-RHF Final Energy:  -321.86154032492567

   => Energetics <=

    Nuclear Repulsion Energy =            248.0213801386387900
    One-Electron Energy =                -930.0866067870016423
    Two-Electron Energy =                 360.2036863234373527
    DFT Exchange-Correlation Energy =       0.0000000000000000
    Empirical Dispersion Energy =           0.0000000000000000
    PCM Polarization Energy =               0.0000000000000000
    EFP Energy =                            0.0000000000000000
    Total Energy =                       -321.8615403249254427
    Molecular point group: c1
  Basis Set: CC-PVTZ
  Basis Set:

  -Total Gradient:
     Atom            X                  Y                   Z
    ------   -----------------  -----------------  -----------------
       1        0.000006489433     0.000000733782    -0.000006798836
       2       -0.000002408000    -0.000001300252     0.000003459501
       3       -0.000002672184     0.000017103941     0.000001966296
       4        0.000002453682    -0.000008368352     0.000002541599
       5        0.000000592244     0.000005926704     0.000003873813
       6       -0.000008320535    -0.000024734379     0.000026358120
       7       -0.000003575455    -0.000003407338    -0.000002552449
       8       -0.000000116263     0.000006516370    -0.000003175835
       9        0.000035044910     0.000000694320    -0.000099768933
      10        0.000001944896    -0.000001380832     0.000003096941
      11        0.000002228245     0.000004600027     0.000002753110
      12       -0.000019026302    -0.000000069155     0.000040516789
      13       -0.000012634671     0.000003685164     0.000027729884

  **** Optimization is complete! (in 4 steps) ****
    Final optimized geometry and variables:
    Molecular point group: c1

    Geometry (in Angstrom), charge = 0, multiplicity = 1:

    H            3.459347161692     0.137312471885    -0.763355151306
    C            2.749327431530    -0.051806238421     0.031263198671
    C            1.322558480346     0.101548719644    -0.484061397892
    H            2.928237415052    -1.053857868792     0.404466197781
    H            2.955798781880     0.647133075102     0.833920347897
    C            0.308693530207    -0.161645803992     0.622586244838
    H            1.143135749429    -0.591612575676    -1.296669582894
    H            1.170406050769     1.102338488850    -0.868787853025
    N           -1.069311990421    -0.004568824595     0.085082216710
    H            0.372691118440    -1.171430401840     0.992261594361
    H            0.399654119021     0.550755839999     1.425628461420
    O           -1.588406531602    -0.968621216243    -0.368716783065
    O           -1.545078666462     1.080478452554     0.121011455328

  Mulliken Charges: (a.u.)
   Center  Symbol    Alpha    Beta     Spin     Total
       1     H     0.44167  0.44167  0.00000  0.11666
       2     C     3.15108  3.15108  0.00000 -0.30216
       3     C     3.09597  3.09597  0.00000 -0.19193
       4     H     0.45158  0.45158  0.00000  0.09684
       5     H     0.45158  0.45158  0.00000  0.09684
       6     C     3.03938  3.03938  0.00000 -0.07875
       7     H     0.43814  0.43814  0.00000  0.12372
       8     H     0.43785  0.43785  0.00000  0.12431
       9     N     3.27591  3.27591  0.00000  0.44819
      10     H     0.43455  0.43455  0.00000  0.13090
      11     H     0.43465  0.43465  0.00000  0.13070
      12     O     4.17369  4.17369  0.00000 -0.34739
      13     O     4.17396  4.17396  0.00000 -0.34792

   Total alpha = 24.00000, Total beta = 24.00000, Total charge =  0.00000

*** Psi4 exiting successfully. Buy a developer a beer!
