  ==> Input File <==

--------------------------------------------------------------------------
set {
	reference rhf
	basis 6-31G*
}

set_num_threads( 4 )
memory 2 gb

molecule MOL {
0 1

H	 2.465338	 -2.224223	 0.000000
O	 2.784187	 -1.332015	 0.000000
C	 1.765313	 -0.449364	 0.000000
C	 1.559439	 0.288359	 1.161604
C	 0.942377	 -0.263140	 -1.093724
H	 2.212580	 0.125350	 1.998081
C	 0.532728	 1.207645	 1.223582
H	 1.078107	 -0.817727	 -2.001213
C	 -0.078981	 0.668161	 -0.997166
H	 0.380948	 1.772884	 2.124318
C	 -0.307965	 1.413087	 0.137823
N	 -0.946641	 0.861262	 -2.157065
H	 -1.108594	 2.122532	 0.170758
O	 -0.727128	 0.203068	 -3.128984
O	 -1.823259	 1.664667	 -2.065715

	symmetry c1
}
set optking {
	frozen_dihedral = ("
		4 3 2 1
	")
}

ee = optimize('scf')
oeprop('DIPOLE', 'QUADRUPOLE', 'MULLIKEN_CHARGES')
f=open( 'psi4out.xyz', 'w' )
f.write( "15  " )
f.write( str(ee) + "\n" )
f.write( MOL.save_string_xyz() )
f.close()
--------------------------------------------------------------------------

    Molecular point group: c1
  Charge       = 0
  Multiplicity = 1
  Basis Set: 6-31G*
  Basis Set:
  @DF-RHF Final Energy:  -509.02325235444926
    Total Energy =                       -509.0232523544497099
    Molecular point group: c1
  Basis Set: 6-31G*
  Basis Set:
  Basis Set: 6-31G*
  Basis Set:
  @DF-RHF Final Energy:  -509.02360540870620
    Total Energy =                       -509.0236054087065440
  Basis Set: 6-31G*
  Basis Set:
  Basis Set: 6-31G*
  Basis Set:
  @DF-RHF Final Energy:  -508.99653123178911
    Total Energy =                       -508.9965312317891630
  Basis Set: 6-31G*
  Basis Set:
  Basis Set: 6-31G*
  Basis Set:
  @DF-RHF Final Energy:  -509.02204937674304
    Total Energy =                       -509.0220493767428707
  Basis Set: 6-31G*
  Basis Set:
  Basis Set: 6-31G*
  Basis Set:
  @DF-RHF Final Energy:  -509.02388267861056
    Total Energy =                       -509.0238826786103346
  Basis Set: 6-31G*
  Basis Set:
  Basis Set: 6-31G*
  Basis Set:
  @DF-RHF Final Energy:  -509.02389156838558
    Total Energy =                       -509.0238915683853520
  Basis Set: 6-31G*
  Basis Set:
  Charge       = 0
  Multiplicity = 1
  Basis Set: 6-31G*
  Basis Set:

    Orbital Energies (a.u.)
    -----------------------

    Doubly Occupied:

       1A    -20.604095     2A    -20.603962     3A    -20.602482
       4A    -15.858888     5A    -11.321957     6A    -11.309547
       7A    -11.269099     8A    -11.268521     9A    -11.266207
      10A    -11.264300    11A     -1.637589    12A     -1.420981
      13A     -1.419954    14A     -1.200821    15A     -1.094719
      16A     -1.046501    17A     -0.964517    18A     -0.869875
      19A     -0.831001    20A     -0.791605    21A     -0.739800
      22A     -0.736481    23A     -0.722117    24A     -0.709253
      25A     -0.678510    26A     -0.641710    27A     -0.625171
      28A     -0.568543    29A     -0.554686    30A     -0.531450
      31A     -0.512120    32A     -0.490570    33A     -0.485692
      34A     -0.454287    35A     -0.377147    36A     -0.356902

  @DF-RHF Final Energy:  -509.02389285848909

   => Energetics <=

    Nuclear Repulsion Energy =            502.8596173318940714
    One-Electron Energy =               -1692.1048951713464703
    Two-Electron Energy =                 680.2213849809635349
    DFT Exchange-Correlation Energy =       0.0000000000000000
    Empirical Dispersion Energy =           0.0000000000000000
    PCM Polarization Energy =               0.0000000000000000
    EFP Energy =                            0.0000000000000000
    Total Energy =                       -509.0238928584889209
    Molecular point group: c1
  Basis Set: 6-31G*
  Basis Set:

  -Total Gradient:
     Atom            X                  Y                   Z
    ------   -----------------  -----------------  -----------------
       1        0.000026255753     0.000012328620     0.001471146201
       2       -0.000320865503    -0.000336953927    -0.001626395483
       3        0.000851772486     0.001051372600    -0.000394564624
       4       -0.000716205204    -0.000665595088     0.000484370377
       5        0.000135666668    -0.000087484264     0.000070820194
       6        0.000008670703    -0.000002099400    -0.000019832984
       7        0.000145539438    -0.000071334041     0.000076774685
       8       -0.000006560049    -0.000003706199    -0.000012289243
       9       -0.000121255910     0.000151615253     0.000052481208
      10       -0.000021416666     0.000005477741    -0.000005455400
      11       -0.000036322219    -0.000049402924    -0.000174137447
      12       -0.000044531818     0.000023302233    -0.000095142667
      13        0.000004490495    -0.000000875318     0.000016023887
      14        0.000061711357    -0.000011000758     0.000105791445
      15        0.000033050470    -0.000015644522     0.000050409851

  **** Optimization is complete! (in 7 steps) ****
    Final optimized geometry and variables:
    Molecular point group: c1

    Geometry (in Angstrom), charge = 0, multiplicity = 1:

    H            2.126277801685    -2.629400496153     0.726100959979
    O            2.446394091882    -1.736808314532     0.727493381772
    C            1.408659987011    -0.852738930249     0.775724918018
    C            1.201855861356    -0.115115422994     1.931414288152
    C            0.593742641094    -0.666234725073    -0.325253580869
    H            1.853286853065    -0.275446942795     2.770135396612
    C            0.178680466452     0.815851054347     1.988841052264
    H            0.753683218236    -1.220209097989    -1.227872606368
    C           -0.427330426676     0.262383750878    -0.235976534282
    H            0.025202933306     1.386740396821     2.885625684236
    C           -0.654033365551     1.013793911858     0.900623280682
    N           -1.294424660462     0.456231412616    -1.394716721958
    H           -1.452889884221     1.725916849293     0.926686984629
    O           -1.095819451833    -0.223822808518    -2.355260217490
    O           -2.152354768139     1.281440467143    -1.312068645733

  Mulliken Charges: (a.u.)
   Center  Symbol    Alpha    Beta     Spin     Total
       1     H     0.26755  0.26755  0.00000  0.46491
       2     O     4.38424  4.38424  0.00000 -0.76848
       3     C     2.81702  2.81702  0.00000  0.36596
       4     C     3.10232  3.10232  0.00000 -0.20463
       5     C     3.11334  3.11334  0.00000 -0.22667
       6     H     0.38217  0.38217  0.00000  0.23567
       7     C     3.10537  3.10537  0.00000 -0.21074
       8     H     0.36137  0.36137  0.00000  0.27726
       9     C     2.91766  2.91766  0.00000  0.16468
      10     H     0.38652  0.38652  0.00000  0.22696
      11     C     3.09083  3.09083  0.00000 -0.18166
      12     N     3.24055  3.24055  0.00000  0.51890
      13     H     0.36417  0.36417  0.00000  0.27165
      14     O     4.23374  4.23374  0.00000 -0.46749
      15     O     4.23316  4.23316  0.00000 -0.46633

   Total alpha = 36.00000, Total beta = 36.00000, Total charge = -0.00000
