                              Psi4 1.0.54 Driver

  ==> Input File <==

--------------------------------------------------------------------------
set {
	reference rhf
	basis cc-pvtz
}

set_num_threads( 4 )
memory 2 gb

molecule MOL {
0 1

H	 -3.011737	 -2.168597	 2.597898
C	 -2.757124	 -1.502185	 1.799540
C	 -1.578558	 -1.594058	 1.233954
H	 -3.478318	 -0.775038	 1.481837
O	 -1.189946	 -0.765863	 0.237511
H	 -0.851450	 -2.324506	 1.538727
C	 0.026572	 -0.995256	 -0.379403
C	 1.057223	 0.049888	 -0.004615
H	 -0.054361	 -1.010670	 -1.459674
H	 0.397526	 -1.952058	 -0.044198
F	 2.203233	 -0.234060	 -0.590375
F	 0.698147	 1.254887	 -0.392621
F	 1.266440	 0.094219	 1.288722

	symmetry c1
}
set optking {
	frozen_dihedral = ("
		3 5 7 9
	")
}

ee,wfn = optimize('scf', return_wfn=True)
oeprop( wfn, 'DIPOLE', 'QUADRUPOLE', 'MULLIKEN_CHARGES')
f=open( 'psi4out.xyz', 'w' )
f.write( "13  " )
f.write( str(ee) + "\n" )
f.write( MOL.save_string_xyz() )
f.close()
--------------------------------------------------------------------------

    Molecular point group: c1
  Charge       = 0
  Multiplicity = 1
  Basis Set: CC-PVTZ
  Basis Set:
  @DF-RHF Final Energy:  -527.74033648228374
    Total Energy =                       -527.7403364822837375
    Molecular point group: c1
  Basis Set: CC-PVTZ
  Basis Set:
  Basis Set: CC-PVTZ
  Basis Set:
  @DF-RHF Final Energy:  -527.74116935329039
    Total Energy =                       -527.7411693532907293
  Basis Set: CC-PVTZ
  Basis Set:
  Basis Set: CC-PVTZ
  Basis Set:
  @DF-RHF Final Energy:  -527.74154630500379
    Total Energy =                       -527.7415463050043627
  Basis Set: CC-PVTZ
  Basis Set:
  Basis Set: CC-PVTZ
  Basis Set:
  @DF-RHF Final Energy:  -527.74155598792163
    Total Energy =                       -527.7415559879220837
  Basis Set: CC-PVTZ
  Basis Set:
  Basis Set: CC-PVTZ
  Basis Set:
  @DF-RHF Final Energy:  -527.74155940360731
    Total Energy =                       -527.7415594036074253
  Basis Set: CC-PVTZ
  Basis Set:
  Charge       = 0
  Multiplicity = 1
  Basis Set: CC-PVTZ
  Basis Set:

    Orbital Energies (a.u.)
    -----------------------

    Doubly Occupied:

       1A    -26.341081     2A    -26.338983     3A    -26.337292
       4A    -20.603898     5A    -11.497368     6A    -11.320366
       7A    -11.300377     8A    -11.214571     9A     -1.749552
      10A     -1.645966    11A     -1.644465    12A     -1.445118
      13A     -1.089878    14A     -1.020093    15A     -0.931523
      16A     -0.844113    17A     -0.839052    18A     -0.821049
      19A     -0.803498    20A     -0.729562    21A     -0.719172
      22A     -0.705456    23A     -0.682389    24A     -0.666690
      25A     -0.660766    26A     -0.649899    27A     -0.638437
      28A     -0.588051    29A     -0.565815    30A     -0.531361
      31A     -0.518559    32A     -0.356929

  @DF-RHF Final Energy:  -527.74156012191111

   => Energetics <=

    Nuclear Repulsion Energy =            410.8231365073823440
    One-Electron Energy =               -1545.5267333081465040
    Two-Electron Energy =                 606.9620366788528827
    DFT Exchange-Correlation Energy =       0.0000000000000000
    Empirical Dispersion Energy =           0.0000000000000000
    PCM Polarization Energy =               0.0000000000000000
    EFP Energy =                            0.0000000000000000
    Total Energy =                       -527.7415601219113341
    Molecular point group: c1
  Basis Set: CC-PVTZ
  Basis Set:

  -Total Gradient:
     Atom            X                  Y                   Z
    ------   -----------------  -----------------  -----------------
       1       -0.000019494137    -0.000029659529    -0.000022929722
       2       -0.000024062879    -0.000003146076     0.000043551496
       3       -0.000310665756    -0.000273664739    -0.000526165405
       4       -0.000030559799     0.000027201666    -0.000006350705
       5        0.000499345556     0.000264467412     0.000841047785
       6        0.000001023558    -0.000066012955    -0.000027983948
       7        0.000072335857     0.000966499808    -0.000307201341
       8       -0.000066469212     0.000183715614    -0.000074037118
       9       -0.000230002767    -0.000928946888    -0.000051777853
      10       -0.000021013491    -0.000004781325     0.000024137784
      11        0.000026185749     0.000024888806    -0.000011904723
      12        0.000070215589    -0.000170255825     0.000036342344
      13        0.000033161730     0.000009694022     0.000083271404

  **** Optimization is complete! (in 6 steps) ****
    Final optimized geometry and variables:
    Molecular point group: c1

    Geometry (in Angstrom), charge = 0, multiplicity = 1:

    H           -3.272067891691    -1.592488062413     2.191850096683
    C           -2.951142905398    -0.931126194757     1.413416117538
    C           -1.770803155835    -1.101613202577     0.869268261493
    H           -3.604237091290    -0.138672425959     1.104651739528
    O           -1.302048404939    -0.295302126187    -0.107529142726
    H           -1.107625590168    -1.889884708644     1.176807689399
    C           -0.112868573230    -0.622258384278    -0.735610292387
    C            0.970745773071     0.367443566016    -0.367007689369
    H           -0.251523376086    -0.588029496613    -1.807138723013
    H            0.239590834428    -1.609528072328    -0.465526062787
    F            2.087944752215     0.049874492985    -0.990566700721
    F            0.656848009679     1.594127815619    -0.705786802322
    F            1.216245937889     0.358172082223     0.924775913447

  Mulliken Charges: (a.u.)
   Center  Symbol    Alpha    Beta     Spin     Total
       1     H     0.42487  0.42487  0.00000  0.15025
       2     C     3.19871  3.19871  0.00000 -0.39742
       3     C     2.96033  2.96033  0.00000  0.07933
       4     H     0.42459  0.42459  0.00000  0.15081
       5     O     4.14390  4.14390  0.00000 -0.28780
       6     H     0.43534  0.43534  0.00000  0.12932
       7     C     3.01172  3.01172  0.00000 -0.02344
       8     C     2.67536  2.67536  0.00000  0.64927
       9     H     0.43903  0.43903  0.00000  0.12194
      10     H     0.45702  0.45702  0.00000  0.08597
      11     F     4.61282  4.61282  0.00000 -0.22565
      12     F     4.60643  4.60643  0.00000 -0.21286
      13     F     4.60986  4.60986  0.00000 -0.21973

   Total alpha = 32.00000, Total beta = 32.00000, Total charge = -0.00000

*** Psi4 exiting successfully. Buy a developer a beer!
