  ==> Input File <==

--------------------------------------------------------------------------
set {
	reference rhf
	basis 6-31G*
}

set_num_threads( 4 )
memory 2 gb

molecule MOL {
0 1

H	 -2.098997	 -0.674324	 -0.616650
O	 -2.035884	 -0.060112	 0.102722
C	 -0.955155	 0.788182	 -0.092531
C	 0.353668	 0.040312	 -0.004810
H	 -0.985057	 1.290372	 -1.054184
H	 -0.974469	 1.533190	 0.688632
F	 0.545256	 -0.695947	 -1.093750
F	 1.365525	 0.887859	 0.090111
F	 0.403896	 -0.768766	 1.033660

	symmetry c1
}
set optking {
	frozen_dihedral = ("
		7 4 3 5
	")
}

ee = optimize('scf')
oeprop('DIPOLE', 'QUADRUPOLE', 'MULLIKEN_CHARGES')
f=open( 'psi4out.xyz', 'w' )
f.write( "9  " )
f.write( str(ee) + "\n" )
f.write( MOL.save_string_xyz() )
f.close()
--------------------------------------------------------------------------

    Molecular point group: c1
  Charge       = 0
  Multiplicity = 1
  Basis Set: 6-31G*
  Basis Set:
  @DF-RHF Final Energy:  -450.66151445480540
    Total Energy =                       -450.6615144548056264
    Molecular point group: c1
  Basis Set: 6-31G*
  Basis Set:
  Basis Set: 6-31G*
  Basis Set:
  @DF-RHF Final Energy:  -450.66164938057477
    Total Energy =                       -450.6616493805744312
  Basis Set: 6-31G*
  Basis Set:
  Basis Set: 6-31G*
  Basis Set:
  @DF-RHF Final Energy:  -450.66168649415005
    Total Energy =                       -450.6616864941498193
  Basis Set: 6-31G*
  Basis Set:
  Basis Set: 6-31G*
  Basis Set:
  @DF-RHF Final Energy:  -450.66168848041366
    Total Energy =                       -450.6616884804135452
  Basis Set: 6-31G*
  Basis Set:
  Charge       = 0
  Multiplicity = 1
  Basis Set: 6-31G*
  Basis Set:

    Orbital Energies (a.u.)
    -----------------------

    Doubly Occupied:

       1A    -26.342063     2A    -26.341003     3A    -26.339827
       4A    -20.590202     5A    -11.499361     6A    -11.309935
       7A     -1.739231     8A     -1.637208     9A     -1.636393
      10A     -1.401729    11A     -1.047325    12A     -0.923120
      13A     -0.830035    14A     -0.827188    15A     -0.803286
      16A     -0.728761    17A     -0.710635    18A     -0.696555
      19A     -0.663009    20A     -0.658128    21A     -0.641603
      22A     -0.628627    23A     -0.612737    24A     -0.531435
      25A     -0.480227

  @DF-RHF Final Energy:  -450.66168879956984

   => Energetics <=

    Nuclear Repulsion Energy =            276.8100971177277074
    One-Electron Energy =               -1175.7043256185270366
    Two-Electron Energy =                 448.2325397012295412
    DFT Exchange-Correlation Energy =       0.0000000000000000
    Empirical Dispersion Energy =           0.0000000000000000
    PCM Polarization Energy =               0.0000000000000000
    EFP Energy =                            0.0000000000000000
    Total Energy =                       -450.6616887995697311
    Molecular point group: c1
  Basis Set: 6-31G*
  Basis Set:

  -Total Gradient:
     Atom            X                  Y                   Z
    ------   -----------------  -----------------  -----------------
       1       -0.000008386901    -0.000009054621     0.000003873452
       2       -0.000025209702    -0.000043062950    -0.000010590015
       3        0.002669244256     0.004888569701     0.001470957247
       4       -0.002413150752    -0.004111116345     0.001681394375
       5       -0.001770938550    -0.003304885023    -0.001590487281
       6        0.000012927067     0.000001759877    -0.000006035171
       7        0.001571173626     0.002581616389    -0.001557378167
       8       -0.000033422932    -0.000009017724    -0.000000868730
       9       -0.000002236108     0.000005190692     0.000009134291

  **** Optimization is complete! (in 5 steps) ****
    Final optimized geometry and variables:
    Molecular point group: c1

    Geometry (in Angstrom), charge = 0, multiplicity = 1:

    H           -2.130542414603    -0.644365423925    -0.656601951176
    O           -2.042992728580    -0.070440700178     0.092870251486
    C           -0.959863873625     0.782943991901    -0.083076412739
    C            0.351757942333     0.035472886754     0.000154483115
    H           -0.993023275460     1.274399875455    -1.049442805987
    H           -0.988509035601     1.520700822453     0.703725462645
    F            0.538125173466    -0.711596988651    -1.082881953138
    F            1.360570566804     0.892379665355     0.059727464263
    F            0.423552964509    -0.752508325284     1.050513308524

  Mulliken Charges: (a.u.)
   Center  Symbol    Alpha    Beta     Spin     Total
       1     H     0.27340  0.27340  0.00000  0.45319
       2     O     4.36137  4.36137  0.00000 -0.72275
       3     C     3.05376  3.05376  0.00000 -0.10753
       4     C     2.46577  2.46577  0.00000  1.06845
       5     H     0.40882  0.40882  0.00000  0.18236
       6     H     0.39507  0.39507  0.00000  0.20987
       7     F     4.68573  4.68573  0.00000 -0.37147
       8     F     4.68285  4.68285  0.00000 -0.36571
       9     F     4.67321  4.67321  0.00000 -0.34642

   Total alpha = 25.00000, Total beta = 25.00000, Total charge =  0.00000
