                              Psi4 1.0.54 Driver

  ==> Input File <==

--------------------------------------------------------------------------
set {
	reference rhf
	basis cc-pvtz
}

set_num_threads( 4 )
memory 2 gb

molecule MOL {
0 1

H	 -4.024094	 -0.454727	 0.000004
C	 -2.962215	 -0.297920	 0.000004
C	 -2.454736	 0.988978	 0.000025
C	 -2.105837	 -1.382632	 -0.000016
H	 -3.120052	 1.830438	 0.000041
C	 -1.090106	 1.189676	 0.000026
H	 -2.500390	 -2.380229	 -0.000033
C	 -0.739175	 -1.183302	 -0.000016
H	 -0.680214	 2.179144	 0.000042
C	 -0.227341	 0.104540	 0.000006
H	 -0.073209	 -2.021168	 -0.000032
C	 1.238974	 0.374429	 0.000004
O	 1.528814	 1.662055	 0.000022
O	 2.065816	 -0.474990	 0.000025
C	 2.898036	 2.015317	 -0.000020
H	 3.389868	 1.628478	 0.879657
H	 2.925346	 3.092741	 0.000132
H	 3.389763	 1.628703	 -0.879868

	symmetry c1
}
set optking {
	frozen_dihedral = ("
		13 12 10 6
	")
}

ee,wfn = optimize('scf', return_wfn=True)
oeprop( wfn, 'DIPOLE', 'QUADRUPOLE', 'MULLIKEN_CHARGES')
f=open( 'psi4out.xyz', 'w' )
f.write( "18  " )
f.write( str(ee) + "\n" )
f.write( MOL.save_string_xyz() )
f.close()
--------------------------------------------------------------------------

    Molecular point group: c1
  Charge       = 0
  Multiplicity = 1
  Basis Set: CC-PVTZ
  Basis Set:
  @DF-RHF Final Energy:  -457.50878625697453
    Total Energy =                       -457.5087862569746449
    Molecular point group: c1
  Basis Set: CC-PVTZ
  Basis Set:
  Basis Set: CC-PVTZ
  Basis Set:
  @DF-RHF Final Energy:  -457.51005059370380
    Total Energy =                       -457.5100505937039088
  Basis Set: CC-PVTZ
  Basis Set:
  Basis Set: CC-PVTZ
  Basis Set:
  @DF-RHF Final Energy:  -457.51023109930253
    Total Energy =                       -457.5102310993020183
  Basis Set: CC-PVTZ
  Basis Set:
  Basis Set: CC-PVTZ
  Basis Set:
  @DF-RHF Final Energy:  -457.51024108120890
    Total Energy =                       -457.5102410812089602
  Basis Set: CC-PVTZ
  Basis Set:
  Basis Set: CC-PVTZ
  Basis Set:
  @DF-RHF Final Energy:  -457.51023145959431
    Total Energy =                       -457.5102314595942516
  Basis Set: CC-PVTZ
  Basis Set:
  Charge       = 0
  Multiplicity = 1
  Basis Set: CC-PVTZ
  Basis Set:

    Orbital Energies (a.u.)
    -----------------------

    Doubly Occupied:

       1A    -20.601020     2A    -20.534472     3A    -11.371768
       4A    -11.281277     5A    -11.245035     6A    -11.243537
       7A    -11.242722     8A    -11.240127     9A    -11.236098
      10A    -11.235359    11A     -1.477085    12A     -1.368436
      13A     -1.170836    14A     -1.051885    15A     -1.029098
      16A     -0.980558    17A     -0.863253    18A     -0.838519
      19A     -0.781293    20A     -0.745077    21A     -0.687871
      22A     -0.681825    23A     -0.676429    24A     -0.634116
      25A     -0.630112    26A     -0.601338    27A     -0.587589
      28A     -0.564972    29A     -0.531978    30A     -0.520348
      31A     -0.509513    32A     -0.502289    33A     -0.464203
      34A     -0.449500    35A     -0.350257    36A     -0.346294

  @DF-RHF Final Energy:  -457.51024308671822

   => Energetics <=

    Nuclear Repulsion Energy =            494.0365186025189814
    One-Electron Energy =               -1602.5413464804012165
    Two-Electron Energy =                 650.9945847911634473
    DFT Exchange-Correlation Energy =       0.0000000000000000
    Empirical Dispersion Energy =           0.0000000000000000
    PCM Polarization Energy =               0.0000000000000000
    EFP Energy =                            0.0000000000000000
    Total Energy =                       -457.5102430867187877
    Molecular point group: c1
  Basis Set: CC-PVTZ
  Basis Set:

  -Total Gradient:
     Atom            X                  Y                   Z
    ------   -----------------  -----------------  -----------------
       1        0.000003598800     0.000020629760     0.000000084560
       2        0.000029615942    -0.000226947562    -0.000000029500
       3        0.000183048199     0.000143278563    -0.000001328095
       4       -0.000241083674     0.000056106107     0.000000254553
       5       -0.000005039665    -0.000005678862    -0.000000079425
       6       -0.000193253692     0.000041339760     0.000002265526
       7        0.000016197148     0.000002970947    -0.000000041917
       8        0.000160339785     0.000101802922     0.000000205430
       9        0.000010870109    -0.000002881090     0.000000177019
      10        0.000028785670    -0.000175853991     0.000006435904
      11       -0.000016934743     0.000004195931     0.000000217640
      12       -0.000061414999     0.000123858641    -0.000026549873
      13       -0.000035748546    -0.000072393694     0.000007620873
      14        0.000060862098    -0.000040671638     0.000010534828
      15        0.000079470490     0.000046243440     0.000000389431
      16       -0.000006390729     0.000004668424    -0.000000479421
      17       -0.000006081154    -0.000024900342     0.000000156879
      18       -0.000006841034     0.000004232687     0.000000165589

  **** Optimization is complete! (in 6 steps) ****
    Final optimized geometry and variables:
    Molecular point group: c1

    Geometry (in Angstrom), charge = 0, multiplicity = 1:

    H           -3.956266315199    -0.866016801323     0.012478466025
    C           -2.900437433734    -0.672517231791     0.009108364571
    C           -2.439023508737     0.630454152497     0.008654206412
    C           -2.005497792938    -1.727141986185     0.005233533034
    H           -3.133936977924     1.447779862183     0.011663269715
    C           -1.081176651418     0.882074218715     0.004323602484
    H           -2.363988256386    -2.738217081160     0.005589576299
    C           -0.648725510143    -1.477375940334     0.000905103632
    H           -0.720716459323     1.889902817422     0.003961949340
    C           -0.181645689229    -0.172285224080     0.000428253530
    H            0.057920539974    -2.282226935321    -0.002126371617
    C            1.293733099958     0.044787735501    -0.004319448297
    O            1.629761929118     1.320904249535    -0.004373347861
    O            2.089574313076    -0.833776621278    -0.007565051529
    C            3.010560160111     1.624896567086    -0.008634388079
    H            3.491225921571     1.220075561721     0.869218575731
    H            3.076874758575     2.700623325250    -0.007971775269
    H            3.485477248632     1.221513227460    -0.890270638181

  Mulliken Charges: (a.u.)
   Center  Symbol    Alpha    Beta     Spin     Total
       1     H     0.42028  0.42028  0.00000  0.15945
       2     C     3.06975  3.06975  0.00000 -0.13949
       3     C     3.07492  3.07492  0.00000 -0.14984
       4     C     3.07551  3.07551  0.00000 -0.15103
       5     H     0.42188  0.42188  0.00000  0.15623
       6     C     3.08212  3.08212  0.00000 -0.16424
       7     H     0.42037  0.42037  0.00000  0.15927
       8     C     3.07589  3.07589  0.00000 -0.15178
       9     H     0.41103  0.41103  0.00000  0.17794
      10     C     3.01233  3.01233  0.00000 -0.02466
      11     H     0.40667  0.40667  0.00000  0.18665
      12     C     2.78240  2.78240  0.00000  0.43521
      13     O     4.14836  4.14836  0.00000 -0.29673
      14     O     4.21128  4.21128  0.00000 -0.42257
      15     C     3.03658  3.03658  0.00000 -0.07317
      16     H     0.45266  0.45266  0.00000  0.09467
      17     H     0.44529  0.44529  0.00000  0.10941
      18     H     0.45266  0.45266  0.00000  0.09467

   Total alpha = 36.00000, Total beta = 36.00000, Total charge = -0.00000

*** Psi4 exiting successfully. Buy a developer a beer!
