  ==> Input File <==

--------------------------------------------------------------------------
set {
	reference rhf
	basis cc-pvtz
}

set_num_threads( 4 )
memory 2 gb

molecule MOL {
0 1

H	 -3.941973	 0.934228	 -0.390224
C	 -3.240162	 0.342701	 0.161016
C	 -2.105997	 -0.000418	 -0.398703
H	 -3.485368	 0.047206	 1.162193
O	 -1.189946	 -0.765863	 0.237511
H	 -1.846458	 0.297311	 -1.398265
C	 0.026572	 -0.995256	 -0.379403
C	 1.057223	 0.049888	 -0.004615
H	 -0.054361	 -1.010670	 -1.459674
H	 0.397526	 -1.952058	 -0.044198
F	 0.915709	 1.104464	 -0.782383
F	 0.919337	 0.450935	 1.241040
F	 2.282742	 -0.393300	 -0.146554

	symmetry c1
}
set optking {
	frozen_dihedral = ("
		11 8 7 9
	")
}

ee = optimize('scf')
oeprop('DIPOLE', 'QUADRUPOLE', 'MULLIKEN_CHARGES')
f=open( 'psi4out.xyz', 'w' )
f.write( "13  " )
f.write( str(ee) + "\n" )
f.write( MOL.save_string_xyz() )
f.close()
--------------------------------------------------------------------------

    Molecular point group: c1
  Charge       = 0
  Multiplicity = 1
  Basis Set: CC-PVTZ
  Basis Set:
  @DF-RHF Final Energy:  -527.73929315557359
    Total Energy =                       -527.7392931555739324
    Molecular point group: c1
  Basis Set: CC-PVTZ
  Basis Set:
  Basis Set: CC-PVTZ
  Basis Set:
  @DF-RHF Final Energy:  -527.74004176759104
    Total Energy =                       -527.7400417675914923
  Basis Set: CC-PVTZ
  Basis Set:
  Basis Set: CC-PVTZ
  Basis Set:
  @DF-RHF Final Energy:  -527.74022925050986
    Total Energy =                       -527.7402292505094010
  Basis Set: CC-PVTZ
  Basis Set:
  Basis Set: CC-PVTZ
  Basis Set:
  @DF-RHF Final Energy:  -527.74025230655946
    Total Energy =                       -527.7402523065599098
  Basis Set: CC-PVTZ
  Basis Set:
  @DF-RHF Final Energy:  -527.74025992852330
    Total Energy =                       -527.7402599285230735
  Basis Set: CC-PVTZ
  Basis Set:
  @DF-RHF Final Energy:  -527.74026936806740
    Total Energy =                       -527.7402693680672883
  Basis Set: CC-PVTZ
  Basis Set:
  Basis Set: CC-PVTZ
  Basis Set:
  @DF-RHF Final Energy:  -527.74027306836820
    Total Energy =                       -527.7402730683678556
  Basis Set: CC-PVTZ
  Basis Set:
  Basis Set: CC-PVTZ
  Basis Set:
  @DF-RHF Final Energy:  -527.74027424570841
    Total Energy =                       -527.7402742457084059
  Basis Set: CC-PVTZ
  Basis Set:
  Charge       = 0
  Multiplicity = 1
  Basis Set: CC-PVTZ
  Basis Set:

    Orbital Energies (a.u.)
    -----------------------

    Doubly Occupied:

       1A    -26.339826     2A    -26.339647     3A    -26.339598
       4A    -20.603012     5A    -11.498111     6A    -11.320056
       7A    -11.298174     8A    -11.214726     9A     -1.750253
      10A     -1.646965    11A     -1.644438    12A     -1.443606
      13A     -1.086369    14A     -1.020509    15A     -0.932132
      16A     -0.843608    17A     -0.838154    18A     -0.827338
      19A     -0.798920    20A     -0.726651    21A     -0.719671
      22A     -0.701656    23A     -0.681600    24A     -0.668157
      25A     -0.661894    26A     -0.650446    27A     -0.641396
      28A     -0.587749    29A     -0.566707    30A     -0.527395
      31A     -0.517106    32A     -0.357661

  @DF-RHF Final Energy:  -527.74027444745570

   => Energetics <=

    Nuclear Repulsion Energy =            414.1268633068430631
    One-Electron Energy =               -1552.1472097876562657
    Two-Electron Energy =                 610.2800720333574418
    DFT Exchange-Correlation Energy =       0.0000000000000000
    Empirical Dispersion Energy =           0.0000000000000000
    PCM Polarization Energy =               0.0000000000000000
    EFP Energy =                            0.0000000000000000
    Total Energy =                       -527.7402744474558176
    Molecular point group: c1
  Basis Set: CC-PVTZ
  Basis Set:

  -Total Gradient:
     Atom            X                  Y                   Z
    ------   -----------------  -----------------  -----------------
       1       -0.000004169186    -0.000004026444    -0.000001864214
       2       -0.000003125653     0.000000427816    -0.000001637995
       3        0.000020375080     0.000031044922     0.000001135906
       4       -0.000000512911    -0.000001135074    -0.000001547868
       5       -0.000015194089    -0.000013960165     0.000002871119
       6       -0.000005806744    -0.000004560604     0.000000674680
       7        0.004803898424    -0.003908013193    -0.001021079080
       8       -0.003897911546     0.002303227766     0.003186901550
       9       -0.003303242029     0.002860894200     0.000210922789
      10       -0.000007361079     0.000000640839     0.000003640608
      11        0.002433771437    -0.001306993905    -0.002377948069
      12       -0.000008972841     0.000027083622    -0.000009110568
      13       -0.000011748867     0.000015370220     0.000007041139

  **** Optimization is complete! (in 9 steps) ****
    Final optimized geometry and variables:
    Molecular point group: c1

    Geometry (in Angstrom), charge = 0, multiplicity = 1:

    H           -3.857597259954     0.984093384467    -0.379153382356
    C           -3.171181133669     0.366777526555     0.163259201033
    C           -2.072173678675    -0.043943570214    -0.420621538917
    H           -3.404771960110     0.097080685227     1.174450732002
    O           -1.185730076081    -0.857762360377     0.197228666747
    H           -1.823859498089     0.227469052422    -1.431090716463
    C            0.061211520054    -1.031086752224    -0.380479515099
    C            1.036372336867     0.069495055249     0.009822727292
    H           -0.009437710627    -1.035484785022    -1.461522452473
    H            0.459102123003    -1.969958076062    -0.030910657095
    F            0.880351096210     1.147271284098    -0.733508202864
    F            0.923874915904     0.421930310408     1.263432248722
    F            2.270803219526    -0.353572807983    -0.186397610347

  Mulliken Charges: (a.u.)
   Center  Symbol    Alpha    Beta     Spin     Total
       1     H     0.42505  0.42505  0.00000  0.14990
       2     C     3.19487  3.19487  0.00000 -0.38975
       3     C     2.96253  2.96253  0.00000  0.07494
       4     H     0.42428  0.42428  0.00000  0.15143
       5     O     4.14322  4.14322  0.00000 -0.28644
       6     H     0.43417  0.43417  0.00000  0.13165
       7     C     3.02102  3.02102  0.00000 -0.04203
       8     C     2.67646  2.67646  0.00000  0.64707
       9     H     0.45515  0.45515  0.00000  0.08969
      10     H     0.43394  0.43394  0.00000  0.13211
      11     F     4.61286  4.61286  0.00000 -0.22572
      12     F     4.60372  4.60372  0.00000 -0.20745
      13     F     4.61271  4.61271  0.00000 -0.22541

   Total alpha = 32.00000, Total beta = 32.00000, Total charge = -0.00000
