  ==> Input File <==

--------------------------------------------------------------------------
set {
	reference rhf
	basis 6-31G*
}

set_num_threads( 4 )
memory 2 gb

molecule MOL {
0 1

H	 -1.121179	 0.717574	 0.470156
N	 -0.712432	 0.000013	 -0.096310
C	 0.734192	 -0.000004	 0.040609
H	 -0.978007	 0.190478	 -1.042910
H	 1.139899	 -0.873598	 -0.456463
H	 1.139939	 0.873831	 -0.456100
H	 1.096456	 -0.000300	 1.069655

	symmetry c1
}
set optking {
	frozen_dihedral = ("
		1 2 3 7
	")
}

ee = optimize('scf')
oeprop('DIPOLE', 'QUADRUPOLE', 'MULLIKEN_CHARGES')
f=open( 'psi4out.xyz', 'w' )
f.write( "7  " )
f.write( str(ee) + "\n" )
f.write( MOL.save_string_xyz() )
f.close()
--------------------------------------------------------------------------

    Molecular point group: c1
  Charge       = 0
  Multiplicity = 1
  Basis Set: 6-31G*
  Basis Set:
  @DF-RHF Final Energy:   -95.20733331761392
    Total Energy =                        -95.2073333176138590
    Molecular point group: c1
  Basis Set: 6-31G*
  Basis Set:
  Basis Set: 6-31G*
  Basis Set:
  @DF-RHF Final Energy:   -95.20920203433732
    Total Energy =                        -95.2092020343372809
  Basis Set: 6-31G*
  Basis Set:
  Basis Set: 6-31G*
  Basis Set:
  @DF-RHF Final Energy:   -95.20945630968390
    Total Energy =                        -95.2094563096839011
  Basis Set: 6-31G*
  Basis Set:
  Basis Set: 6-31G*
  Basis Set:
  @DF-RHF Final Energy:   -95.20945881260937
    Total Energy =                        -95.2094588126093555
  Basis Set: 6-31G*
  Basis Set:
  Charge       = 0
  Multiplicity = 1
  Basis Set: 6-31G*
  Basis Set:

    Orbital Energies (a.u.)
    -----------------------

    Doubly Occupied:

       1A    -15.534016     2A    -11.237417     3A     -1.170104
       4A     -0.896520     5A     -0.665535     6A     -0.601912
       7A     -0.557516     8A     -0.518398     9A     -0.381935

  @DF-RHF Final Energy:   -95.20945906836948

   => Energetics <=

    Nuclear Repulsion Energy =             42.3327309845224491
    One-Electron Energy =                -211.9576751915612931
    Two-Electron Energy =                  74.4154851386693963
    DFT Exchange-Correlation Energy =       0.0000000000000000
    Empirical Dispersion Energy =           0.0000000000000000
    PCM Polarization Energy =               0.0000000000000000
    EFP Energy =                            0.0000000000000000
    Total Energy =                        -95.2094590683694548
    Molecular point group: c1
  Basis Set: 6-31G*
  Basis Set:

  -Total Gradient:
     Atom            X                  Y                   Z
    ------   -----------------  -----------------  -----------------
       1       -0.000096836128    -0.001106412220     0.001304628096
       2        0.000058384393     0.001761697881    -0.001618881316
       3        0.000074830228    -0.002232813389     0.000290113226
       4        0.000006902737     0.000008540143     0.000001597095
       5       -0.000009548723     0.000018103160     0.000006594851
       6       -0.000013551428    -0.000012667718    -0.000005775013
       7       -0.000020181079     0.001563552143     0.000021723061

  **** Optimization is complete! (in 5 steps) ****
    Final optimized geometry and variables:
    Molecular point group: c1

    Geometry (in Angstrom), charge = 0, multiplicity = 1:

    H           -1.122061718703     0.669830886777     0.542649079892
    N           -0.716516434879    -0.035352478017    -0.040085472941
    C            0.733058508728    -0.019060655522     0.058426909425
    H           -1.018079845383     0.138863354548    -0.978312836538
    H            1.140190733388    -0.911003896017    -0.403701103454
    H            1.209305255528     0.847102048217    -0.403471274662
    H            1.017773815839    -0.026640721210     1.104118535436

  Mulliken Charges: (a.u.)
   Center  Symbol    Alpha    Beta     Spin     Total
       1     H     0.33324  0.33324  0.00000  0.33351
       2     N     3.91863  3.91863  0.00000 -0.83726
       3     C     3.14673  3.14673  0.00000 -0.29345
       4     H     0.33314  0.33314  0.00000  0.33373
       5     H     0.41654  0.41654  0.00000  0.16691
       6     H     0.43342  0.43342  0.00000  0.13316
       7     H     0.41830  0.41830  0.00000  0.16339

   Total alpha =  9.00000, Total beta =  9.00000, Total charge = -0.00000
