                              Psi4 1.0.54 Driver

  ==> Input File <==

--------------------------------------------------------------------------
set {
	reference rhf
	basis cc-pvtz
}

set_num_threads( 4 )
memory 2 gb

molecule MOL {
0 1

O	 0.395927	 1.296676	 -0.000076
C	 0.503051	 0.114301	 -0.000074
C	 -0.701422	 -0.805636	 -0.000109
C	 1.858118	 -0.556123	 0.000212
C	 -0.386347	 -2.239532	 0.395808
H	 -1.443738	 -0.373602	 0.666035
H	 -1.144350	 -0.765578	 -0.991900
H	 0.032502	 -2.283712	 1.392223
H	 -1.286752	 -2.841794	 0.375611
H	 0.334540	 -2.679179	 -0.280404
H	 1.961106	 -1.191101	 -0.872843
H	 2.636688	 0.191085	 -0.000109
H	 1.961070	 -1.190284	 0.873873

	symmetry c1
}
set optking {
	frozen_dihedral = ("
		6 3 2 1
	")
}

ee,wfn = optimize('scf', return_wfn=True)
oeprop( wfn, 'DIPOLE', 'QUADRUPOLE', 'MULLIKEN_CHARGES')
f=open( 'psi4out.xyz', 'w' )
f.write( "13  " )
f.write( str(ee) + "\n" )
f.write( MOL.save_string_xyz() )
f.close()
--------------------------------------------------------------------------

    Molecular point group: c1
  Charge       = 0
  Multiplicity = 1
  Basis Set: CC-PVTZ
  Basis Set:
  @DF-RHF Final Energy:  -231.07725791602428
    Total Energy =                       -231.0772579160241094
    Molecular point group: c1
  Basis Set: CC-PVTZ
  Basis Set:
  Basis Set: CC-PVTZ
  Basis Set:
  @DF-RHF Final Energy:  -231.06708614981682
    Total Energy =                       -231.0670861498166744
  Basis Set: CC-PVTZ
  Basis Set:
  Basis Set: CC-PVTZ
  Basis Set:
  @DF-RHF Final Energy:  -231.07867202235244
    Total Energy =                       -231.0786720223524924
  Basis Set: CC-PVTZ
  Basis Set:
  Basis Set: CC-PVTZ
  Basis Set:
  @DF-RHF Final Energy:  -231.07559479505869
    Total Energy =                       -231.0755947950588620
  Basis Set: CC-PVTZ
  Basis Set:
  @DF-RHF Final Energy:  -231.07895509393259
    Total Energy =                       -231.0789550939326489
  @DF-RHF Final Energy:  -231.07802759621867
    Total Energy =                       -231.0780275962187318
  @DF-RHF Final Energy:  -231.07936155962349
    Total Energy =                       -231.0793615596235782
  Basis Set: CC-PVTZ
  Basis Set:
  @DF-RHF Final Energy:  -231.07939624639678
    Total Energy =                       -231.0793962463967830
  Basis Set: CC-PVTZ
  Basis Set:
  Basis Set: CC-PVTZ
  Basis Set:
  @DF-RHF Final Energy:  -231.07942514996932
    Total Energy =                       -231.0794251499692109
  Basis Set: CC-PVTZ
  Basis Set:
  Basis Set: CC-PVTZ
  Basis Set:
  @DF-RHF Final Energy:  -231.07942723103625
    Total Energy =                       -231.0794272310361634
  Basis Set: CC-PVTZ
  Basis Set:
  Charge       = 0
  Multiplicity = 1
  Basis Set: CC-PVTZ
  Basis Set:

    Orbital Energies (a.u.)
    -----------------------

    Doubly Occupied:

       1A    -20.536082     2A    -11.321666     3A    -11.233030
       4A    -11.227558     5A    -11.226532     6A     -1.397508
       7A     -1.067767     8A     -0.995044     9A     -0.891454
      10A     -0.732596    11A     -0.654969    12A     -0.645413
      13A     -0.627998    14A     -0.585382    15A     -0.557372
      16A     -0.546344    17A     -0.531756    18A     -0.513761
      19A     -0.477636    20A     -0.401802

  @DF-RHF Final Energy:  -231.07942746872254

   => Energetics <=

    Nuclear Repulsion Energy =            177.0628495195014125
    One-Electron Energy =                -663.9412166542227851
    Two-Electron Energy =                 255.7989396659990291
    DFT Exchange-Correlation Energy =       0.0000000000000000
    Empirical Dispersion Energy =           0.0000000000000000
    PCM Polarization Energy =               0.0000000000000000
    EFP Energy =                            0.0000000000000000
    Total Energy =                       -231.0794274687223435
    Molecular point group: c1
  Basis Set: CC-PVTZ
  Basis Set:

  -Total Gradient:
     Atom            X                  Y                   Z
    ------   -----------------  -----------------  -----------------
       1       -0.000289122239    -0.000003108205    -0.001456465272
       2        0.000565489089    -0.000119221783     0.002195005242
       3       -0.001161109609     0.000765861537    -0.001715549772
       4        0.000017346560     0.000003335722     0.000052913628
       5       -0.000000315688     0.000004859182     0.000009003787
       6        0.000879615101    -0.000639975256     0.000969169290
       7       -0.000004355849     0.000003378395    -0.000007365332
       8        0.000002010534    -0.000005728829     0.000001487625
       9       -0.000001071692    -0.000001144869    -0.000001137655
      10        0.000002725888     0.000001072878    -0.000003430765
      11       -0.000009365621     0.000000135469    -0.000020992377
      12       -0.000005406442    -0.000000716701    -0.000006009119
      13        0.000003559968    -0.000008747540    -0.000016629279

  **** Optimization is complete! (in 9 steps) ****
    Final optimized geometry and variables:
    Molecular point group: c1

    Geometry (in Angstrom), charge = 0, multiplicity = 1:

    O           -0.256247893224     1.713598592554    -0.022289322357
    C            0.082620095322     0.576670281724    -0.083789026653
    C           -0.948080095478    -0.526073173052     0.114539214287
    C            1.510732610765     0.208819896716    -0.410417695331
    C           -0.430198603705    -1.932094682318     0.401931824642
    H           -1.595118496914    -0.194630341425     0.916495252406
    H           -1.552867347833    -0.529624525637    -0.787534112395
    H            0.158263377257    -1.963457016788     1.311652639958
    H           -1.263820653095    -2.611077876066     0.530611866818
    H            0.181203359672    -2.316734249457    -0.404965754641
    H            1.545003435861    -0.400710854087    -1.306895755827
    H            2.083818715197     1.110194771855    -0.561677395503
    H            1.949508275299    -0.373726557839     0.390963572314

  Mulliken Charges: (a.u.)
   Center  Symbol    Alpha    Beta     Spin     Total
       1     O     4.17518  4.17518  0.00000 -0.35037
       2     C     2.85959  2.85959  0.00000  0.28082
       3     C     3.09614  3.09614  0.00000 -0.19229
       4     C     3.16002  3.16002  0.00000 -0.32004
       5     C     3.15791  3.15791  0.00000 -0.31582
       6     H     0.43714  0.43714  0.00000  0.12572
       7     H     0.44168  0.44168  0.00000  0.11665
       8     H     0.44992  0.44992  0.00000  0.10016
       9     H     0.44124  0.44124  0.00000  0.11752
      10     H     0.45242  0.45242  0.00000  0.09517
      11     H     0.44820  0.44820  0.00000  0.10359
      12     H     0.43201  0.43201  0.00000  0.13599
      13     H     0.44855  0.44855  0.00000  0.10290

   Total alpha = 20.00000, Total beta = 20.00000, Total charge = -0.00000

*** Psi4 exiting successfully. Buy a developer a beer!
