  ==> Input File <==

--------------------------------------------------------------------------
set {
	reference rhf
	basis 6-31G*
}

set_num_threads( 4 )
memory 2 gb

molecule MOL {
0 1

H	 -1.511955	 2.511367	 2.481853
O	 -1.243655	 1.776473	 1.949279
C	 -0.368446	 2.217024	 0.941762
C	 0.031547	 1.023609	 0.088541
H	 0.524326	 2.659717	 1.379791
H	 -0.842997	 2.982627	 0.332045
C	 -1.134819	 0.293262	 -0.585751
H	 0.567540	 0.323175	 0.722885
H	 0.736202	 1.368980	 -0.666045
C	 -1.917817	 -0.639439	 0.339494
H	 -0.758119	 -0.268455	 -1.433105
H	 -1.813832	 1.041889	 -0.986690
H	 -2.777680	 -1.057197	 -0.174994
H	 -1.310268	 -1.471279	 0.680599
H	 -2.283753	 -0.111424	 1.216626

	symmetry c1
}
set optking {
	frozen_dihedral = ("
		8 4 7 11
	")
}

ee = optimize('scf')
oeprop('DIPOLE', 'QUADRUPOLE', 'MULLIKEN_CHARGES')
f=open( 'psi4out.xyz', 'w' )
f.write( "15  " )
f.write( str(ee) + "\n" )
f.write( MOL.save_string_xyz() )
f.close()
--------------------------------------------------------------------------

    Molecular point group: c1
  Charge       = 0
  Multiplicity = 1
  Basis Set: 6-31G*
  Basis Set:
  @DF-RHF Final Energy:  -232.14098869443606
    Total Energy =                       -232.1409886944359755
    Molecular point group: c1
  Basis Set: 6-31G*
  Basis Set:
  Basis Set: 6-31G*
  Basis Set:
  @DF-RHF Final Energy:  -232.14221359190287
    Total Energy =                       -232.1422135919027596
  Basis Set: 6-31G*
  Basis Set:
  Basis Set: 6-31G*
  Basis Set:
  @DF-RHF Final Energy:  -232.14234125503677
    Total Energy =                       -232.1423412550367402
  Basis Set: 6-31G*
  Basis Set:
  Basis Set: 6-31G*
  Basis Set:
  @DF-RHF Final Energy:  -232.14235305699643
    Total Energy =                       -232.1423530569963987
  Basis Set: 6-31G*
  Basis Set:
  Basis Set: 6-31G*
  Basis Set:
  @DF-RHF Final Energy:  -232.14235428997935
    Total Energy =                       -232.1423542899792665
  Basis Set: 6-31G*
  Basis Set:
  Charge       = 0
  Multiplicity = 1
  Basis Set: 6-31G*
  Basis Set:

    Orbital Energies (a.u.)
    -----------------------

    Doubly Occupied:

       1A    -20.554537     2A    -11.268982     3A    -11.213304
       4A    -11.210813     5A    -11.194162     6A     -1.361194
       7A     -1.061387     8A     -0.970259     9A     -0.859570
      10A     -0.779882    11A     -0.704584    12A     -0.644916
      13A     -0.602032    14A     -0.581605    15A     -0.546967
      16A     -0.536746    17A     -0.507936    18A     -0.468810
      19A     -0.467198    20A     -0.450872    21A     -0.428635

  @DF-RHF Final Energy:  -232.14235488924689

   => Energetics <=

    Nuclear Repulsion Energy =            192.1628031774808107
    One-Electron Energy =                -695.7815336974740603
    Two-Electron Energy =                 271.4763756307463041
    DFT Exchange-Correlation Energy =       0.0000000000000000
    Empirical Dispersion Energy =           0.0000000000000000
    PCM Polarization Energy =               0.0000000000000000
    EFP Energy =                            0.0000000000000000
    Total Energy =                       -232.1423548892469739
    Molecular point group: c1
  Basis Set: 6-31G*
  Basis Set:

  -Total Gradient:
     Atom            X                  Y                   Z
    ------   -----------------  -----------------  -----------------
       1       -0.000002811655     0.000000557282     0.000006375394
       2       -0.000008468261     0.000007676146    -0.000011457185
       3        0.000020754642    -0.000005162715     0.000018166074
       4        0.000548898198    -0.000094958924    -0.000805167739
       5        0.000005592067     0.000004340297    -0.000004586433
       6       -0.000005340557    -0.000004349405     0.000003823084
       7        0.000021277026    -0.000690557028     0.000650396833
       8       -0.000446761755     0.000188460896     0.000568461834
       9       -0.000002417908     0.000005025326     0.000005065622
      10       -0.000023814513    -0.000001350506    -0.000006766661
      11       -0.000094945930     0.000591403108    -0.000432713685
      12       -0.000011182807    -0.000012847038     0.000004766930
      13       -0.000000516983     0.000002636719     0.000009413813
      14        0.000000408838     0.000016457780    -0.000006998988
      15       -0.000000670400    -0.000007331939     0.000001221101

  **** Optimization is complete! (in 6 steps) ****
    Final optimized geometry and variables:
    Molecular point group: c1

    Geometry (in Angstrom), charge = 0, multiplicity = 1:

    H           -0.455448010718     1.621714773284     1.939675118022
    O           -0.209593112294     0.860284519051     1.433830253106
    C            0.567538597769     1.258058621635     0.332577436822
    C            0.951043198440     0.042048146942    -0.496339784667
    H            1.472608707721     1.758158203224     0.673312476802
    H            0.016769077394     1.965207069484    -0.286535056791
    C           -0.213829034409    -0.670961736317    -1.200027896904
    H            1.481867850618    -0.656166704321     0.145716893546
    H            1.661733597332     0.383538049374    -1.245833428875
    C           -1.012563585338    -1.631332193833    -0.317448834153
    H            0.187013599381    -1.224587527533    -2.045724759983
    H           -0.883084070069     0.074804015715    -1.625155142009
    H           -1.792091579373    -2.120177415277    -0.895127759928
    H           -0.368454304313    -2.406991847056     0.087923954378
    H           -1.473566545272    -1.115967385467     0.514046771878

  Mulliken Charges: (a.u.)
   Center  Symbol    Alpha    Beta     Spin     Total
       1     H     0.28060  0.28060  0.00000  0.43881
       2     O     4.36857  4.36857  0.00000 -0.73715
       3     C     2.99541  2.99541  0.00000  0.00917
       4     C     3.16214  3.16214  0.00000 -0.32428
       5     H     0.43011  0.43011  0.00000  0.13977
       6     H     0.43266  0.43266  0.00000  0.13467
       7     C     3.15265  3.15265  0.00000 -0.30530
       8     H     0.41468  0.41468  0.00000  0.17064
       9     H     0.42223  0.42223  0.00000  0.15554
      10     C     3.23960  3.23960  0.00000 -0.47921
      11     H     0.42246  0.42246  0.00000  0.15508
      12     H     0.42500  0.42500  0.00000  0.15000
      13     H     0.42585  0.42585  0.00000  0.14830
      14     H     0.42501  0.42501  0.00000  0.14999
      15     H     0.40301  0.40301  0.00000  0.19398

   Total alpha = 21.00000, Total beta = 21.00000, Total charge = -0.00000
