  ==> Input File <==

--------------------------------------------------------------------------
set {
	reference rhf
	basis cc-pvtz
}

set_num_threads( 4 )
memory 2 gb

molecule MOL {
0 1

H	 1.183315	 -0.197171	 0.827837
C	 0.848385	 0.440008	 0.000011
C	 -0.623497	 0.751021	 0.000090
O	 1.624222	 0.826083	 -0.803897
C	 -1.523725	 -0.474323	 -0.000013
H	 -0.813143	 1.382932	 -0.864897
H	 -0.813071	 1.382716	 0.865253
H	 -1.342980	 -1.087348	 -0.873016
H	 -2.565269	 -0.177464	 0.000070
H	 -1.342898	 -1.087564	 0.872820

	symmetry c1
}
set optking {
	frozen_dihedral = ("
		4 2 3 6
	")
}

ee = optimize('scf')
oeprop('DIPOLE', 'QUADRUPOLE', 'MULLIKEN_CHARGES')
f=open( 'psi4out.xyz', 'w' )
f.write( "10  " )
f.write( str(ee) + "\n" )
f.write( MOL.save_string_xyz() )
f.close()
--------------------------------------------------------------------------

    Molecular point group: c1
  Charge       = 0
  Multiplicity = 1
  Basis Set: CC-PVTZ
  Basis Set:
  @DF-RHF Final Energy:  -192.02273143145777
    Total Energy =                       -192.0227314314577143
    Molecular point group: c1
  Basis Set: CC-PVTZ
  Basis Set:
  Basis Set: CC-PVTZ
  Basis Set:
  @DF-RHF Final Energy:  -192.02328099729704
    Total Energy =                       -192.0232809972970927
  Basis Set: CC-PVTZ
  Basis Set:
  Basis Set: CC-PVTZ
  Basis Set:
  @DF-RHF Final Energy:  -192.02332767746151
    Total Energy =                       -192.0233276774616229
  Basis Set: CC-PVTZ
  Basis Set:
  Basis Set: CC-PVTZ
  Basis Set:
  @DF-RHF Final Energy:  -192.02310045765557
    Total Energy =                       -192.0231004576555733
  Basis Set: CC-PVTZ
  Basis Set:
  Basis Set: CC-PVTZ
  Basis Set:
  @DF-RHF Final Energy:  -192.02334483511919
    Total Energy =                       -192.0233448351191612
  Basis Set: CC-PVTZ
  Basis Set:
  Charge       = 0
  Multiplicity = 1
  Basis Set: CC-PVTZ
  Basis Set:

    Orbital Energies (a.u.)
    -----------------------

    Doubly Occupied:

       1A    -20.553585     2A    -11.322727     3A    -11.238277
       4A    -11.232531     5A     -1.408472     6A     -1.068312
       7A     -0.905128     8A     -0.794536     9A     -0.677231
      10A     -0.644110    11A     -0.617560    12A     -0.569278
      13A     -0.545287    14A     -0.516488    15A     -0.499392
      16A     -0.415072

  @DF-RHF Final Energy:  -192.02334506087232

   => Energetics <=

    Nuclear Repulsion Energy =            117.6149043753258496
    One-Electron Energy =                -493.2605227780258588
    Two-Electron Energy =                 183.6222733418276505
    DFT Exchange-Correlation Energy =       0.0000000000000000
    Empirical Dispersion Energy =           0.0000000000000000
    PCM Polarization Energy =               0.0000000000000000
    EFP Energy =                            0.0000000000000000
    Total Energy =                       -192.0233450608723444
    Molecular point group: c1
  Basis Set: CC-PVTZ
  Basis Set:

  -Total Gradient:
     Atom            X                  Y                   Z
    ------   -----------------  -----------------  -----------------
       1       -0.000002955284     0.000007634812    -0.000001954533
       2        0.000009978561     0.000070326909     0.000066751402
       3       -0.000033079068    -0.000087596909    -0.000064021961
       4       -0.000000296043    -0.000038701558    -0.000046579033
       5        0.000021144799     0.000029474078    -0.000007764230
       6        0.000023789454     0.000042557841     0.000036371315
       7       -0.000000586831    -0.000005608466     0.000004741067
       8       -0.000005266649    -0.000004392954     0.000004850905
       9       -0.000008552307    -0.000003613282     0.000001590514
      10       -0.000004176627    -0.000010080471     0.000006014553

  **** Optimization is complete! (in 6 steps) ****
    Final optimized geometry and variables:
    Molecular point group: c1

    Geometry (in Angstrom), charge = 0, multiplicity = 1:

    H            1.072026845258    -0.569250116849     1.057288387680
    C            0.755659203854     0.059823423973     0.214501888324
    C           -0.707546119109     0.407871894050     0.194081351451
    O            1.544680986303     0.408446328304    -0.593503252090
    C           -1.587794432410    -0.842627254321     0.206681427741
    H           -0.902162674377     1.021381863414    -0.674844558846
    H           -0.911229089215     1.002920922863     1.080976050212
    H           -1.428363709805    -1.440172869860    -0.682934174307
    H           -2.634110709628    -0.568925719578     0.242576725435
    H           -1.378646828112    -1.464043378832     1.070413883957

  Mulliken Charges: (a.u.)
   Center  Symbol    Alpha    Beta     Spin     Total
       1     H     0.46639  0.46639  0.00000  0.06721
       2     C     2.90003  2.90003  0.00000  0.19994
       3     C     3.08055  3.08055  0.00000 -0.16111
       4     O     4.16368  4.16368  0.00000 -0.32737
       5     C     3.15098  3.15098  0.00000 -0.30195
       6     H     0.44197  0.44197  0.00000  0.11606
       7     H     0.45105  0.45105  0.00000  0.09791
       8     H     0.44747  0.44747  0.00000  0.10506
       9     H     0.44430  0.44430  0.00000  0.11140
      10     H     0.45357  0.45357  0.00000  0.09285

   Total alpha = 16.00000, Total beta = 16.00000, Total charge = -0.00000
