                              Psi4 1.0.54 Driver

  ==> Input File <==

--------------------------------------------------------------------------
set {
	reference rhf
	basis cc-pvtz
}

set_num_threads( 4 )
memory 2 gb

molecule MOL {
0 1

O	 -2.440701	 -0.934798	 -0.415053
C	 -1.922978	 0.063265	 -0.045005
C	 -2.632749	 1.372204	 0.158357
O	 -0.637375	 0.157174	 0.243149
H	 -2.187724	 2.129143	 -0.474664
H	 -3.677681	 1.257276	 -0.079438
H	 -2.516788	 1.693160	 1.185542
C	 0.162530	 -1.009518	 0.097799
C	 1.587210	 -0.664190	 0.477086
H	 0.096803	 -1.356267	 -0.924704
H	 -0.233803	 -1.785900	 0.736810
C	 2.256770	 0.342732	 -0.454344
H	 2.154716	 -1.590834	 0.479041
H	 1.598751	 -0.289614	 1.496104
C	 3.020025	 -0.326196	 -1.592584
H	 1.499790	 1.004379	 -0.867024
H	 2.933171	 0.967253	 0.117756
H	 3.481373	 0.410384	 -2.239882
H	 2.361969	 -0.936367	 -2.202540
H	 3.806123	 -0.969367	 -1.211273

	symmetry c1
}
set optking {
	frozen_dihedral = ("
		16 12 9 8
	")
}

ee,wfn = optimize('scf', return_wfn=True)
oeprop( wfn, 'DIPOLE', 'QUADRUPOLE', 'MULLIKEN_CHARGES')
f=open( 'psi4out.xyz', 'w' )
f.write( "20  " )
f.write( str(ee) + "\n" )
f.write( MOL.save_string_xyz() )
f.close()
--------------------------------------------------------------------------

    Molecular point group: c1
  Charge       = 0
  Multiplicity = 1
  Basis Set: CC-PVTZ
  Basis Set:
  @DF-RHF Final Energy:  -384.08405106056284
    Total Energy =                       -384.0840510605628424
    Molecular point group: c1
  Basis Set: CC-PVTZ
  Basis Set:
  Basis Set: CC-PVTZ
  Basis Set:
  @DF-RHF Final Energy:  -384.08424413107616
    Total Energy =                       -384.0842441310758204
  Basis Set: CC-PVTZ
  Basis Set:
  Basis Set: CC-PVTZ
  Basis Set:
  @DF-RHF Final Energy:  -384.08407862104383
    Total Energy =                       -384.0840786210437727
  Basis Set: CC-PVTZ
  Basis Set:
  Basis Set: CC-PVTZ
  Basis Set:
  @DF-RHF Final Energy:  -384.08429771246387
    Total Energy =                       -384.0842977124630124
  Basis Set: CC-PVTZ
  Basis Set:
  Basis Set: CC-PVTZ
  Basis Set:
  @DF-RHF Final Energy:  -384.08429898572729
    Total Energy =                       -384.0842989857272869
  Basis Set: CC-PVTZ
  Basis Set:
  Charge       = 0
  Multiplicity = 1
  Basis Set: CC-PVTZ
  Basis Set:

    Orbital Energies (a.u.)
    -----------------------

    Doubly Occupied:

       1A    -20.594599     2A    -20.532871     3A    -11.366898
       4A    -11.280364     5A    -11.231798     6A    -11.223292
       7A    -11.218890     8A    -11.211657     9A     -1.471352
      10A     -1.365516    11A     -1.086229    12A     -1.028429
      13A     -0.980544    14A     -0.885773    15A     -0.811266
      16A     -0.773597    17A     -0.693366    18A     -0.690703
      19A     -0.669132    20A     -0.624418    21A     -0.612718
      22A     -0.583569    23A     -0.575515    24A     -0.562457
      25A     -0.540236    26A     -0.529167    27A     -0.518997
      28A     -0.483566    29A     -0.476080    30A     -0.469735
      31A     -0.451217    32A     -0.442174

  @DF-RHF Final Energy:  -384.08429906375778

   => Energetics <=

    Nuclear Repulsion Energy =            388.3110271241625355
    One-Electron Energy =               -1292.8184103082217007
    Two-Electron Energy =                 520.4230841203013824
    DFT Exchange-Correlation Energy =       0.0000000000000000
    Empirical Dispersion Energy =           0.0000000000000000
    PCM Polarization Energy =               0.0000000000000000
    EFP Energy =                            0.0000000000000000
    Total Energy =                       -384.0842990637577259
    Molecular point group: c1
  Basis Set: CC-PVTZ
  Basis Set:

  -Total Gradient:
     Atom            X                  Y                   Z
    ------   -----------------  -----------------  -----------------
       1        0.000006619909     0.000029638982     0.000021003193
       2        0.000004578811    -0.000023859564     0.000002085629
       3        0.000004156337     0.000009119548    -0.000006756064
       4       -0.000034215186    -0.000026178674     0.000031052804
       5       -0.000005479837    -0.000004091400     0.000009672592
       6        0.000010097978    -0.000003327953     0.000000207099
       7       -0.000000869500    -0.000001888305    -0.000010277953
       8       -0.000781189745     0.001826532038     0.001181666822
       9        0.001057640167    -0.002997203587    -0.002373898345
      10       -0.000001807618    -0.000016584370     0.000026447400
      11       -0.000018315180     0.000000658358     0.000016524801
      12        0.000135114725     0.003250235581     0.003519804135
      13       -0.000000376359     0.000034650874    -0.000007774232
      14        0.000005868568     0.000008445735    -0.000002416331
      15        0.000012079893    -0.000015483691     0.000000406259
      16       -0.000386404937    -0.002058579970    -0.002420753999
      17        0.000001766014    -0.000022736116     0.000002404552
      18       -0.000006429826    -0.000005892996     0.000011491507
      19        0.000010315780     0.000010596475     0.000009504576
      20       -0.000013150000     0.000005949033    -0.000010394443

  **** Optimization is complete! (in 6 steps) ****
    Final optimized geometry and variables:
    Molecular point group: c1

    Geometry (in Angstrom), charge = 0, multiplicity = 1:

    O           -2.349184183049    -0.800917853244    -0.240992709097
    C           -1.837689622797     0.187161951065     0.162764357243
    C           -2.553313324719     1.486893661509     0.399917852359
    O           -0.554225536212     0.276750262807     0.461858156125
    H           -2.107036025731     2.263501525027    -0.207813321450
    H           -3.596347715178     1.375428365285     0.152363002760
    H           -2.444537234197     1.777794037553     1.436703564859
    C            0.250581085656    -0.882457620996     0.288939561772
    C            1.673741072481    -0.529476617952     0.672909299265
    H            0.176522969002    -1.211730756596    -0.738595506217
    H           -0.136938113967    -1.672594039438     0.916427335788
    C            2.352727174549     0.470810748437    -0.273837070157
    H            2.247596568739    -1.449758983090     0.715825614753
    H            1.651882836635    -0.131629400226     1.681424013416
    C            3.113960902932    -0.205333479484    -1.412843593340
    H            1.601832569233     1.125049780357    -0.701162579422
    H            3.035811498636     1.097516990364     0.287214879871
    H            3.544327563561     0.528360152882    -2.084608672637
    H            2.463270570005    -0.844609438973    -2.000484018475
    H            3.922260881187    -0.820434844801    -1.031901812379

  Mulliken Charges: (a.u.)
   Center  Symbol    Alpha    Beta     Spin     Total
       1     O     4.19712  4.19712  0.00000 -0.39423
       2     C     2.80944  2.80944  0.00000  0.38112
       3     C     3.13801  3.13801  0.00000 -0.27602
       4     O     4.15311  4.15311  0.00000 -0.30622
       5     H     0.44629  0.44629  0.00000  0.10743
       6     H     0.43792  0.43792  0.00000  0.12417
       7     H     0.44562  0.44562  0.00000  0.10877
       8     C     2.99318  2.99318  0.00000  0.01364
       9     C     3.08991  3.08991  0.00000 -0.17983
      10     H     0.45088  0.45088  0.00000  0.09823
      11     H     0.44411  0.44411  0.00000  0.11177
      12     C     3.09297  3.09297  0.00000 -0.18594
      13     H     0.45167  0.45167  0.00000  0.09665
      14     H     0.44654  0.44654  0.00000  0.10691
      15     C     3.14858  3.14858  0.00000 -0.29716
      16     H     0.44958  0.44958  0.00000  0.10084
      17     H     0.44738  0.44738  0.00000  0.10523
      18     H     0.44768  0.44768  0.00000  0.10463
      19     H     0.45486  0.45486  0.00000  0.09029
      20     H     0.45515  0.45515  0.00000  0.08970

   Total alpha = 32.00000, Total beta = 32.00000, Total charge = -0.00000

*** Psi4 exiting successfully. Buy a developer a beer!
