                              Psi4 1.0.54 Driver

  ==> Input File <==

--------------------------------------------------------------------------
set {
	reference rhf
	basis cc-pvtz
}

set_num_threads( 4 )
memory 2 gb

molecule MOL {
0 1

O	 2.781562	 1.488496	 0.757433
C	 2.707333	 0.374491	 1.161899
C	 1.410740	 -0.409329	 1.144489
C	 3.914019	 -0.341019	 1.725972
C	 0.222634	 0.349721	 0.570837
H	 1.589353	 -1.325139	 0.585511
H	 1.207868	 -0.729250	 2.164047
C	 -1.059342	 -0.478315	 0.573740
H	 0.456044	 0.663916	 -0.440062
H	 0.074329	 1.260424	 1.139834
C	 -2.258482	 0.271340	 0.000669
H	 -0.902444	 -1.391162	 0.003330
H	 -1.286120	 -0.791577	 1.590451
C	 -3.544441	 -0.550271	 -0.000253
H	 -2.032845	 0.584678	 -1.015707
H	 -2.416608	 1.183593	 0.570685
C	 -4.804551	 0.308747	 0.000556
H	 -3.553737	 -1.201524	 -0.870151
H	 -3.553831	 -1.203282	 0.868313
H	 -4.842050	 0.949078	 -0.874436
H	 -5.698404	 -0.304480	 -0.000254
H	 -4.842277	 0.947103	 0.876982
H	 4.111819	 -1.244443	 1.159627
H	 4.775409	 0.307777	 1.687711
H	 3.726432	 -0.638608	 2.751786

	symmetry c1
}
set optking {
	frozen_dihedral = ("
		15 11 14 18
	")
}

ee,wfn = optimize('scf', return_wfn=True)
oeprop( wfn, 'DIPOLE', 'QUADRUPOLE', 'MULLIKEN_CHARGES')
f=open( 'psi4out.xyz', 'w' )
f.write( "25  " )
f.write( str(ee) + "\n" )
f.write( MOL.save_string_xyz() )
f.close()
--------------------------------------------------------------------------

    Molecular point group: c1
  Charge       = 0
  Multiplicity = 1
  Basis Set: CC-PVTZ
  Basis Set:
  @DF-RHF Final Energy:  -387.27265633375328
    Total Energy =                       -387.2726563337537300
    Molecular point group: c1
  Basis Set: CC-PVTZ
  Basis Set:
  Basis Set: CC-PVTZ
  Basis Set:
  @DF-RHF Final Energy:  -387.27282423679463
    Total Energy =                       -387.2728242367946905
  Basis Set: CC-PVTZ
  Basis Set:
  Basis Set: CC-PVTZ
  Basis Set:
  @DF-RHF Final Energy:  -387.27292066229876
    Total Energy =                       -387.2729206622991569
  Basis Set: CC-PVTZ
  Basis Set:
  Basis Set: CC-PVTZ
  Basis Set:
  @DF-RHF Final Energy:  -387.27287592417025
    Total Energy =                       -387.2728759241698526
  Basis Set: CC-PVTZ
  Basis Set:
  Basis Set: CC-PVTZ
  Basis Set:
  @DF-RHF Final Energy:  -387.27292205078322
    Total Energy =                       -387.2729220507832224
  Basis Set: CC-PVTZ
  Basis Set:
  Charge       = 0
  Multiplicity = 1
  Basis Set: CC-PVTZ
  Basis Set:

    Orbital Energies (a.u.)
    -----------------------

    Doubly Occupied:

       1A    -20.538858     2A    -11.320487     3A    -11.230142
       4A    -11.226571     5A    -11.215144     6A    -11.214510
       7A    -11.213576     8A    -11.211565     9A    -11.206383
      10A     -1.398898    11A     -1.094844    12A     -1.057180
      13A     -1.015443    14A     -0.970093    15A     -0.891110
      16A     -0.814839    17A     -0.791031    18A     -0.730956
      19A     -0.662488    20A     -0.654350    21A     -0.632855
      22A     -0.626675    23A     -0.598085    24A     -0.585686
      25A     -0.568525    26A     -0.560051    27A     -0.539024
      28A     -0.527319    29A     -0.514447    30A     -0.492615
      31A     -0.488430    32A     -0.475066    33A     -0.463364
      34A     -0.462031    35A     -0.451704    36A     -0.401269

  @DF-RHF Final Energy:  -387.27292222257881

   => Energetics <=

    Nuclear Repulsion Energy =            439.1554126103817453
    One-Electron Energy =               -1395.1654346644781981
    Two-Electron Energy =                 568.7370998315169572
    DFT Exchange-Correlation Energy =       0.0000000000000000
    Empirical Dispersion Energy =           0.0000000000000000
    PCM Polarization Energy =               0.0000000000000000
    EFP Energy =                            0.0000000000000000
    Total Energy =                       -387.2729222225794956
    Molecular point group: c1
  Basis Set: CC-PVTZ
  Basis Set:

  -Total Gradient:
     Atom            X                  Y                   Z
    ------   -----------------  -----------------  -----------------
       1       -0.000002743823     0.000014137661     0.000009597017
       2        0.000006360599    -0.000023881445    -0.000033528201
       3       -0.000003443975     0.000011247490     0.000017781430
       4       -0.000003385857     0.000006899446     0.000013924221
       5        0.000012272195    -0.000004884051    -0.000007720902
       6       -0.000000727426     0.000002594502    -0.000001348094
       7       -0.000000135036    -0.000003268323     0.000004034630
       8        0.000000608855     0.000006172090    -0.000003435722
       9        0.000001367283     0.000000337232    -0.000001964845
      10        0.000000755375     0.000002294515     0.000000997341
      11       -0.003054544620     0.004567474404     0.000175699511
      12        0.000001543038    -0.000001757195    -0.000005307146
      13       -0.000001265161    -0.000006242262     0.000003442170
      14        0.002699502238    -0.004139252174     0.002424020961
      15        0.002152594484    -0.003187248428    -0.000531166574
      16       -0.000003047730    -0.000008505905    -0.000003931435
      17       -0.000004602506    -0.000015560525     0.000005810276
      18       -0.001781831807     0.002761631401    -0.002062091223
      19        0.000002317419     0.000007822315    -0.000002749138
      20        0.000002871231     0.000008590989    -0.000006508380
      21       -0.000020774235    -0.000004289988    -0.000003495819
      22       -0.000003606448     0.000008594171     0.000008147039
      23       -0.000000589901    -0.000000246704    -0.000002627056
      24       -0.000002112043     0.000000379944    -0.000000459868
      25        0.000002617850    -0.000003039155     0.000002879809

  **** Optimization is complete! (in 6 steps) ****
    Final optimized geometry and variables:
    Molecular point group: c1

    Geometry (in Angstrom), charge = 0, multiplicity = 1:

    O            2.860998378586     1.374179205197     0.068573971620
    C            2.790145911453     0.263374798126     0.482195014368
    C            1.491896285201    -0.518021124922     0.488481999021
    C            4.002969893310    -0.450468931493     1.035300784502
    C            0.297387616728     0.239013121624    -0.074436768485
    H            1.661176838793    -1.438189012576    -0.066239116877
    H            1.302626579850    -0.830120487180     1.513066082145
    C           -0.985690032814    -0.586607231395    -0.049417991892
    H            0.518239016375     0.546719910664    -1.090155145857
    H            0.157723953270     1.153675321381     0.490675100846
    C           -2.195664234960     0.166258757913    -0.599862441889
    H           -0.841161939119    -1.499224628269    -0.624105167285
    H           -1.195020143950    -0.901281963377     0.970490532241
    C           -3.466435086615    -0.686349888655    -0.640632215219
    H           -1.956020588666     0.496544995180    -1.606782984331
    H           -2.364757770060     1.056965097897    -0.001853309260
    C           -4.741805079771     0.150720223276    -0.703793360304
    H           -3.438821867704    -1.324671015421    -1.518710345650
    H           -3.506089392556    -1.336114140138     0.228117455751
    H           -4.733273839532     0.810229648651    -1.565563016936
    H           -5.622212317686    -0.477607412947    -0.777928423726
    H           -4.848695048769     0.768645139824     0.181451551245
    H            4.190886292121    -1.358728615676     0.473357243182
    H            4.865300893591     0.195913462250     0.980138131943
    H            3.828765592252    -0.739511288869     2.065910485807

  Mulliken Charges: (a.u.)
   Center  Symbol    Alpha    Beta     Spin     Total
       1     O     4.17077  4.17077  0.00000 -0.34154
       2     C     2.86221  2.86221  0.00000  0.27558
       3     C     3.11373  3.11373  0.00000 -0.22746
       4     C     3.15127  3.15127  0.00000 -0.30255
       5     C     3.08343  3.08343  0.00000 -0.16685
       6     H     0.44557  0.44557  0.00000  0.10885
       7     H     0.44563  0.44563  0.00000  0.10875
       8     C     3.09070  3.09070  0.00000 -0.18140
       9     H     0.44606  0.44606  0.00000  0.10788
      10     H     0.44598  0.44598  0.00000  0.10805
      11     C     3.08746  3.08746  0.00000 -0.17491
      12     H     0.45560  0.45560  0.00000  0.08879
      13     H     0.45614  0.45614  0.00000  0.08771
      14     C     3.08494  3.08494  0.00000 -0.16988
      15     H     0.45294  0.45294  0.00000  0.09413
      16     H     0.45361  0.45361  0.00000  0.09278
      17     C     3.14944  3.14944  0.00000 -0.29888
      18     H     0.45373  0.45373  0.00000  0.09254
      19     H     0.45551  0.45551  0.00000  0.08898
      20     H     0.45431  0.45431  0.00000  0.09138
      21     H     0.44928  0.44928  0.00000  0.10143
      22     H     0.45554  0.45554  0.00000  0.08893
      23     H     0.45040  0.45040  0.00000  0.09919
      24     H     0.43537  0.43537  0.00000  0.12927
      25     H     0.45039  0.45039  0.00000  0.09922

   Total alpha = 36.00000, Total beta = 36.00000, Total charge =  0.00000

*** Psi4 exiting successfully. Buy a developer a beer!
