  ==> Input File <==

--------------------------------------------------------------------------
set {
	reference rhf
	basis 6-31G*
}

set_num_threads( 4 )
memory 2 gb

molecule MOL {
0 1

O	 -2.042549	 -1.228399	 -0.269030
C	 -1.653912	 -0.146171	 0.050137
C	 -0.332303	 0.024011	 0.778412
C	 -2.438579	 1.106236	 -0.272369
C	 0.845713	 -0.001731	 -0.208243
H	 -0.323783	 0.953829	 1.340327
H	 -0.235459	 -0.796807	 1.480410
C	 2.200309	 0.136118	 0.488247
H	 0.733710	 0.800019	 -0.936072
H	 0.811185	 -0.933796	 -0.764304
C	 3.263021	 0.772699	 -0.406523
H	 2.083663	 0.731212	 1.391399
H	 2.538816	 -0.846041	 0.809718
H	 2.968222	 1.770996	 -0.717247
H	 3.425000	 0.181821	 -1.303222
H	 4.212988	 0.854951	 0.111959
H	 -3.277823	 0.863061	 -0.908988
H	 -1.806773	 1.843019	 -0.759671
H	 -2.802853	 1.554979	 0.648059

	symmetry c1
}
set optking {
	frozen_dihedral = ("
		11 8 5 9
	")
}

ee = optimize('scf')
oeprop('DIPOLE', 'QUADRUPOLE', 'MULLIKEN_CHARGES')
f=open( 'psi4out.xyz', 'w' )
f.write( "19  " )
f.write( str(ee) + "\n" )
f.write( MOL.save_string_xyz() )
f.close()
--------------------------------------------------------------------------

    Molecular point group: c1
  Charge       = 0
  Multiplicity = 1
  Basis Set: 6-31G*
  Basis Set:
  @DF-RHF Final Energy:  -309.06246598782451
    Total Energy =                       -309.0624659878242824
    Molecular point group: c1
  Basis Set: 6-31G*
  Basis Set:
  Basis Set: 6-31G*
  Basis Set:
  @DF-RHF Final Energy:  -309.06249416109131
    Total Energy =                       -309.0624941610910241
  Basis Set: 6-31G*
  Basis Set:
  Basis Set: 6-31G*
  Basis Set:
  @DF-RHF Final Energy:  -309.06264398196038
    Total Energy =                       -309.0626439819600364
  Basis Set: 6-31G*
  Basis Set:
  Basis Set: 6-31G*
  Basis Set:
  @DF-RHF Final Energy:  -309.06266994825683
    Total Energy =                       -309.0626699482567119
  Basis Set: 6-31G*
  Basis Set:
  Basis Set: 6-31G*
  Basis Set:
  @DF-RHF Final Energy:  -309.06270606097615
    Total Energy =                       -309.0627060609761543
  Basis Set: 6-31G*
  Basis Set:
  Basis Set: 6-31G*
  Basis Set:
  @DF-RHF Final Energy:  -309.06273136854389
    Total Energy =                       -309.0627313685440640
  Basis Set: 6-31G*
  Basis Set:
  Basis Set: 6-31G*
  Basis Set:
  @DF-RHF Final Energy:  -309.06273325387360
    Total Energy =                       -309.0627332538736596
  Basis Set: 6-31G*
  Basis Set:
  Charge       = 0
  Multiplicity = 1
  Basis Set: 6-31G*
  Basis Set:

    Orbital Energies (a.u.)
    -----------------------

    Doubly Occupied:

       1A    -20.547670     2A    -11.324696     3A    -11.230321
       4A    -11.229725     5A    -11.228332     6A    -11.224635
       7A    -11.215616     8A     -1.393395     9A     -1.090306
      10A     -1.029223    11A     -0.984070    12A     -0.890021
      13A     -0.807281    14A     -0.733929    15A     -0.662646
      16A     -0.643314    17A     -0.622657    18A     -0.613089
      19A     -0.584619    20A     -0.571169    21A     -0.556118
      22A     -0.535793    23A     -0.509440    24A     -0.504549
      25A     -0.482617    26A     -0.471739    27A     -0.467123
      28A     -0.396874

  @DF-RHF Final Energy:  -309.06273368021994

   => Energetics <=

    Nuclear Repulsion Energy =            301.1923898416144993
    One-Electron Energy =               -1015.4083172777237678
    Two-Electron Energy =                 405.1531937558891059
    DFT Exchange-Correlation Energy =       0.0000000000000000
    Empirical Dispersion Energy =           0.0000000000000000
    PCM Polarization Energy =               0.0000000000000000
    EFP Energy =                            0.0000000000000000
    Total Energy =                       -309.0627336802201626
    Molecular point group: c1
  Basis Set: 6-31G*
  Basis Set:

  -Total Gradient:
     Atom            X                  Y                   Z
    ------   -----------------  -----------------  -----------------
       1        0.000017621917     0.000002353581    -0.000017432908
       2       -0.000040625748     0.000017360825     0.000048393723
       3       -0.000001337207     0.000012609557    -0.000012003049
       4       -0.000003446575    -0.000007868463    -0.000016408882
       5       -0.002447144791     0.004232820052     0.004202498402
       6       -0.000011672897    -0.000006804570     0.000011191119
       7        0.000002389776    -0.000001337459     0.000004719718
       8        0.001465146009    -0.004580628303    -0.002212636118
       9        0.001742736292    -0.002568623018    -0.003052776277
      10        0.000008118516     0.000005303098    -0.000025667655
      11       -0.000736484158     0.002877709763     0.001068170718
      12        0.000007647737     0.000005299037     0.000006486870
      13       -0.000009763525     0.000012628059    -0.000000328499
      14        0.000006609104     0.000002227441     0.000009802827
      15       -0.000001128271     0.000003656250    -0.000012888069
      16       -0.000000592999    -0.000008851547    -0.000002297881
      17       -0.000001663234     0.000002642372    -0.000001788544
      18        0.000003029945    -0.000001884389     0.000000065688
      19        0.000000560110     0.000001387718     0.000002898819

  **** Optimization is complete! (in 8 steps) ****
    Final optimized geometry and variables:
    Molecular point group: c1

    Geometry (in Angstrom), charge = 0, multiplicity = 1:

    O           -2.011739952507    -1.342220259736    -0.278219408348
    C           -1.641466804673    -0.252771089072     0.038098745024
    C           -0.322365860087    -0.057610711176     0.764801996827
    C           -2.447444163626     0.985382869978    -0.286831942070
    C            0.855407433788    -0.059977179911    -0.220128219460
    H           -0.330637083352     0.871536365041     1.327572424014
    H           -0.208067865831    -0.877042592647     1.466198075208
    C            2.221874949305     0.039060660808     0.474080463091
    H            0.753695111260     0.743942914193    -0.946409403033
    H            0.813341169642    -0.976952786844    -0.800866054398
    C            3.302298020841     0.649650253966    -0.417898141068
    H            2.129963109550     0.652252811465     1.368179576182
    H            2.527570472561    -0.946343025262     0.813954684457
    H            3.046132519541     1.668571538923    -0.692717362447
    H            3.427295755869     0.081347459292    -1.335543865046
    H            4.261891884574     0.673132806980     0.088768356651
    H           -3.283748246944     0.726232123675    -0.921015027575
    H           -1.828602884783     1.730605832279    -0.777948019903
    H           -2.817314483615     1.431379132891     0.632703451399

  Mulliken Charges: (a.u.)
   Center  Symbol    Alpha    Beta     Spin     Total
       1     O     4.26183  4.26183  0.00000 -0.52366
       2     C     2.73778  2.73778  0.00000  0.52445
       3     C     3.20049  3.20049  0.00000 -0.40098
       4     C     3.28955  3.28955  0.00000 -0.57910
       5     C     3.16402  3.16402  0.00000 -0.32804
       6     H     0.41656  0.41656  0.00000  0.16688
       7     H     0.40069  0.40069  0.00000  0.19862
       8     C     3.15220  3.15220  0.00000 -0.30440
       9     H     0.41993  0.41993  0.00000  0.16015
      10     H     0.40545  0.40545  0.00000  0.18910
      11     C     3.24104  3.24104  0.00000 -0.48208
      12     H     0.42212  0.42212  0.00000  0.15575
      13     H     0.41642  0.41642  0.00000  0.16716
      14     H     0.42131  0.42131  0.00000  0.15738
      15     H     0.41946  0.41946  0.00000  0.16107
      16     H     0.41770  0.41770  0.00000  0.16460
      17     H     0.39699  0.39699  0.00000  0.20602
      18     H     0.40968  0.40968  0.00000  0.18064
      19     H     0.40678  0.40678  0.00000  0.18644

   Total alpha = 28.00000, Total beta = 28.00000, Total charge = -0.00000
