                              Psi4 1.0.54 Driver

  ==> Input File <==

--------------------------------------------------------------------------
set {
	reference rhf
	basis cc-pvtz
}

set_num_threads( 4 )
memory 2 gb

molecule MOL {
0 1

O	 0.749630	 1.305591	 -0.000460
C	 0.576499	 0.134701	 -0.003900
C	 -0.765656	 -0.550508	 -0.002152
O	 1.564816	 -0.744612	 -0.000631
C	 -1.945526	 0.411052	 0.000603
H	 -0.794329	 -1.203792	 -0.868145
H	 -0.791555	 -1.205429	 0.862701
C	 -2.643975	 0.458848	 1.355154
H	 -2.649302	 0.115255	 -0.767900
H	 -1.600330	 1.400894	 -0.272220
H	 -3.027147	 -0.516558	 1.636354
H	 -3.479604	 1.147885	 1.334800
H	 -1.966409	 0.784655	 2.137510
C	 2.884339	 -0.237801	 0.002883
H	 3.064150	 0.362814	 -0.876312
H	 3.533055	 -1.098529	 0.004958
H	 3.059365	 0.363432	 0.882614

	symmetry c1
}
set optking {
	frozen_dihedral = ("
		9 5 3 6
	")
}

ee,wfn = optimize('scf', return_wfn=True)
oeprop( wfn, 'DIPOLE', 'QUADRUPOLE', 'MULLIKEN_CHARGES')
f=open( 'psi4out.xyz', 'w' )
f.write( "17  " )
f.write( str(ee) + "\n" )
f.write( MOL.save_string_xyz() )
f.close()
--------------------------------------------------------------------------

    Molecular point group: c1
  Charge       = 0
  Multiplicity = 1
  Basis Set: CC-PVTZ
  Basis Set:
  @DF-RHF Final Energy:  -345.03100770791684
    Total Energy =                       -345.0310077079170128
    Molecular point group: c1
  Basis Set: CC-PVTZ
  Basis Set:
  Basis Set: CC-PVTZ
  Basis Set:
  @DF-RHF Final Energy:  -345.03121060553718
    Total Energy =                       -345.0312106055371260
  Basis Set: CC-PVTZ
  Basis Set:
  Basis Set: CC-PVTZ
  Basis Set:
  @DF-RHF Final Energy:  -345.03123719299697
    Total Energy =                       -345.0312371929971391
  Basis Set: CC-PVTZ
  Basis Set:
  Basis Set: CC-PVTZ
  Basis Set:
  @DF-RHF Final Energy:  -345.03137504222951
    Total Energy =                       -345.0313750422291150
  Basis Set: CC-PVTZ
  Basis Set:
  Basis Set: CC-PVTZ
  Basis Set:
  @DF-RHF Final Energy:  -345.03141904493685
    Total Energy =                       -345.0314190449366265
  Basis Set: CC-PVTZ
  Basis Set:
  Basis Set: CC-PVTZ
  Basis Set:
  @DF-RHF Final Energy:  -345.03142249767194
    Total Energy =                       -345.0314224976721107
  Basis Set: CC-PVTZ
  Basis Set:
  Basis Set: CC-PVTZ
  Basis Set:
  @DF-RHF Final Energy:  -345.03142603466290
    Total Energy =                       -345.0314260346631841
  Basis Set: CC-PVTZ
  Basis Set:
  Charge       = 0
  Multiplicity = 1
  Basis Set: CC-PVTZ
  Basis Set:

    Orbital Energies (a.u.)
    -----------------------

    Doubly Occupied:

       1A    -20.597146     2A    -20.535373     3A    -11.366035
       4A    -11.279117     5A    -11.234096     6A    -11.218643
       7A    -11.210070     8A     -1.473354     9A     -1.366863
      10A     -1.078716    11A     -1.002041    12A     -0.939442
      13A     -0.829723    14A     -0.768914    15A     -0.705451
      16A     -0.684898    17A     -0.676494    18A     -0.623785
      19A     -0.607566    20A     -0.571336    21A     -0.570254
      22A     -0.534389    23A     -0.526118    24A     -0.488486
      25A     -0.484361    26A     -0.477497    27A     -0.461618
      28A     -0.443657

  @DF-RHF Final Energy:  -345.03142696732891

   => Energetics <=

    Nuclear Repulsion Energy =            315.2188943618434678
    One-Electron Energy =               -1094.9897593717530526
    Two-Electron Energy =                 434.7394380425807299
    DFT Exchange-Correlation Energy =       0.0000000000000000
    Empirical Dispersion Energy =           0.0000000000000000
    PCM Polarization Energy =               0.0000000000000000
    EFP Energy =                            0.0000000000000000
    Total Energy =                       -345.0314269673288550
    Molecular point group: c1
  Basis Set: CC-PVTZ
  Basis Set:

  -Total Gradient:
     Atom            X                  Y                   Z
    ------   -----------------  -----------------  -----------------
       1        0.000045557317     0.000125285781    -0.000003217238
       2       -0.000107000719    -0.000078737442     0.000022504377
       3        0.002236409507     0.002895817196    -0.002440222641
       4        0.000059259636    -0.000045196900    -0.000012228738
       5       -0.002006011952    -0.002621468059     0.002824491580
       6       -0.001525275966    -0.001988355302     0.001569361072
       7       -0.000001828634     0.000016695287    -0.000005007366
       8        0.000021929368    -0.000008454386    -0.000010647970
       9        0.001295421111     0.001697737645    -0.001963784854
      10        0.000004836751    -0.000001581641    -0.000001882472
      11       -0.000011550227    -0.000001238232     0.000004205642
      12       -0.000005513100     0.000008979392     0.000004409349
      13       -0.000001316664    -0.000003979203     0.000011980501
      14       -0.000051067267    -0.000036142179    -0.000004074688
      15        0.000008418784     0.000035552896    -0.000027726860
      16        0.000027578410    -0.000027359572    -0.000002412637
      17        0.000010153642     0.000032444722     0.000034252945

  **** Optimization is complete! (in 8 steps) ****
    Final optimized geometry and variables:
    Molecular point group: c1

    Geometry (in Angstrom), charge = 0, multiplicity = 1:

    O            0.664795694150     1.190120138711    -0.114219225532
    C            0.486490232962     0.022561091440    -0.193062994362
    C           -0.854489709736    -0.668223178620    -0.205752373921
    O            1.472744164388    -0.855417758522    -0.270856970873
    C           -2.064363046804     0.273272016150    -0.184126640609
    H           -0.874761933076    -1.335324557081    -1.058758823227
    H           -0.859418826631    -1.328021732401     0.656426886754
    C           -2.739615868304     0.362592779314     1.179791451740
    H           -2.777094164503    -0.048174896403    -0.934738135811
    H           -1.740302671190     1.260246284163    -0.484644959825
    H           -3.114871969869    -0.604167350370     1.499384803027
    H           -3.576008028777     1.051037486542     1.154306198439
    H           -2.043631339150     0.716105735618     1.932750274423
    C            2.793245286109    -0.351937150126    -0.252929203160
    H            2.959886975562     0.311215335760    -1.088823501341
    H            3.440220423384    -1.211132108725    -0.324749177550
    H            2.984840379492     0.183356169786     0.665285740147

  Mulliken Charges: (a.u.)
   Center  Symbol    Alpha    Beta     Spin     Total
       1     O     4.19718  4.19718  0.00000 -0.39436
       2     C     2.80244  2.80244  0.00000  0.39512
       3     C     3.10624  3.10624  0.00000 -0.21248
       4     O     4.14706  4.14706  0.00000 -0.29412
       5     C     3.08899  3.08899  0.00000 -0.17798
       6     H     0.43211  0.43211  0.00000  0.13577
       7     H     0.44110  0.44110  0.00000  0.11779
       8     C     3.14810  3.14810  0.00000 -0.29619
       9     H     0.44942  0.44942  0.00000  0.10116
      10     H     0.44009  0.44009  0.00000  0.11982
      11     H     0.45723  0.45723  0.00000  0.08554
      12     H     0.44844  0.44844  0.00000  0.10312
      13     H     0.45127  0.45127  0.00000  0.09745
      14     C     3.03623  3.03623  0.00000 -0.07246
      15     H     0.45421  0.45421  0.00000  0.09159
      16     H     0.44543  0.44543  0.00000  0.10915
      17     H     0.45447  0.45447  0.00000  0.09107

   Total alpha = 28.00000, Total beta = 28.00000, Total charge = -0.00000

*** Psi4 exiting successfully. Buy a developer a beer!
