  ==> Input File <==

--------------------------------------------------------------------------
set {
	reference rhf
	basis 6-31G*
}

set_num_threads( 4 )
memory 2 gb

molecule MOL {
0 1

H	 3.276176	 0.174363	 -0.109463
N	 2.434251	 -0.367735	 -0.081097
C	 1.267428	 0.496480	 0.024474
H	 2.501951	 -0.965776	 0.720575
C	 -0.016086	 -0.325158	 -0.029487
H	 1.288818	 1.183521	 -0.816092
H	 1.267576	 1.109062	 0.929528
C	 -1.282277	 0.529072	 0.046735
H	 -0.012495	 -0.908639	 -0.945788
H	 -0.015903	 -1.041248	 0.791956
C	 -1.313422	 1.640626	 -1.001683
H	 -1.361066	 0.968841	 1.038895
H	 -2.157618	 -0.105503	 -0.075938
H	 -0.469051	 2.313549	 -0.883644
H	 -2.221045	 2.230972	 -0.922727
H	 -1.270971	 1.231908	 -2.007351

	symmetry c1
}
set optking {
	frozen_dihedral = ("
		12 8 5 9
	")
}

ee = optimize('scf')
oeprop('DIPOLE', 'QUADRUPOLE', 'MULLIKEN_CHARGES')
f=open( 'psi4out.xyz', 'w' )
f.write( "16  " )
f.write( str(ee) + "\n" )
f.write( MOL.save_string_xyz() )
f.close()
--------------------------------------------------------------------------

    Molecular point group: c1
  Charge       = 0
  Multiplicity = 1
  Basis Set: 6-31G*
  Basis Set:
  @DF-RHF Final Energy:  -212.31389418195616
    Total Energy =                       -212.3138941819561865
    Molecular point group: c1
  Basis Set: 6-31G*
  Basis Set:
  Basis Set: 6-31G*
  Basis Set:
  @DF-RHF Final Energy:  -212.31460741507641
    Total Energy =                       -212.3146074150761820
  Basis Set: 6-31G*
  Basis Set:
  Basis Set: 6-31G*
  Basis Set:
  @DF-RHF Final Energy:  -212.31517502035985
    Total Energy =                       -212.3151750203598453
  Basis Set: 6-31G*
  Basis Set:
  Basis Set: 6-31G*
  Basis Set:
  @DF-RHF Final Energy:  -212.31522742695438
    Total Energy =                       -212.3152274269543796
  Basis Set: 6-31G*
  Basis Set:
  Basis Set: 6-31G*
  Basis Set:
  @DF-RHF Final Energy:  -212.31523135324002
    Total Energy =                       -212.3152313532398239
  Basis Set: 6-31G*
  Basis Set:
  Charge       = 0
  Multiplicity = 1
  Basis Set: 6-31G*
  Basis Set:

    Orbital Energies (a.u.)
    -----------------------

    Doubly Occupied:

       1A    -15.532626     2A    -11.239567     3A    -11.215266
       4A    -11.209890     5A    -11.208155     6A     -1.176796
       7A     -1.058391     8A     -0.954586     9A     -0.860067
      10A     -0.778068    11A     -0.664894    12A     -0.629966
      13A     -0.604448    14A     -0.596390    15A     -0.547824
      16A     -0.523899    17A     -0.515584    18A     -0.466403
      19A     -0.464215    20A     -0.456029    21A     -0.381152

  @DF-RHF Final Energy:  -212.31523172733341

   => Energetics <=

    Nuclear Repulsion Energy =            188.8251708745783617
    One-Electron Energy =                -660.1123743414972296
    Two-Electron Energy =                 258.9719717395853422
    DFT Exchange-Correlation Energy =       0.0000000000000000
    Empirical Dispersion Energy =           0.0000000000000000
    PCM Polarization Energy =               0.0000000000000000
    EFP Energy =                            0.0000000000000000
    Total Energy =                       -212.3152317273335257
    Molecular point group: c1
  Basis Set: 6-31G*
  Basis Set:

  -Total Gradient:
     Atom            X                  Y                   Z
    ------   -----------------  -----------------  -----------------
       1       -0.000001359982     0.000000840804    -0.000003995863
       2        0.000004659050    -0.000002548727    -0.000036114767
       3        0.000000993391     0.000010918347     0.000078435871
       4       -0.000013020487     0.000011810055    -0.000002584686
       5        0.000819641434     0.001384555211    -0.000969711456
       6        0.000010226159    -0.000015373476     0.000000025819
       7        0.000004656311     0.000022296537     0.000000135116
       8        0.000954402470     0.001464384128    -0.000517269893
       9       -0.000874070586    -0.001396971972     0.000875149398
      10       -0.000007560828     0.000007737376    -0.000004350196
      11        0.000014301392    -0.000002492544    -0.000004342612
      12       -0.000915089738    -0.001479605540     0.000573247356
      13       -0.000001546544    -0.000009066717     0.000008917846
      14        0.000002649918     0.000011306067    -0.000001301566
      15       -0.000002647444    -0.000008779446     0.000002376255
      16        0.000003765487     0.000000989899     0.000001383378

  **** Optimization is complete! (in 6 steps) ****
    Final optimized geometry and variables:
    Molecular point group: c1

    Geometry (in Angstrom), charge = 0, multiplicity = 1:

    H            3.052173365637    -0.318770662353     0.162821342039
    N            2.188034984817    -0.825058823611     0.181250842892
    C            1.054425308872     0.087804268730     0.209596776741
    H            2.202483443080    -1.394664708830     1.005866125512
    C           -0.253176906108    -0.694409378137     0.132087682601
    H            1.145570666924     0.744037772796    -0.648639454618
    H            1.039998800815     0.728781438443     1.095513295484
    C           -1.522266446326     0.156800576822     0.249076772095
    H           -0.269088428827    -1.266966908340    -0.791115502871
    H           -0.261831578751    -1.428992552554     0.936429617807
    C           -1.653424510670     1.262872059268    -0.799214869363
    H           -1.581550634611     0.585675731140     1.247472660893
    H           -2.379731070948    -0.506376585772     0.164491268594
    H           -0.890663654889     2.025994347903    -0.683314002656
    H           -2.618341497945     1.754174065964    -0.721148776322
    H           -1.568263176384     0.859708600330    -1.804717516162

  Mulliken Charges: (a.u.)
   Center  Symbol    Alpha    Beta     Spin     Total
       1     H     0.33241  0.33241  0.00000  0.33517
       2     N     3.92196  3.92196  0.00000 -0.84391
       3     C     3.06241  3.06241  0.00000 -0.12482
       4     H     0.33533  0.33533  0.00000  0.32935
       5     C     3.15097  3.15097  0.00000 -0.30193
       6     H     0.41851  0.41851  0.00000  0.16298
       7     H     0.43530  0.43530  0.00000  0.12940
       8     C     3.15614  3.15614  0.00000 -0.31227
       9     H     0.41416  0.41416  0.00000  0.17169
      10     H     0.42648  0.42648  0.00000  0.14703
      11     C     3.24221  3.24221  0.00000 -0.48442
      12     H     0.42380  0.42380  0.00000  0.15240
      13     H     0.41999  0.41999  0.00000  0.16002
      14     H     0.42093  0.42093  0.00000  0.15814
      15     H     0.41907  0.41907  0.00000  0.16186
      16     H     0.42033  0.42033  0.00000  0.15933

   Total alpha = 21.00000, Total beta = 21.00000, Total charge = -0.00000
