  ==> Input File <==

--------------------------------------------------------------------------
set {
	reference rhf
	basis 6-31G*
}

set_num_threads( 1 )
memory 2 gb

molecule MOL {
0 1

O	 2.862325	 1.357334	 0.000267
C	 2.843464	 0.164689	 -0.000222
C	 1.546494	 -0.624492	 -0.000609
C	 4.124123	 -0.644674	 -0.000428
C	 0.291004	 0.242674	 0.000989
H	 1.557904	 -1.283758	 -0.867573
H	 1.558622	 -1.285963	 0.864672
C	 0.004008	 0.856260	 1.372451
H	 -0.555402	 -0.356233	 -0.320004
H	 0.400557	 1.028642	 -0.739552
C	 -1.253580	 1.726898	 1.386344
H	 -0.101264	 0.062730	 2.110878
H	 0.857434	 1.454187	 1.689018
C	 -1.547472	 2.344143	 2.754792
H	 -2.107475	 1.130016	 1.070729
H	 -1.149104	 2.521022	 0.649154
C	 -2.805279	 3.212228	 2.760725
H	 -1.653295	 1.551239	 3.492307
H	 -0.695223	 2.942262	 3.070677
H	 -3.681739	 2.634233	 2.481636
H	 -2.987394	 3.634955	 3.744003
H	 -2.716439	 4.035789	 2.057874
H	 4.165367	 -1.288615	 -0.874074
H	 4.976217	 0.020734	 -0.001915
H	 4.166763	 -1.286207	 0.874930

	symmetry c1
}
set optking {
	frozen_dihedral = ("
		9 5 8 12,
		15 11 8 12,
		15 11 14 18,
		1 2 3 6
	")
}

ee = energy('scf')
oeprop('DIPOLE', 'QUADRUPOLE', 'MULLIKEN_CHARGES')
f=open( 'psi4out.xyz', 'w' )
f.write( "25  " )
f.write( str(ee) + "\n" )
f.write( MOL.save_string_xyz() )
f.close()
--------------------------------------------------------------------------

    Molecular point group: c1

    Geometry (in Angstrom), charge = 0, multiplicity = 1:

       Center              X                  Y                   Z               Mass
    ------------   -----------------  -----------------  -----------------  -----------------
           O          2.188994001360     0.384187886746    -0.926570907032    15.994914619560
           C          2.170133001360    -0.808457113254    -0.927059907032    12.000000000000
           C          0.873163001360    -1.597638113254    -0.927446907032    12.000000000000
           C          3.450792001360    -1.617820113254    -0.927265907032    12.000000000000
           C         -0.382326998640    -0.730472113254    -0.925848907032    12.000000000000
           H          0.884573001360    -2.256904113254    -1.794410907032     1.007825032070
           H          0.885291001360    -2.259109113254    -0.062165907032     1.007825032070
           C         -0.669322998640    -0.116886113254     0.445613092968    12.000000000000
           H         -1.228732998640    -1.329379113254    -1.246841907032     1.007825032070
           H         -0.272773998640     0.055495886746    -1.666389907032     1.007825032070
           C         -1.926910998640     0.753751886746     0.459506092968    12.000000000000
           H         -0.774594998640    -0.910416113254     1.184040092968     1.007825032070
           H          0.184103001360     0.481040886746     0.762180092968     1.007825032070
           C         -2.220802998640     1.370996886746     1.827954092968    12.000000000000
           H         -2.780805998640     0.156869886746     0.143891092968     1.007825032070
           H         -1.822434998640     1.547875886746    -0.277683907032     1.007825032070
           C         -3.478609998640     2.239081886746     1.833887092968    12.000000000000
           H         -2.326625998640     0.578092886746     2.565469092968     1.007825032070
           H         -1.368553998640     1.969115886746     2.143839092968     1.007825032070
           H         -4.355069998640     1.661086886746     1.554798092968     1.007825032070
           H         -3.660724998640     2.661808886746     2.817165092968     1.007825032070
           H         -3.389769998640     3.062642886746     1.131036092968     1.007825032070
           H          3.492036001360    -2.261761113254    -1.800911907032     1.007825032070
           H          4.302886001360    -0.952412113254    -0.928752907032     1.007825032070
           H          3.493432001360    -2.259353113254    -0.051907907032     1.007825032070

  Charge       = 0
  Multiplicity = 1
  Basis Set: 6-31G*
  Basis Set:

    Orbital Energies (a.u.)
    -----------------------

    Doubly Occupied:

       1A    -20.551726     2A    -11.327500     3A    -11.231873
       4A    -11.229141     5A    -11.216440     6A    -11.210791
       7A    -11.208938     8A    -11.208281     9A    -11.204852
      10A     -1.397498    11A     -1.090070    12A     -1.054189
      13A     -1.013513    14A     -0.966417    15A     -0.887697
      16A     -0.814478    17A     -0.786542    18A     -0.728638
      19A     -0.668948    20A     -0.636297    21A     -0.632989
      22A     -0.621905    23A     -0.589299    24A     -0.584590
      25A     -0.573485    26A     -0.555286    27A     -0.532462
      28A     -0.524726    29A     -0.514329    30A     -0.499383
      31A     -0.481974    32A     -0.472912    33A     -0.459764
      34A     -0.456537    35A     -0.438437    36A     -0.401185

  @DF-RHF Final Energy:  -387.13562527922198

   => Energetics <=

    Nuclear Repulsion Energy =            448.4952768608581550
    One-Electron Energy =               -1413.7159060065732774
    Two-Electron Energy =                 578.0850038664957538
    DFT Exchange-Correlation Energy =       0.0000000000000000
    Empirical Dispersion Energy =           0.0000000000000000
    PCM Polarization Energy =               0.0000000000000000
    EFP Energy =                            0.0000000000000000
    Total Energy =                       -387.1356252792193118

  Mulliken Charges: (a.u.)
   Center  Symbol    Alpha    Beta     Spin     Total
       1     O     4.26160  4.26160  0.00000 -0.52320
       2     C     2.73640  2.73640  0.00000  0.52721
       3     C     3.21228  3.21228  0.00000 -0.42457
       4     C     3.28663  3.28663  0.00000 -0.57325
       5     C     3.15092  3.15092  0.00000 -0.30184
       6     H     0.40721  0.40721  0.00000  0.18558
       7     H     0.40943  0.40943  0.00000  0.18115
       8     C     3.15720  3.15720  0.00000 -0.31440
       9     H     0.42077  0.42077  0.00000  0.15845
      10     H     0.40813  0.40813  0.00000  0.18374
      11     C     3.15125  3.15125  0.00000 -0.30251
      12     H     0.42869  0.42869  0.00000  0.14262
      13     H     0.40785  0.40785  0.00000  0.18429
      14     C     3.15162  3.15162  0.00000 -0.30325
      15     H     0.42648  0.42648  0.00000  0.14703
      16     H     0.42104  0.42104  0.00000  0.15792
      17     C     3.23923  3.23923  0.00000 -0.47846
      18     H     0.42470  0.42470  0.00000  0.15061
      19     H     0.42130  0.42130  0.00000  0.15741
      20     H     0.42276  0.42276  0.00000  0.15447
      21     H     0.42001  0.42001  0.00000  0.15998
      22     H     0.42125  0.42125  0.00000  0.15750
      23     H     0.40850  0.40850  0.00000  0.18301
      24     H     0.39645  0.39645  0.00000  0.20711
      25     H     0.40830  0.40830  0.00000  0.18339

   Total alpha = 36.00000, Total beta = 36.00000, Total charge =  0.00000
