  ==> Input File <==

--------------------------------------------------------------------------
set {
	reference rhf
	basis 6-31G*
}

set_num_threads( 4 )
memory 2 gb

molecule MOL {
0 1

H	 5.204638	 -0.017001	 1.447110
C	 4.634951	 -0.456286	 0.634086
C	 3.132810	 -0.363279	 0.898844
H	 4.902616	 0.068125	 -0.278433
H	 4.953122	 -1.489859	 0.527816
C	 2.299323	 -0.980420	 -0.226433
H	 2.855079	 0.678092	 1.025391
H	 2.901083	 -0.867092	 1.835949
C	 0.791628	 -0.918336	 0.019066
H	 2.524740	 -0.480844	 -1.161984
H	 2.583154	 -2.023374	 -0.347797
C	 0.195915	 0.477603	 -0.089202
H	 0.274150	 -1.533851	 -0.715188
H	 0.537933	 -1.341631	 0.988415
C	 -1.181045	 0.701995	 0.511084
O	 0.775728	 1.364299	 -0.640556
C	 -2.285934	 -0.139295	 -0.145128
H	 -1.403175	 1.757384	 0.408484
H	 -1.136633	 0.472094	 1.574031
C	 -3.651768	 0.085446	 0.506485
H	 -2.346596	 0.110469	 -1.202272
H	 -2.034737	 -1.195320	 -0.088721
C	 -4.759797	 -0.746382	 -0.137905
H	 -3.908762	 1.140117	 0.445781
H	 -3.588286	 -0.154158	 1.565709
H	 -4.868882	 -0.505166	 -1.191300
H	 -4.548009	 -1.809175	 -0.062213
H	 -5.715422	 -0.564821	 0.343442

	symmetry c1
}
set optking {
	frozen_dihedral = ("
		12 15 17 21
	")
}

ee = optimize('scf')
oeprop('DIPOLE', 'QUADRUPOLE', 'MULLIKEN_CHARGES')
f=open( 'psi4out.xyz', 'w' )
f.write( "28  " )
f.write( str(ee) + "\n" )
f.write( MOL.save_string_xyz() )
f.close()
--------------------------------------------------------------------------

    Molecular point group: c1
  Charge       = 0
  Multiplicity = 1
  Basis Set: 6-31G*
  Basis Set:
  @DF-RHF Final Energy:  -426.16908267081919
    Total Energy =                       -426.1690826708195345
    Molecular point group: c1
  Basis Set: 6-31G*
  Basis Set:
  Basis Set: 6-31G*
  Basis Set:
  @DF-RHF Final Energy:  -426.16892566239778
    Total Energy =                       -426.1689256623977826
  Basis Set: 6-31G*
  Basis Set:
  Basis Set: 6-31G*
  Basis Set:
  @DF-RHF Final Energy:  -426.16897283225342
    Total Energy =                       -426.1689728322535302
  Basis Set: 6-31G*
  Basis Set:
  Basis Set: 6-31G*
  Basis Set:
  @DF-RHF Final Energy:  -426.16909907564059
    Total Energy =                       -426.1690990756405881
  Basis Set: 6-31G*
  Basis Set:
  Basis Set: 6-31G*
  Basis Set:
  @DF-RHF Final Energy:  -426.16910010375670
    Total Energy =                       -426.1691001037570459
  Basis Set: 6-31G*
  Basis Set:
  Basis Set: 6-31G*
  Basis Set:
  @DF-RHF Final Energy:  -426.16910491198814
    Total Energy =                       -426.1691049119882564
  Basis Set: 6-31G*
  Basis Set:
  Basis Set: 6-31G*
  Basis Set:
  @DF-RHF Final Energy:  -426.16910641298682
    Total Energy =                       -426.1691064129870483
  Basis Set: 6-31G*
  Basis Set:
  Charge       = 0
  Multiplicity = 1
  Basis Set: 6-31G*
  Basis Set:

    Orbital Energies (a.u.)
    -----------------------

    Doubly Occupied:

       1A    -20.547931     2A    -11.322118     3A    -11.232362
       4A    -11.229928     5A    -11.228919     6A    -11.226163
       7A    -11.216590     8A    -11.216409     9A    -11.212637
      10A    -11.205914    11A     -1.393052    12A     -1.095264
      13A     -1.077512    14A     -1.022577    15A     -0.990835
      16A     -0.907338    17A     -0.873422    18A     -0.809290
      19A     -0.799845    20A     -0.722809    21A     -0.668240
      22A     -0.654567    23A     -0.626839    24A     -0.619966
      25A     -0.609807    26A     -0.588219    27A     -0.576655
      28A     -0.575295    29A     -0.543176    30A     -0.532898
      31A     -0.520267    32A     -0.506467    33A     -0.499210
      34A     -0.485129    35A     -0.478798    36A     -0.476112
      37A     -0.471820    38A     -0.465315    39A     -0.455168
      40A     -0.392166

  @DF-RHF Final Energy:  -426.16910659182804

   => Energetics <=

    Nuclear Repulsion Energy =            531.2899996853390121
    One-Electron Energy =               -1630.7641526230568161
    Two-Electron Energy =                 673.3050463458896502
    DFT Exchange-Correlation Energy =       0.0000000000000000
    Empirical Dispersion Energy =           0.0000000000000000
    PCM Polarization Energy =               0.0000000000000000
    EFP Energy =                            0.0000000000000000
    Total Energy =                       -426.1691065918282675
    Molecular point group: c1
  Basis Set: 6-31G*
  Basis Set:

  -Total Gradient:
     Atom            X                  Y                   Z
    ------   -----------------  -----------------  -----------------
       1        0.000002412301     0.000000862301     0.000000118917
       2        0.000001594042     0.000005319766     0.000000837696
       3        0.000001624061    -0.000006284089    -0.000005304053
       4        0.000001021559    -0.000000464491    -0.000000831173
       5       -0.000001675841     0.000000437806     0.000000589992
       6        0.000003942309    -0.000012589642     0.000003726561
       7       -0.000005598829     0.000001694247    -0.000000550135
       8        0.000000813499     0.000000469831    -0.000000422728
       9        0.000002984004    -0.000004197951    -0.000036027543
      10       -0.000002378977    -0.000007257288     0.000004941363
      11        0.000008508356     0.000000597841     0.000006434322
      12        0.000142921008    -0.000572067014     0.000512618161
      13        0.000001931157    -0.000006796211     0.000010971781
      14       -0.000005607711     0.000004371871    -0.000000929792
      15       -0.000317028755     0.000996601444    -0.000609786686
      16       -0.000020335137     0.000011625038    -0.000001534342
      17        0.000906712220    -0.001161720616    -0.000103826154
      18       -0.000008682649    -0.000002627619    -0.000002254672
      19       -0.000012064776    -0.000001768522    -0.000013042217
      20       -0.000000211690    -0.000007593168     0.000004887997
      21       -0.000694625532     0.000752415759     0.000220298011
      22       -0.000006687121     0.000007693194     0.000009163169
      23        0.000000544010     0.000001825022    -0.000001436617
      24        0.000002304749    -0.000001397797    -0.000001630703
      25       -0.000003306407    -0.000000333267     0.000002450870
      26       -0.000000588369     0.000000032575    -0.000000608391
      27        0.000001248450     0.000001355532     0.000000430904
      28        0.000000230071    -0.000000204558     0.000000715464

  **** Optimization is complete! (in 8 steps) ****
    Final optimized geometry and variables:
    Molecular point group: c1

    Geometry (in Angstrom), charge = 0, multiplicity = 1:

    H            5.183326899397     0.092722504340     1.362335405701
    C            4.629352493742    -0.345703069393     0.538078439521
    C            3.122625161275    -0.262212368107     0.778780334201
    H            4.908884440317     0.184541025472    -0.367480428868
    H            4.954859405152    -1.377024612280     0.432123677222
    C            2.310866872115    -0.877825960371    -0.363106549231
    H            2.837374324115     0.777132859696     0.906135185531
    H            2.878407260244    -0.771938191489     1.709488313295
    C            0.798981659668    -0.825574632046    -0.141408880957
    H            2.548094988106    -0.371715086089    -1.292116465151
    H            2.602512101176    -1.918452321552    -0.485629995168
    C            0.200002401658     0.569688665700    -0.245174094860
    H            0.297476548696    -1.434664838622    -0.891792621743
    H            0.531777535255    -1.261392803993     0.818558787123
    C           -1.171040752360     0.794564402820     0.368369151337
    O            0.775743760883     1.456236192744    -0.801116575156
    C           -2.284015428667    -0.051603768278    -0.267228881593
    H           -1.397949211259     1.849035866421     0.268439703879
    H           -1.109381529749     0.565757499477     1.430936406646
    C           -3.642951844126     0.187340153774     0.394670667111
    H           -2.356803525054     0.192229454744    -1.324810418810
    H           -2.038672465103    -1.108189545963    -0.202516916931
    C           -4.764326141839    -0.632563182896    -0.241860706160
    H           -3.889555211770     1.244706148075     0.336222554797
    H           -3.574334223832    -0.053337256023     1.453310273666
    H           -4.879947677886    -0.388513201533    -1.293888195495
    H           -4.562076280436    -1.697479767999    -0.169774164632
    H           -5.714127022031    -0.442794879942     0.247831332956

  Mulliken Charges: (a.u.)
   Center  Symbol    Alpha    Beta     Spin     Total
       1     H     0.41932  0.41932  0.00000  0.16136
       2     C     3.24010  3.24010  0.00000 -0.48020
       3     C     3.15649  3.15649  0.00000 -0.31298
       4     H     0.41825  0.41825  0.00000  0.16351
       5     H     0.42355  0.42355  0.00000  0.15289
       6     C     3.14924  3.14924  0.00000 -0.29849
       7     H     0.41082  0.41082  0.00000  0.17837
       8     H     0.42763  0.42763  0.00000  0.14474
       9     C     3.21190  3.21190  0.00000 -0.42381
      10     H     0.40633  0.40633  0.00000  0.18735
      11     H     0.42187  0.42187  0.00000  0.15625
      12     C     2.73100  2.73100  0.00000  0.53800
      13     H     0.40280  0.40280  0.00000  0.19440
      14     H     0.41347  0.41347  0.00000  0.17306
      15     C     3.20194  3.20194  0.00000 -0.40388
      16     O     4.26687  4.26687  0.00000 -0.53375
      17     C     3.16378  3.16378  0.00000 -0.32757
      18     H     0.39961  0.39961  0.00000  0.20078
      19     H     0.41316  0.41316  0.00000  0.17368
      20     C     3.15191  3.15191  0.00000 -0.30383
      21     H     0.41347  0.41347  0.00000  0.17307
      22     H     0.41829  0.41829  0.00000  0.16342
      23     C     3.24029  3.24029  0.00000 -0.48057
      24     H     0.41865  0.41865  0.00000  0.16270
      25     H     0.42155  0.42155  0.00000  0.15690
      26     H     0.41960  0.41960  0.00000  0.16080
      27     H     0.42121  0.42121  0.00000  0.15758
      28     H     0.41690  0.41690  0.00000  0.16620

   Total alpha = 40.00000, Total beta = 40.00000, Total charge =  0.00000
