                              Psi4 1.0.54 Driver

  ==> Input File <==

--------------------------------------------------------------------------
set {
	reference rhf
	basis cc-pvtz
}

set_num_threads( 4 )
memory 2 gb

molecule MOL {
0 1

H	 3.478279	 4.683227	 -1.631428
C	 2.532845	 4.494899	 -2.126962
C	 1.836514	 3.272064	 -1.539492
H	 1.918887	 5.382033	 -2.016207
H	 2.734579	 4.362158	 -3.185018
C	 0.504136	 2.969292	 -2.221451
H	 1.672669	 3.428683	 -0.479509
H	 2.490396	 2.407900	 -1.631590
C	 -0.212909	 1.746366	 -1.658259
H	 -0.148602	 3.829547	 -2.139460
H	 0.678139	 2.804285	 -3.280828
C	 -0.809181	 1.941827	 -0.274518
H	 -1.040593	 1.472758	 -2.307753
H	 0.445540	 0.882831	 -1.641775
C	 -1.180025	 0.697761	 0.509157
O	 -1.000278	 3.025510	 0.175357
C	 -2.285431	 -0.137488	 -0.145671
H	 -1.491833	 1.023718	 1.492196
H	 -0.288408	 0.087351	 0.625838
C	 -3.646545	 0.082747	 0.508954
H	 -2.348635	 0.118247	 -1.199806
H	 -2.034895	 -1.192387	 -0.096473
C	 -4.757412	 -0.737227	 -0.138149
H	 -3.900211	 1.137405	 0.459735
H	 -3.580878	 -0.166775	 1.564416
H	 -4.867876	 -0.486707	 -1.187777
H	 -4.549650	 -1.800049	 -0.072540
H	 -5.709585	 -0.556397	 0.346597

	symmetry c1
}
set optking {
	frozen_dihedral = ("
		12 15 17 21
	")
}

ee,wfn = optimize('scf', return_wfn=True)
oeprop( wfn, 'DIPOLE', 'QUADRUPOLE', 'MULLIKEN_CHARGES')
f=open( 'psi4out.xyz', 'w' )
f.write( "28  " )
f.write( str(ee) + "\n" )
f.write( MOL.save_string_xyz() )
f.close()
--------------------------------------------------------------------------

    Molecular point group: c1
  Charge       = 0
  Multiplicity = 1
  Basis Set: CC-PVTZ
  Basis Set:
  @DF-RHF Final Energy:  -426.31481172907820
    Total Energy =                       -426.3148117290784285
    Molecular point group: c1
  Basis Set: CC-PVTZ
  Basis Set:
  Basis Set: CC-PVTZ
  Basis Set:
  @DF-RHF Final Energy:  -426.31365466611066
    Total Energy =                       -426.3136546661107786
  Basis Set: CC-PVTZ
  Basis Set:
  Basis Set: CC-PVTZ
  Basis Set:
  @DF-RHF Final Energy:  -426.31386460951830
    Total Energy =                       -426.3138646095183049
  Basis Set: CC-PVTZ
  Basis Set:
  Basis Set: CC-PVTZ
  Basis Set:
  @DF-RHF Final Energy:  -426.31527589253153
    Total Energy =                       -426.3152758925311900
  Basis Set: CC-PVTZ
  Basis Set:
  @DF-RHF Final Energy:  -426.31540495121180
    Total Energy =                       -426.3154049512120309
  @DF-RHF Final Energy:  -426.31546204579001
    Total Energy =                       -426.3154620457906958
  @DF-RHF Final Energy:  -426.31551115985064
    Total Energy =                       -426.3155111598499616
  @DF-RHF Final Energy:  -426.31513947753888
    Total Energy =                       -426.3151394775383096
  @DF-RHF Final Energy:  -426.31561748457841
    Total Energy =                       -426.3156174845785245
  @DF-RHF Final Energy:  -426.31595499615878
    Total Energy =                       -426.3159549961590074
  @DF-RHF Final Energy:  -426.31598449010141
    Total Energy =                       -426.3159844901013003
  @DF-RHF Final Energy:  -426.31592791830224
    Total Energy =                       -426.3159279183029184
  @DF-RHF Final Energy:  -426.31623319429070
    Total Energy =                       -426.3162331942905894
  Basis Set: CC-PVTZ
  Basis Set:
  @DF-RHF Final Energy:  -426.31624846115915
    Total Energy =                       -426.3162484611589207
  Basis Set: CC-PVTZ
  Basis Set:
  Basis Set: CC-PVTZ
  Basis Set:
  @DF-RHF Final Energy:  -426.31628714929491
    Total Energy =                       -426.3162871492947943
  Basis Set: CC-PVTZ
  Basis Set:
  Basis Set: CC-PVTZ
  Basis Set:
  @DF-RHF Final Energy:  -426.31628818727461
    Total Energy =                       -426.3162881872747221
  Basis Set: CC-PVTZ
  Basis Set:
  Charge       = 0
  Multiplicity = 1
  Basis Set: CC-PVTZ
  Basis Set:

    Orbital Energies (a.u.)
    -----------------------

    Doubly Occupied:

       1A    -20.536551     2A    -11.317306     3A    -11.229637
       4A    -11.228525     5A    -11.226445     6A    -11.216268
       7A    -11.214858     8A    -11.208929     9A    -11.208880
      10A    -11.202961    11A     -1.396756    12A     -1.091720
      13A     -1.077785    14A     -1.022357    15A     -0.989800
      16A     -0.908703    17A     -0.869715    18A     -0.806532
      19A     -0.797441    20A     -0.727970    21A     -0.673053
      22A     -0.647158    23A     -0.623971    24A     -0.617265
      25A     -0.608938    26A     -0.585044    27A     -0.580530
      28A     -0.572675    29A     -0.539960    30A     -0.533256
      31A     -0.527943    32A     -0.512729    33A     -0.499201
      34A     -0.479070    35A     -0.475345    36A     -0.472417
      37A     -0.465643    38A     -0.462117    39A     -0.457164
      40A     -0.393684

  @DF-RHF Final Energy:  -426.31628857564863

   => Energetics <=

    Nuclear Repulsion Energy =            536.2010436432987035
    One-Electron Energy =               -1641.0220584320459238
    Two-Electron Energy =                 678.5047262130983654
    DFT Exchange-Correlation Energy =       0.0000000000000000
    Empirical Dispersion Energy =           0.0000000000000000
    PCM Polarization Energy =               0.0000000000000000
    EFP Energy =                            0.0000000000000000
    Total Energy =                       -426.3162885756487412
    Molecular point group: c1
  Basis Set: CC-PVTZ
  Basis Set:

  -Total Gradient:
     Atom            X                  Y                   Z
    ------   -----------------  -----------------  -----------------
       1        0.000003201093    -0.000000371217     0.000002159684
       2        0.000002625661    -0.000003122185    -0.000011692506
       3       -0.000007877368    -0.000010173727     0.000013649537
       4       -0.000003005121    -0.000000503063     0.000001583485
       5        0.000002644212     0.000003535744    -0.000004201819
       6       -0.000005837745    -0.000006530024    -0.000005608626
       7       -0.000000914440    -0.000000781054     0.000005637131
       8        0.000001946796     0.000001147177     0.000000411564
       9        0.000041486344     0.000021806351     0.000034211121
      10       -0.000001893153    -0.000005425812     0.000003469874
      11       -0.000001045927     0.000001824272    -0.000006128251
      12        0.000893961860    -0.001215759968    -0.001569133562
      13       -0.000002401604     0.000011156820     0.000002320536
      14       -0.000014001554     0.000006917690    -0.000014895173
      15       -0.001470959709     0.002155072280     0.002392436269
      16       -0.000006457456     0.000015487211    -0.000001488360
      17        0.001708913208    -0.003330182856    -0.002255224012
      18        0.000000395714    -0.000009517043    -0.000012549739
      19       -0.000009937035     0.000019461199     0.000008555218
      20       -0.000012051154    -0.000005211876     0.000021914327
      21       -0.001116699819     0.002340367834     0.001412720984
      22       -0.000007453302     0.000023114837     0.000009355924
      23        0.000000930616    -0.000003802399    -0.000020430367
      24        0.000005113305    -0.000027808923    -0.000010554658
      25       -0.000003814515     0.000011525606    -0.000015978456
      26        0.000001817246    -0.000010681134     0.000016306530
      27        0.000002364879     0.000017988246     0.000001693574
      28       -0.000001051028     0.000000466018     0.000001459770

  **** Optimization is complete! (in 17 steps) ****
    Final optimized geometry and variables:
    Molecular point group: c1

    Geometry (in Angstrom), charge = 0, multiplicity = 1:

    H            3.996894836105     3.416591838522    -0.976332737598
    C            3.198503480007     2.927514161234    -1.522450256558
    C            2.746490913811     1.654843794851    -0.814558663548
    H            2.379940622619     3.633274935000    -1.613288496045
    H            3.563877297678     2.714173166217    -2.521971244435
    C            1.632121284325     0.929088418702    -1.565796041782
    H            2.407882178744     1.899237283502     0.184530284852
    H            3.596111793360     0.984868228823    -0.704410406173
    C            1.154268786333    -0.348475989946    -0.883898922333
    H            0.789180072643     1.597675503606    -1.696572421780
    H            1.987044403297     0.672660592008    -2.559876145202
    C            0.274352439431    -0.145720512980     0.334043991528
    H            0.586626806363    -0.964254655868    -1.577800161466
    H            1.997271280966    -0.964571937888    -0.580380546009
    C           -0.256712861039    -1.399441029798     1.001170123734
    O           -0.027952889635     0.933913051171     0.730651264639
    C           -1.664518633119    -1.758755440699     0.468767162605
    H           -0.294002463636    -1.221217108883     2.067343138089
    H            0.427167070876    -2.220318453919     0.824000044659
    C           -2.784533688087    -1.326461664300     1.413831948687
    H           -1.831520853635    -1.274784298819    -0.489066105929
    H           -1.727775847193    -2.826919964180     0.296443250017
    C           -4.173655065630    -1.629192562983     0.863922514354
    H           -2.690866062529    -0.263651198424     1.609070464705
    H           -2.655845487400    -1.827981796440     2.368881166132
    H           -4.346794863304    -1.107843278016    -0.071598480496
    H           -4.301005386834    -2.690903859527     0.678665057480
    H           -4.944583537980    -1.320874673195     1.560332458691

  Mulliken Charges: (a.u.)
   Center  Symbol    Alpha    Beta     Spin     Total
       1     H     0.44873  0.44873  0.00000  0.10254
       2     C     3.15163  3.15163  0.00000 -0.30325
       3     C     3.08363  3.08363  0.00000 -0.16726
       4     H     0.45229  0.45229  0.00000  0.09541
       5     H     0.45742  0.45742  0.00000  0.08515
       6     C     3.08780  3.08780  0.00000 -0.17561
       7     H     0.44328  0.44328  0.00000  0.11345
       8     H     0.45886  0.45886  0.00000  0.08228
       9     C     3.12630  3.12630  0.00000 -0.25259
      10     H     0.44690  0.44690  0.00000  0.10620
      11     H     0.44798  0.44798  0.00000  0.10403
      12     C     2.86750  2.86750  0.00000  0.26501
      13     H     0.43346  0.43346  0.00000  0.13308
      14     H     0.44169  0.44169  0.00000  0.11661
      15     C     3.10761  3.10761  0.00000 -0.21522
      16     O     4.18295  4.18295  0.00000 -0.36590
      17     C     3.09495  3.09495  0.00000 -0.18991
      18     H     0.43940  0.43940  0.00000  0.12119
      19     H     0.43855  0.43855  0.00000  0.12290
      20     C     3.08172  3.08172  0.00000 -0.16344
      21     H     0.45484  0.45484  0.00000  0.09032
      22     H     0.44597  0.44597  0.00000  0.10806
      23     C     3.15136  3.15136  0.00000 -0.30272
      24     H     0.44269  0.44269  0.00000  0.11462
      25     H     0.45471  0.45471  0.00000  0.09058
      26     H     0.45425  0.45425  0.00000  0.09151
      27     H     0.45660  0.45660  0.00000  0.08680
      28     H     0.44693  0.44693  0.00000  0.10614

   Total alpha = 40.00000, Total beta = 40.00000, Total charge =  0.00000

*** Psi4 exiting successfully. Buy a developer a beer!
