  ==> Input File <==

--------------------------------------------------------------------------
set {
	reference rhf
	basis 6-31G*
}

set_num_threads( 4 )
memory 2 gb

molecule MOL {
0 1

H	 2.332609	 0.878551	 -1.051851
C	 2.357710	 0.000000	 -0.417167
C	 1.175432	 0.000000	 0.532082
H	 3.291263	 0.000000	 0.136880
H	 2.332609	 -0.878551	 -1.051851
O	 0.000000	 0.000000	 -0.221444
H	 1.206604	 0.877321	 1.177902
H	 1.206604	 -0.877321	 1.177902
C	 -1.175432	 0.000000	 0.532082
C	 -1.568713	 -1.436988	 0.813596
H	 -1.969256	 0.511685	 -0.011766
H	 -1.022436	 0.541899	 1.465186
H	 -1.731791	 -1.972811	 -0.114630
H	 -2.481737	 -1.474378	 1.399667
H	 -0.783644	 -1.942554	 1.364393

	symmetry c1
}
set optking {
	frozen_dihedral = ("
		11 9 6 3
	")
}

ee = optimize('scf')
oeprop('DIPOLE', 'QUADRUPOLE', 'MULLIKEN_CHARGES')
f=open( 'psi4out.xyz', 'w' )
f.write( "15  " )
f.write( str(ee) + "\n" )
f.write( MOL.save_string_xyz() )
f.close()
--------------------------------------------------------------------------

    Molecular point group: c1
  Charge       = 0
  Multiplicity = 1
  Basis Set: 6-31G*
  Basis Set:
  @DF-RHF Final Energy:  -232.14047217250925
    Total Energy =                       -232.1404721725093054
    Molecular point group: c1
  Basis Set: 6-31G*
  Basis Set:
  Basis Set: 6-31G*
  Basis Set:
  @DF-RHF Final Energy:  -232.14163920305666
    Total Energy =                       -232.1416392030565703
  Basis Set: 6-31G*
  Basis Set:
  Basis Set: 6-31G*
  Basis Set:
  @DF-RHF Final Energy:  -232.14194894717272
    Total Energy =                       -232.1419489471726934
  Basis Set: 6-31G*
  Basis Set:
  Basis Set: 6-31G*
  Basis Set:
  @DF-RHF Final Energy:  -232.14195266524840
    Total Energy =                       -232.1419526652483682
  Basis Set: 6-31G*
  Basis Set:
  Charge       = 0
  Multiplicity = 1
  Basis Set: 6-31G*
  Basis Set:

    Orbital Energies (a.u.)
    -----------------------

    Doubly Occupied:

       1A    -20.549477     2A    -11.268253     3A    -11.268064
       4A    -11.210183     5A    -11.208495     6A     -1.374245
       7A     -1.040926     8A     -0.985349     9A     -0.859490
      10A     -0.815967    11A     -0.671538    12A     -0.649389
      13A     -0.641746    14A     -0.572479    15A     -0.551669
      16A     -0.543150    17A     -0.523368    18A     -0.501665
      19A     -0.487362    20A     -0.458133    21A     -0.406735

  @DF-RHF Final Energy:  -232.14195292637257

   => Energetics <=

    Nuclear Repulsion Energy =            192.3485655808788408
    One-Electron Energy =                -695.8056715193337141
    Two-Electron Energy =                 271.3151530120822486
    DFT Exchange-Correlation Energy =       0.0000000000000000
    Empirical Dispersion Energy =           0.0000000000000000
    PCM Polarization Energy =               0.0000000000000000
    EFP Energy =                            0.0000000000000000
    Total Energy =                       -232.1419529263726531
    Molecular point group: c1
  Basis Set: 6-31G*
  Basis Set:

  -Total Gradient:
     Atom            X                  Y                   Z
    ------   -----------------  -----------------  -----------------
       1       -0.000001837884     0.000000420462     0.000002286613
       2        0.000002269554    -0.000003877020     0.000005205974
       3       -0.000022558380     0.000751434399     0.000018499877
       4       -0.000000495201     0.000000696722    -0.000001881987
       5       -0.000000071615    -0.000000890194    -0.000000524660
       6        0.000071155319    -0.000890233427     0.000048399521
       7        0.000005373888    -0.000000029492     0.000002899545
       8        0.000001214053    -0.000003352971     0.000002617231
       9       -0.000295793510    -0.000624622391    -0.000478176446
      10        0.000001451775    -0.000013127010     0.000007501715
      11        0.000227624232     0.000777204780     0.000394258461
      12        0.000017181697     0.000000641728    -0.000003499896
      13        0.000005654409     0.000006808287     0.000002875790
      14       -0.000007521207    -0.000004977931     0.000004945543
      15       -0.000003647129     0.000003904057    -0.000005407281

  **** Optimization is complete! (in 5 steps) ****
    Final optimized geometry and variables:
    Molecular point group: c1

    Geometry (in Angstrom), charge = 0, multiplicity = 1:

    H            2.157242531836     1.202685464116    -1.319525578356
    C            2.209257492163     0.321228085703    -0.690532008658
    C            1.044119199993     0.296658441738     0.279388650820
    H            3.152574383730     0.333972111525    -0.153128500200
    H            2.187595617144    -0.554076880093    -1.329862863687
    O           -0.143181306509     0.296098050830    -0.458895264865
    H            1.075160578917     1.168957641779     0.931127405563
    H            1.105097276890    -0.584547885958     0.915540967410
    C           -1.328143065779     0.262373759582     0.286875036866
    C           -1.790374725784    -1.158887744114     0.576187410082
    H           -2.074988250295     0.784473539022    -0.299365283664
    H           -1.204467348073     0.817607619870     1.215038456512
    H           -1.926325192782    -1.704212590566    -0.351180352339
    H           -2.735788642100    -1.149045965282     1.111021703778
    H           -1.069451542688    -1.697534595978     1.182411737556

  Mulliken Charges: (a.u.)
   Center  Symbol    Alpha    Beta     Spin     Total
       1     H     0.41316  0.41316  0.00000  0.17368
       2     C     3.24383  3.24383  0.00000 -0.48766
       3     C     2.98926  2.98926  0.00000  0.02149
       4     H     0.42284  0.42284  0.00000  0.15431
       5     H     0.41361  0.41361  0.00000  0.17278
       6     O     4.31065  4.31065  0.00000 -0.62130
       7     H     0.43135  0.43135  0.00000  0.13730
       8     H     0.43238  0.43238  0.00000  0.13524
       9     C     2.99243  2.99243  0.00000  0.01514
      10     C     3.24733  3.24733  0.00000 -0.49466
      11     H     0.41615  0.41615  0.00000  0.16771
      12     H     0.43178  0.43178  0.00000  0.13645
      13     H     0.41293  0.41293  0.00000  0.17414
      14     H     0.42266  0.42266  0.00000  0.15469
      15     H     0.41965  0.41965  0.00000  0.16070

   Total alpha = 21.00000, Total beta = 21.00000, Total charge = -0.00000
