  ==> Input File <==

--------------------------------------------------------------------------
set {
	reference rhf
	basis 6-31G*
}

set_num_threads( 4 )
memory 2 gb

molecule MOL {
0 1

H	 -3.135461	 -1.215070	 0.001379
O	 -2.310168	 -0.871793	 -0.309793
C	 -2.026376	 0.340750	 0.341611
C	 -0.673256	 0.843270	 -0.132153
H	 -2.792215	 1.080697	 0.115987
H	 -2.013526	 0.200402	 1.421792
C	 0.486613	 -0.083066	 0.235839
H	 -0.715586	 0.970948	 -1.210718
H	 -0.508072	 1.829858	 0.297090
C	 0.337625	 -0.700680	 1.627302
H	 1.416875	 0.472942	 0.181241
H	 0.557783	 -0.879541	 -0.504028
C	 1.493786	 -1.630972	 1.992708
H	 0.267248	 0.093736	 2.367347
H	 -0.599262	 -1.251781	 1.681830
H	 2.441409	 -1.100159	 1.980956
H	 1.362531	 -2.052243	 2.984801
H	 1.569892	 -2.456441	 1.290340

	symmetry c1
}
set optking {
	frozen_dihedral = ("
		10 7 4 8
	")
}

ee = optimize('scf')
oeprop('DIPOLE', 'QUADRUPOLE', 'MULLIKEN_CHARGES')
f=open( 'psi4out.xyz', 'w' )
f.write( "18  " )
f.write( str(ee) + "\n" )
f.write( MOL.save_string_xyz() )
f.close()
--------------------------------------------------------------------------

    Molecular point group: c1
  Charge       = 0
  Multiplicity = 1
  Basis Set: 6-31G*
  Basis Set:
  @DF-RHF Final Energy:  -271.17454389059077
    Total Energy =                       -271.1745438905908827
    Molecular point group: c1
  Basis Set: 6-31G*
  Basis Set:
  Basis Set: 6-31G*
  Basis Set:
  @DF-RHF Final Energy:  -271.17561689113171
    Total Energy =                       -271.1756168911315399
  Basis Set: 6-31G*
  Basis Set:
  Basis Set: 6-31G*
  Basis Set:
  @DF-RHF Final Energy:  -271.17645352586015
    Total Energy =                       -271.1764535258602677
  Basis Set: 6-31G*
  Basis Set:
  Basis Set: 6-31G*
  Basis Set:
  @DF-RHF Final Energy:  -271.17655395400158
    Total Energy =                       -271.1765539540017471
  Basis Set: 6-31G*
  Basis Set:
  Basis Set: 6-31G*
  Basis Set:
  @DF-RHF Final Energy:  -271.17656347730212
    Total Energy =                       -271.1765634773022953
  Basis Set: 6-31G*
  Basis Set:
  Basis Set: 6-31G*
  Basis Set:
  @DF-RHF Final Energy:  -271.17658330712698
    Total Energy =                       -271.1765833071270322
  Basis Set: 6-31G*
  Basis Set:
  Charge       = 0
  Multiplicity = 1
  Basis Set: 6-31G*
  Basis Set:

    Orbital Energies (a.u.)
    -----------------------

    Doubly Occupied:

       1A    -20.554177     2A    -11.267223     3A    -11.212573
       4A    -11.208352     5A    -11.207088     6A    -11.203639
       7A     -1.360414     8A     -1.072703     9A     -1.005882
      10A     -0.912511    11A     -0.832618    12A     -0.765790
      13A     -0.705451    14A     -0.644254    15A     -0.625920
      16A     -0.583539    17A     -0.561194    18A     -0.551586
      19A     -0.537177    20A     -0.497659    21A     -0.490275
      22A     -0.461104    23A     -0.455302    24A     -0.445943
      25A     -0.429591

  @DF-RHF Final Energy:  -271.17658362698899

   => Energetics <=

    Nuclear Repulsion Energy =            255.2947675403155472
    One-Electron Energy =                -873.7587736518921702
    Two-Electron Energy =                 347.2874224845876370
    DFT Exchange-Correlation Energy =       0.0000000000000000
    Empirical Dispersion Energy =           0.0000000000000000
    PCM Polarization Energy =               0.0000000000000000
    EFP Energy =                            0.0000000000000000
    Total Energy =                       -271.1765836269889860
    Molecular point group: c1
  Basis Set: 6-31G*
  Basis Set:

  -Total Gradient:
     Atom            X                  Y                   Z
    ------   -----------------  -----------------  -----------------
       1        0.000006936651     0.000016925325     0.000005536394
       2        0.000034382907     0.000011706450     0.000003069943
       3       -0.000034368351    -0.000008863837    -0.000017722413
       4        0.002871702569     0.003271508753    -0.000252198985
       5        0.000002370483     0.000010626383    -0.000000161059
       6        0.000014240322     0.000002730915     0.000003674754
       7        0.001970849787     0.003055024199     0.001917934029
       8       -0.003013304050    -0.003643317127    -0.000279752051
       9       -0.000010222563    -0.000006853458     0.000004293033
      10       -0.001858961212    -0.002719221316    -0.001373520951
      11        0.000011989574    -0.000002794859    -0.000003208733
      12       -0.000009412406    -0.000000228023     0.000009972551
      13        0.000011769118     0.000005814776    -0.000008827639
      14       -0.000001205704     0.000007048232    -0.000013973653
      15       -0.000003550817    -0.000001847021     0.000002439176
      16        0.000009310567    -0.000002097388     0.000003103130
      17       -0.000004075718     0.000003314858    -0.000002760102
      18        0.000001548844     0.000000523139     0.000002102576

  **** Optimization is complete! (in 7 steps) ****
    Final optimized geometry and variables:
    Molecular point group: c1

    Geometry (in Angstrom), charge = 0, multiplicity = 1:

    H           -2.706304465736    -0.767161994653    -0.666320252325
    O           -1.843256986736    -0.471824414180    -0.919081148221
    C           -1.574897031783     0.773014443742    -0.323362126441
    C           -0.179944045666     1.216020053049    -0.738515498769
    H           -2.297643301137     1.516398213528    -0.655285558074
    H           -1.654537693101     0.704685265354     0.758708532307
    C            0.955435127778     0.249921242975    -0.358946842607
    H           -0.202322318587     1.316933015467    -1.819654572924
    H           -0.000468518922     2.200890881055    -0.313849902899
    C            0.854311501296    -0.384688568751     1.030371794109
    H            1.900882316942     0.780435258301    -0.448027091571
    H            0.985727683066    -0.551479313639    -1.091036095317
    C            2.074740194036    -1.242335329198     1.365083532711
    H            0.744753273775     0.390488655429     1.787799238586
    H           -0.037757599741    -0.999578573198     1.079770703742
    H            2.985138739857    -0.649397634577     1.365303149822
    H            1.977767922068    -1.699620669198     2.345179235948
    H            2.201262909109    -2.040564862913     0.639134727750

  Mulliken Charges: (a.u.)
   Center  Symbol    Alpha    Beta     Spin     Total
       1     H     0.28062  0.28062  0.00000  0.43876
       2     O     4.36997  4.36997  0.00000 -0.73994
       3     C     3.00216  3.00216  0.00000 -0.00431
       4     C     3.16164  3.16164  0.00000 -0.32329
       5     H     0.42837  0.42837  0.00000  0.14327
       6     H     0.42965  0.42965  0.00000  0.14071
       7     C     3.14881  3.14881  0.00000 -0.29763
       8     H     0.41399  0.41399  0.00000  0.17201
       9     H     0.42336  0.42336  0.00000  0.15328
      10     C     3.15798  3.15798  0.00000 -0.31596
      11     H     0.42421  0.42421  0.00000  0.15158
      12     H     0.41370  0.41370  0.00000  0.17260
      13     C     3.23913  3.23913  0.00000 -0.47825
      14     H     0.42785  0.42785  0.00000  0.14430
      15     H     0.41379  0.41379  0.00000  0.17242
      16     H     0.42313  0.42313  0.00000  0.15375
      17     H     0.42095  0.42095  0.00000  0.15809
      18     H     0.42069  0.42069  0.00000  0.15861

   Total alpha = 25.00000, Total beta = 25.00000, Total charge = -0.00000
