                              Psi4 1.0.54 Driver

  ==> Input File <==

--------------------------------------------------------------------------
set {
	reference rhf
	basis cc-pvtz
}

set_num_threads( 4 )
memory 2 gb

molecule MOL {
0 1

H	 -3.436473	 1.252944	 -1.023892
O	 -3.458596	 0.315260	 -0.960865
C	 -3.176635	 -0.080824	 0.355601
C	 -1.763371	 0.265266	 0.799691
H	 -3.321825	 -1.153438	 0.379502
H	 -3.895468	 0.357385	 1.043382
C	 -0.673390	 -0.426948	 -0.013392
H	 -1.631049	 1.344913	 0.747560
H	 -1.664587	 -0.001624	 1.849167
C	 0.737842	 -0.043159	 0.423759
H	 -0.806103	 -0.190518	 -1.063345
H	 -0.797221	 -1.503753	 0.074146
C	 1.796498	 -0.373278	 -0.626630
H	 0.759569	 1.018280	 0.651276
H	 0.981691	 -0.558813	 1.350309
C	 3.236953	 -0.081221	 -0.202788
H	 1.575640	 0.171610	 -1.541599
H	 1.719023	 -1.427675	 -0.877354
C	 3.555688	 1.398351	 -0.001743
H	 3.904749	 -0.480229	 -0.960162
H	 3.458634	 -0.624796	 0.711982
H	 3.337980	 1.968666	 -0.899196
H	 4.605559	 1.537356	 0.229965
H	 2.983993	 1.829990	 0.810943

	symmetry c1
}
set optking {
	frozen_dihedral = ("
		13 10 7 11
	")
}

ee,wfn = optimize('scf', return_wfn=True)
oeprop( wfn, 'DIPOLE', 'QUADRUPOLE', 'MULLIKEN_CHARGES')
f=open( 'psi4out.xyz', 'w' )
f.write( "24  " )
f.write( str(ee) + "\n" )
f.write( MOL.save_string_xyz() )
f.close()
--------------------------------------------------------------------------

    Molecular point group: c1
  Charge       = 0
  Multiplicity = 1
  Basis Set: CC-PVTZ
  Basis Set:
  @DF-RHF Final Energy:  -349.37926177977153
    Total Energy =                       -349.3792617797708999
    Molecular point group: c1
  Basis Set: CC-PVTZ
  Basis Set:
  Basis Set: CC-PVTZ
  Basis Set:
  @DF-RHF Final Energy:  -349.37934215262277
    Total Energy =                       -349.3793421526225416
  Basis Set: CC-PVTZ
  Basis Set:
  Basis Set: CC-PVTZ
  Basis Set:
  @DF-RHF Final Energy:  -349.37941374214057
    Total Energy =                       -349.3794137421406276
  Basis Set: CC-PVTZ
  Basis Set:
  Basis Set: CC-PVTZ
  Basis Set:
  @DF-RHF Final Energy:  -349.37942037346079
    Total Energy =                       -349.3794203734604480
  Basis Set: CC-PVTZ
  Basis Set:
  Charge       = 0
  Multiplicity = 1
  Basis Set: CC-PVTZ
  Basis Set:

    Orbital Energies (a.u.)
    -----------------------

    Doubly Occupied:

       1A    -20.546220     2A    -11.265511     3A    -11.215462
       4A    -11.212045     5A    -11.210189     6A    -11.209522
       7A    -11.208973     8A    -11.205382     9A     -1.364068
      10A     -1.089609    11A     -1.049420    12A     -0.986671
      13A     -0.915925    14A     -0.851640    15A     -0.802168
      16A     -0.776566    17A     -0.682178    18A     -0.651200
      19A     -0.628556    20A     -0.619732    21A     -0.599258
      22A     -0.588036    23A     -0.553284    24A     -0.546748
      25A     -0.515565    26A     -0.506012    27A     -0.503855
      28A     -0.470619    29A     -0.468944    30A     -0.460749
      31A     -0.457456    32A     -0.450732    33A     -0.421056

  @DF-RHF Final Energy:  -349.37942118187181

   => Energetics <=

    Nuclear Repulsion Energy =            385.1129121568373535
    One-Electron Energy =               -1236.9179645565006922
    Two-Electron Energy =                 502.4256312177913060
    DFT Exchange-Correlation Energy =       0.0000000000000000
    Empirical Dispersion Energy =           0.0000000000000000
    PCM Polarization Energy =               0.0000000000000000
    EFP Energy =                            0.0000000000000000
    Total Energy =                       -349.3794211818719759
    Molecular point group: c1
  Basis Set: CC-PVTZ
  Basis Set:

  -Total Gradient:
     Atom            X                  Y                   Z
    ------   -----------------  -----------------  -----------------
       1       -0.000004711806    -0.000011263040     0.000008250361
       2        0.000000298750    -0.000002249595    -0.000047136831
       3        0.000001465995    -0.000002177397     0.000054529262
       4       -0.000001759458     0.000004901655     0.000006739263
       5       -0.000002141382     0.000017657857    -0.000007532323
       6       -0.000004603886     0.000001323829    -0.000004666180
       7       -0.001358835593     0.004437868034     0.000515716471
       8       -0.000006898997    -0.000012078633     0.000002933302
       9        0.000013043752    -0.000000652151    -0.000008621085
      10        0.000621594366    -0.003562610244     0.001183875413
      11        0.001021905277    -0.002923385921    -0.000718369153
      12       -0.000006456145    -0.000003738373    -0.000014335138
      13       -0.000264215981     0.002071416001    -0.000961796552
      14       -0.000002540601     0.000004674264    -0.000002597904
      15        0.000001268537     0.000005738876    -0.000002707895
      16       -0.000006359338     0.000001433114     0.000008005463
      17        0.000010779100    -0.000013108121     0.000002665713
      18        0.000005842772    -0.000010191539     0.000008660137
      19       -0.000013451710     0.000000431830     0.000018202833
      20       -0.000005250900     0.000007367572    -0.000022609544
      21        0.000000170160    -0.000007567446    -0.000019703494
      22        0.000005153624    -0.000005709218    -0.000000940078
      23       -0.000001735417    -0.000006718311     0.000001150938
      24       -0.000002561121     0.000008636957     0.000000287027

  **** Optimization is complete! (in 5 steps) ****
    Final optimized geometry and variables:
    Molecular point group: c1

    Geometry (in Angstrom), charge = 0, multiplicity = 1:

    H           -3.483011946428     1.014308511367    -1.004898232347
    O           -3.476063120329     0.080400237253    -0.897904716314
    C           -3.153499086109    -0.245029760326     0.428481448705
    C           -1.743309561519     0.165995394023     0.823808457415
    H           -3.262815685444    -1.319419284958     0.504058979595
    H           -3.871551443771     0.201284739928     1.111901729433
    C           -0.649121689277    -0.513678178083     0.007923680465
    H           -1.650463405153     1.247016903668     0.732643981544
    H           -1.608987823287    -0.061293404208     1.878877607441
    C            0.765688399684    -0.127443817608     0.441243410405
    H           -0.782208573479    -0.299919196254    -1.046624008744
    H           -0.762977041944    -1.591973333606     0.097014114384
    C            1.823893280030    -0.485437213370    -0.600676929569
    H            0.797050265880     0.941566157616     0.630462252609
    H            1.001790469491    -0.609429943449     1.386824563252
    C            3.268953964460    -0.242312680489    -0.162587028791
    H            1.626295315686     0.074202350538    -1.511679706226
    H            1.716604129396    -1.534977896073    -0.862493548740
    C            3.624865716963     1.222735161662     0.078710749527
    H            3.930237653551    -0.639178541257    -0.926820450046
    H            3.471201463381    -0.814869598916     0.738830897617
    H            3.423951397105     1.822549988583    -0.803369405983
    H            4.677391367786     1.328530589415     0.315766280386
    H            3.062345161152     1.646665490430     0.901805193751

  Mulliken Charges: (a.u.)
   Center  Symbol    Alpha    Beta     Spin     Total
       1     H     0.39528  0.39528  0.00000  0.20943
       2     O     4.20359  4.20359  0.00000 -0.40717
       3     C     2.97765  2.97765  0.00000  0.04469
       4     C     3.10214  3.10214  0.00000 -0.20428
       5     H     0.45886  0.45886  0.00000  0.08227
       6     H     0.46052  0.46052  0.00000  0.07895
       7     C     3.08668  3.08668  0.00000 -0.17337
       8     H     0.45904  0.45904  0.00000  0.08192
       9     H     0.45325  0.45325  0.00000  0.09349
      10     C     3.09267  3.09267  0.00000 -0.18534
      11     H     0.44703  0.44703  0.00000  0.10593
      12     H     0.45455  0.45455  0.00000  0.09090
      13     C     3.09427  3.09427  0.00000 -0.18854
      14     H     0.45484  0.45484  0.00000  0.09031
      15     H     0.45409  0.45409  0.00000  0.09181
      16     C     3.09015  3.09015  0.00000 -0.18030
      17     H     0.45384  0.45384  0.00000  0.09232
      18     H     0.44947  0.44947  0.00000  0.10107
      19     C     3.15301  3.15301  0.00000 -0.30603
      20     H     0.44868  0.44868  0.00000  0.10264
      21     H     0.45496  0.45496  0.00000  0.09007
      22     H     0.45506  0.45506  0.00000  0.08988
      23     H     0.44643  0.44643  0.00000  0.10713
      24     H     0.45390  0.45390  0.00000  0.09219

   Total alpha = 33.00000, Total beta = 33.00000, Total charge = -0.00000

*** Psi4 exiting successfully. Buy a developer a beer!
