  ==> Input File <==

--------------------------------------------------------------------------
set {
	reference rhf
	basis 6-31G*
}

set_num_threads( 1 )
memory 2 gb

molecule MOL {
0 1

O	 -0.279543	 0.701986	 -1.866684
C	 -0.775684	 0.932890	 -0.811791
C	 -1.631647	 2.131772	 -0.504618
O	 -0.632575	 0.154573	 0.251549
H	 -1.182779	 2.706436	 0.297395
H	 -1.728927	 2.743899	 -1.388741
H	 -2.609452	 1.806971	 -0.168228
C	 0.160891	 -1.019931	 0.106212
C	 1.589627	 -0.672828	 0.480843
H	 0.089836	 -1.367806	 -0.916050
H	 -0.238459	 -1.792301	 0.749618
C	 2.246377	 0.346236	 -0.452210
H	 2.163194	 -1.597435	 0.473358
H	 1.604769	 -0.303424	 1.502885
C	 3.691736	 0.652107	 -0.061850
H	 2.219579	 -0.032311	 -1.472055
H	 1.666466	 1.263317	 -0.447249
H	 4.134505	 1.377213	 -0.737283
H	 4.305508	 -0.243868	 -0.089969
H	 3.748266	 1.059562	 0.943567

	symmetry c1
}
set optking {
	frozen_dihedral = ("
		16 12 9 8,
		12 9 8 10,
		1 2 4 8
	")
}

ee = energy('scf')
oeprop('DIPOLE', 'QUADRUPOLE', 'MULLIKEN_CHARGES')
f=open( 'psi4out.xyz', 'w' )
f.write( "20  " )
f.write( str(ee) + "\n" )
f.write( MOL.save_string_xyz() )
f.close()
--------------------------------------------------------------------------

    Molecular point group: c1

    Geometry (in Angstrom), charge = 0, multiplicity = 1:

       Center              X                  Y                   Z               Mass
    ------------   -----------------  -----------------  -----------------  -----------------
           O         -0.822855632919     0.290147304892    -1.504725701583    15.994914619560
           C         -1.318996632919     0.521051304892    -0.449832701583    12.000000000000
           C         -2.174959632919     1.719933304892    -0.142659701583    12.000000000000
           O         -1.175887632919    -0.257265695108     0.613507298417    15.994914619560
           H         -1.726091632919     2.294597304892     0.659353298417     1.007825032070
           H         -2.272239632919     2.332060304892    -1.026782701583     1.007825032070
           H         -3.152764632919     1.395132304892     0.193730298417     1.007825032070
           C         -0.382421632919    -1.431769695108     0.468170298417    12.000000000000
           C          1.046314367081    -1.084666695108     0.842801298417    12.000000000000
           H         -0.453476632919    -1.779644695108    -0.554091701583     1.007825032070
           H         -0.781771632919    -2.204139695108     1.111576298417     1.007825032070
           C          1.703064367081    -0.065602695108    -0.090251701583    12.000000000000
           H          1.619881367081    -2.009273695108     0.835316298417     1.007825032070
           H          1.061456367081    -0.715262695108     1.864843298417     1.007825032070
           C          3.148423367081     0.240268304892     0.300108298417    12.000000000000
           H          1.676266367081    -0.444149695108    -1.110096701583     1.007825032070
           H          1.123153367081     0.851478304892    -0.085290701583     1.007825032070
           H          3.591192367081     0.965374304892    -0.375324701583     1.007825032070
           H          3.762195367081    -0.655706695108     0.271989298417     1.007825032070
           H          3.204953367081     0.647723304892     1.305525298417     1.007825032070

  Charge       = 0
  Multiplicity = 1
  Basis Set: 6-31G*
  Basis Set:

    Orbital Energies (a.u.)
    -----------------------

    Doubly Occupied:

       1A    -20.601874     2A    -20.543277     3A    -11.376239
       4A    -11.280909     5A    -11.234502     6A    -11.219879
       7A    -11.211378     8A    -11.206636     9A     -1.469741
      10A     -1.363367    11A     -1.080572    12A     -1.027208
      13A     -0.978296    14A     -0.884613    15A     -0.804402
      16A     -0.767580    17A     -0.695197    18A     -0.686616
      19A     -0.664881    20A     -0.623893    21A     -0.600666
      22A     -0.590599    23A     -0.571553    24A     -0.550537
      25A     -0.546514    26A     -0.521696    27A     -0.503633
      28A     -0.500129    29A     -0.469274    30A     -0.463025
      31A     -0.441498    32A     -0.434065

  @DF-RHF Final Energy:  -383.93817712283578

   => Energetics <=

    Nuclear Repulsion Energy =            401.3081001352724115
    One-Electron Energy =               -1318.6638822505290136
    Two-Electron Energy =                 533.4176049924217295
    DFT Exchange-Correlation Energy =       0.0000000000000000
    Empirical Dispersion Energy =           0.0000000000000000
    PCM Polarization Energy =               0.0000000000000000
    EFP Energy =                            0.0000000000000000
    Total Energy =                       -383.9381771228348725

  Mulliken Charges: (a.u.)
   Center  Symbol    Alpha    Beta     Spin     Total
       1     O     4.28475  4.28475  0.00000 -0.56949
       2     C     2.61819  2.61819  0.00000  0.76362
       3     C     3.28171  3.28171  0.00000 -0.56342
       4     O     4.30724  4.30724  0.00000 -0.61447
       5     H     0.40060  0.40060  0.00000  0.19880
       6     H     0.39686  0.39686  0.00000  0.20629
       7     H     0.39963  0.39963  0.00000  0.20073
       8     C     3.01597  3.01597  0.00000 -0.03195
       9     C     3.16076  3.16076  0.00000 -0.32153
      10     H     0.39965  0.39965  0.00000  0.20070
      11     H     0.40859  0.40859  0.00000  0.18282
      12     C     3.15205  3.15205  0.00000 -0.30409
      13     H     0.42214  0.42214  0.00000  0.15572
      14     H     0.41679  0.41679  0.00000  0.16642
      15     C     3.24003  3.24003  0.00000 -0.48007
      16     H     0.41014  0.41014  0.00000  0.17971
      17     H     0.42068  0.42068  0.00000  0.15864
      18     H     0.41746  0.41746  0.00000  0.16509
      19     H     0.42303  0.42303  0.00000  0.15395
      20     H     0.42373  0.42373  0.00000  0.15254

   Total alpha = 32.00000, Total beta = 32.00000, Total charge =  0.00000
