  ==> Input File <==

--------------------------------------------------------------------------
set {
	reference rhf
	basis cc-pvtz
}

set_num_threads( 4 )
memory 2 gb

molecule MOL {
0 1

H	 0.078649	 -0.123066	 0.435311
N	 -0.625934	 -0.663929	 -0.000707
C	 -1.978635	 -0.158664	 0.001017
C	 -0.266538	 -1.836859	 -0.567852
H	 -2.519057	 -0.493535	 -0.876362
H	 -1.938890	 0.917202	 -0.004137
H	 -2.514266	 -0.485137	 0.884506
C	 1.205661	 -2.166466	 -0.454666
O	 -1.039046	 -2.561158	 -1.122556
H	 1.499547	 -2.232041	 0.586453
H	 1.391035	 -3.110422	 -0.940106
H	 1.804099	 -1.394834	 -0.924852

	symmetry c1
}
set optking {
	frozen_dihedral = ("
		4 2 3 5
	")
}

ee = optimize('scf')
oeprop('DIPOLE', 'QUADRUPOLE', 'MULLIKEN_CHARGES')
f=open( 'psi4out.xyz', 'w' )
f.write( "12  " )
f.write( str(ee) + "\n" )
f.write( MOL.save_string_xyz() )
f.close()
--------------------------------------------------------------------------

    Molecular point group: c1
  Charge       = 0
  Multiplicity = 1
  Basis Set: CC-PVTZ
  Basis Set:
  @DF-RHF Final Energy:  -247.10083449395171
    Total Energy =                       -247.1008344939516519
    Molecular point group: c1
  Basis Set: CC-PVTZ
  Basis Set:
  Basis Set: CC-PVTZ
  Basis Set:
  @DF-RHF Final Energy:  -247.10104323756730
    Total Energy =                       -247.1010432375670689
  Basis Set: CC-PVTZ
  Basis Set:
  Basis Set: CC-PVTZ
  Basis Set:
  @DF-RHF Final Energy:  -247.10091300093177
    Total Energy =                       -247.1009130009317687
  Basis Set: CC-PVTZ
  Basis Set:
  Basis Set: CC-PVTZ
  Basis Set:
  @DF-RHF Final Energy:  -247.10111333279718
    Total Energy =                       -247.1011133327972402
  Basis Set: CC-PVTZ
  Basis Set:
  @DF-RHF Final Energy:  -247.10112823338375
    Total Energy =                       -247.1011282333837471
  @DF-RHF Final Energy:  -247.10114900017703
    Total Energy =                       -247.1011490001769744
  @DF-RHF Final Energy:  -247.10115344583744
    Total Energy =                       -247.1011534458374399
  @DF-RHF Final Energy:  -247.10115515403444
    Total Energy =                       -247.1011551540344726
  @DF-RHF Final Energy:  -247.10116072302816
    Total Energy =                       -247.1011607230280447
  @DF-RHF Final Energy:  -247.10117095348312
    Total Energy =                       -247.1011709534830061
  @DF-RHF Final Energy:  -247.10118613149331
    Total Energy =                       -247.1011861314931366
  @DF-RHF Final Energy:  -247.10119915941974
    Total Energy =                       -247.1011991594197639
  @DF-RHF Final Energy:  -247.10121619956990
    Total Energy =                       -247.1012161995697625
  @DF-RHF Final Energy:  -247.10123900582556
    Total Energy =                       -247.1012390058255619
  @DF-RHF Final Energy:  -247.10125794915874
    Total Energy =                       -247.1012579491588212
  @DF-RHF Final Energy:  -247.10127614016488
    Total Energy =                       -247.1012761401649982
  @DF-RHF Final Energy:  -247.10129097689571
    Total Energy =                       -247.1012909768956547
  @DF-RHF Final Energy:  -247.10129469871998
    Total Energy =                       -247.1012946987199825
  @DF-RHF Final Energy:  -247.10129800198754
    Total Energy =                       -247.1012980019876295
  @DF-RHF Final Energy:  -247.10130112134939
    Total Energy =                       -247.1013011213494792
  @DF-RHF Final Energy:  -247.10130408028573
    Total Energy =                       -247.1013040802857859
  @DF-RHF Final Energy:  -247.10130688108433
    Total Energy =                       -247.1013068810843833
  @DF-RHF Final Energy:  -247.10130952422429
    Total Energy =                       -247.1013095242243480
  @DF-RHF Final Energy:  -247.10131200877413
    Total Energy =                       -247.1013120087743005
  @DF-RHF Final Energy:  -247.10131433480677
    Total Energy =                       -247.1013143348068297
  Basis Set: CC-PVTZ
  Basis Set:
  @DF-RHF Final Energy:  -247.10131650227851
    Total Energy =                       -247.1013165022783369
  Basis Set: CC-PVTZ
  Basis Set:
  Basis Set: CC-PVTZ
  Basis Set:
  @DF-RHF Final Energy:  -247.10131851198233
    Total Energy =                       -247.1013185119824129
  Basis Set: CC-PVTZ
  Basis Set:
  Basis Set: CC-PVTZ
  Basis Set:
  @DF-RHF Final Energy:  -247.10132036476423
    Total Energy =                       -247.1013203647641490
  Basis Set: CC-PVTZ
  Basis Set:
  Charge       = 0
  Multiplicity = 1
  Basis Set: CC-PVTZ
  Basis Set:

    Orbital Energies (a.u.)
    -----------------------

    Doubly Occupied:

       1A    -20.504887     2A    -15.576531     3A    -11.336236
       4A    -11.253347     5A    -11.228382     6A     -1.387782
       7A     -1.231673     8A     -1.016255     9A     -0.933896
      10A     -0.789435    11A     -0.690910    12A     -0.652095
      13A     -0.635460    14A     -0.586493    15A     -0.583106
      16A     -0.555116    17A     -0.547188    18A     -0.507698
      19A     -0.417047    20A     -0.390360

  @DF-RHF Final Energy:  -247.10132080431120

   => Energetics <=

    Nuclear Repulsion Energy =            181.7600803919301882
    One-Electron Energy =                -696.0750095818309546
    Two-Electron Energy =                 267.2136083855896800
    DFT Exchange-Correlation Energy =       0.0000000000000000
    Empirical Dispersion Energy =           0.0000000000000000
    PCM Polarization Energy =               0.0000000000000000
    EFP Energy =                            0.0000000000000000
    Total Energy =                       -247.1013208043111149
    Molecular point group: c1
  Basis Set: CC-PVTZ
  Basis Set:

  -Total Gradient:
     Atom            X                  Y                   Z
    ------   -----------------  -----------------  -----------------
       1       -0.000000104172    -0.000001084659     0.000002036351
       2       -0.000034558806    -0.000179651216     0.000421736096
       3        0.000074262488     0.000291240667    -0.000343507141
       4        0.000012017126     0.000080651151    -0.000228855860
       5       -0.000055047213    -0.000202538334     0.000183041809
       6       -0.000000179998    -0.000000136129    -0.000000792521
       7        0.000000155910     0.000000642917     0.000000155827
       8       -0.000000255994    -0.000001660732    -0.000002896559
       9        0.000003605727     0.000010908007    -0.000032987252
      10        0.000004471306     0.000021088477     0.000011752735
      11       -0.000004870843    -0.000018339962     0.000013344687
      12        0.000000504469    -0.000001120192    -0.000023028170

  **** Optimization is complete! (in 29 steps) ****
    Final optimized geometry and variables:
    Molecular point group: c1

    Geometry (in Angstrom), charge = 0, multiplicity = 1:

    H            0.658132140222     1.454387431255     0.654109973126
    N           -0.052410311106     0.873695387479     0.285521598209
    C           -1.422470164475     1.323164273719     0.370406198398
    C            0.283066533380    -0.368330849039    -0.123155111939
    H           -2.007541148259     0.809182119012    -0.374245108740
    H           -1.465209775685     2.387577529644     0.182861104411
    H           -1.856409898367     1.122245922220     1.343836820183
    C            1.756303431777    -0.701755270831    -0.052359721837
    O           -0.521856514395    -1.166306332005    -0.504754411003
    H            1.943960873413    -1.236113081392     0.871619752665
    H            2.002788248574    -1.355424488752    -0.874900005010
    H            2.389408123945     0.175484461664    -0.080138927938

  Mulliken Charges: (a.u.)
   Center  Symbol    Alpha    Beta     Spin     Total
       1     H     0.41062  0.41062  0.00000  0.17876
       2     N     3.61632  3.61632  0.00000 -0.23265
       3     C     3.08126  3.08126  0.00000 -0.16252
       4     C     2.84076  2.84076  0.00000  0.31847
       5     H     0.43466  0.43466  0.00000  0.13068
       6     H     0.45514  0.45514  0.00000  0.08973
       7     H     0.45734  0.45734  0.00000  0.08531
       8     C     3.14622  3.14622  0.00000 -0.29243
       9     O     4.21929  4.21929  0.00000 -0.43857
      10     H     0.44415  0.44415  0.00000  0.11169
      11     H     0.43631  0.43631  0.00000  0.12737
      12     H     0.45792  0.45792  0.00000  0.08417

   Total alpha = 20.00000, Total beta = 20.00000, Total charge = -0.00000
