  ==> Input File <==

--------------------------------------------------------------------------
set {
	reference rhf
	basis cc-pvtz
}

set_num_threads( 4 )
memory 2 gb

molecule MOL {
0 1

H	 1.979485	 0.430538	 1.057731
O	 1.205343	 -0.109547	 1.107524
C	 0.489979	 0.078084	 0.002623
C	 -0.763662	 -0.754014	 0.000816
O	 0.836146	 0.813650	 -0.855877
C	 -2.038001	 0.074705	 -0.000833
H	 -0.712945	 -1.405886	 -0.864342
H	 -0.715137	 -1.405770	 0.866182
H	 -2.087267	 0.710831	 -0.874232
H	 -2.903419	 -0.576199	 -0.001922
H	 -2.089467	 0.710909	 0.872389

	symmetry c1
}
set optking {
	frozen_dihedral = ("
		2 3 4 7
	")
}

ee = optimize('scf')
oeprop('DIPOLE', 'QUADRUPOLE', 'MULLIKEN_CHARGES')
f=open( 'psi4out.xyz', 'w' )
f.write( "11  " )
f.write( str(ee) + "\n" )
f.write( MOL.save_string_xyz() )
f.close()
--------------------------------------------------------------------------

    Molecular point group: c1
  Charge       = 0
  Multiplicity = 1
  Basis Set: CC-PVTZ
  Basis Set:
  @DF-RHF Final Energy:  -266.95060490548809
    Total Energy =                       -266.9506049054879213
    Molecular point group: c1
  Basis Set: CC-PVTZ
  Basis Set:
  Basis Set: CC-PVTZ
  Basis Set:
  @DF-RHF Final Energy:  -266.95122951447837
    Total Energy =                       -266.9512295144785980
  Basis Set: CC-PVTZ
  Basis Set:
  Basis Set: CC-PVTZ
  Basis Set:
  @DF-RHF Final Energy:  -266.95006968050711
    Total Energy =                       -266.9500696805073403
  Basis Set: CC-PVTZ
  Basis Set:
  Basis Set: CC-PVTZ
  Basis Set:
  @DF-RHF Final Energy:  -266.95134499620690
    Total Energy =                       -266.9513449962068421
  Basis Set: CC-PVTZ
  Basis Set:
  Charge       = 0
  Multiplicity = 1
  Basis Set: CC-PVTZ
  Basis Set:

    Orbital Energies (a.u.)
    -----------------------

    Doubly Occupied:

       1A    -20.607414     2A    -20.538836     3A    -11.374279
       4A    -11.241701     5A    -11.225641     6A     -1.479188
       7A     -1.369396     8A     -1.067046     9A     -0.916177
      10A     -0.812607    11A     -0.707128    12A     -0.691338
      13A     -0.651183    14A     -0.612511    15A     -0.596474
      16A     -0.539143    17A     -0.527232    18A     -0.511779
      19A     -0.479167    20A     -0.446061

  @DF-RHF Final Energy:  -266.95134983793389

   => Energetics <=

    Nuclear Repulsion Energy =            180.1204067141576388
    One-Electron Energy =                -721.3549110307636738
    Two-Electron Energy =                 274.2831544786720315
    DFT Exchange-Correlation Energy =       0.0000000000000000
    Empirical Dispersion Energy =           0.0000000000000000
    PCM Polarization Energy =               0.0000000000000000
    EFP Energy =                            0.0000000000000000
    Total Energy =                       -266.9513498379340035
    Molecular point group: c1
  Basis Set: CC-PVTZ
  Basis Set:

  -Total Gradient:
     Atom            X                  Y                   Z
    ------   -----------------  -----------------  -----------------
       1        0.000024226731     0.000016410573     0.000006163396
       2       -0.000043858390     0.000241809415     0.000292392929
       3        0.000068130979    -0.000134123901    -0.000558013382
       4        0.000062845061    -0.000232273073     0.000376839193
       5        0.000001806029    -0.000148047600     0.000164186096
       6        0.000123586872    -0.000080095574    -0.000004507759
       7       -0.000194959107     0.000306816236    -0.000259944916
       8        0.000008179607     0.000022123787    -0.000009966561
       9       -0.000018889524     0.000003277117    -0.000014654589
      10       -0.000026970382     0.000002652905    -0.000002595393
      11       -0.000004097875     0.000001450116     0.000010100983

  **** Optimization is complete! (in 5 steps) ****
    Final optimized geometry and variables:
    Molecular point group: c1

    Geometry (in Angstrom), charge = 0, multiplicity = 1:

    H            2.032203719493     0.417093950319     0.938204897543
    O            1.277080784421    -0.147632795531     1.013240496310
    C            0.508325641871     0.038156079123    -0.053665712983
    C           -0.734391771427    -0.814579000681    -0.045959590145
    O            0.791333823035     0.806154764466    -0.907860499020
    C           -1.999035231998     0.042898668876    -0.086193192800
    H           -0.688337979816    -1.435384793371    -0.932806008275
    H           -0.727217646268    -1.459502871047     0.820198563384
    H           -1.996453620866     0.686117522117    -0.955077205879
    H           -2.875819883809    -0.590523381041    -0.128153097519
    H           -2.077714704687     0.664925660417     0.797684818662

  Mulliken Charges: (a.u.)
   Center  Symbol    Alpha    Beta     Spin     Total
       1     H     0.37996  0.37996  0.00000  0.24009
       2     O     4.15915  4.15915  0.00000 -0.31829
       3     C     2.80183  2.80183  0.00000  0.39634
       4     C     3.09054  3.09054  0.00000 -0.18107
       5     O     4.19888  4.19888  0.00000 -0.39776
       6     C     3.14556  3.14556  0.00000 -0.29112
       7     H     0.44329  0.44329  0.00000  0.11342
       8     H     0.43860  0.43860  0.00000  0.12280
       9     H     0.44170  0.44170  0.00000  0.11660
      10     H     0.44835  0.44835  0.00000  0.10330
      11     H     0.45215  0.45215  0.00000  0.09571

   Total alpha = 20.00000, Total beta = 20.00000, Total charge = -0.00000
