  ==> Input File <==

--------------------------------------------------------------------------
set {
	reference rhf
	basis 6-31G*
}

set_num_threads( 4 )
memory 2 gb

molecule MOL {
0 1

H	 -0.982009	 0.169473	 -2.326636
C	 -0.900101	 -0.651996	 -1.617678
O	 -1.392607	 -0.295399	 -0.366433
H	 -1.491023	 -1.483675	 -1.975816
H	 0.143538	 -0.959329	 -1.564835
C	 -0.719715	 0.768384	 0.229244
C	 0.719720	 0.768376	 -0.229267
H	 -1.185038	 1.714362	 -0.050570
H	 -0.750528	 0.687237	 1.313896
O	 1.392611	 -0.295398	 0.366430
H	 0.750534	 0.687200	 -1.313918
H	 1.185043	 1.714359	 0.050526
C	 2.706965	 -0.449871	 -0.062409
H	 2.756559	 -0.644779	 -1.131878
H	 3.305899	 0.433456	 0.155466
H	 3.125548	 -1.294566	 0.467107

	symmetry c1
}
set optking {
	frozen_dihedral = ("
		2 3 6 7
	")
}

ee = optimize('scf')
oeprop('DIPOLE', 'QUADRUPOLE', 'MULLIKEN_CHARGES')
f=open( 'psi4out.xyz', 'w' )
f.write( "16  " )
f.write( str(ee) + "\n" )
f.write( MOL.save_string_xyz() )
f.close()
--------------------------------------------------------------------------

    Molecular point group: c1
  Charge       = 0
  Multiplicity = 1
  Basis Set: 6-31G*
  Basis Set:
  @DF-RHF Final Energy:  -306.95784358573428
    Total Energy =                       -306.9578435857341674
    Molecular point group: c1
  Basis Set: 6-31G*
  Basis Set:
  Basis Set: 6-31G*
  Basis Set:
  @DF-RHF Final Energy:  -306.96788016122110
    Total Energy =                       -306.9678801612213874
  Basis Set: 6-31G*
  Basis Set:
  Basis Set: 6-31G*
  Basis Set:
  @DF-RHF Final Energy:  -306.97119067323985
    Total Energy =                       -306.9711906732397892
  Basis Set: 6-31G*
  Basis Set:
  Basis Set: 6-31G*
  Basis Set:
  @DF-RHF Final Energy:  -306.97158233164714
    Total Energy =                       -306.9715823316470278
  Basis Set: 6-31G*
  Basis Set:
  Basis Set: 6-31G*
  Basis Set:
  @DF-RHF Final Energy:  -306.97163697622182
    Total Energy =                       -306.9716369762218164
  Basis Set: 6-31G*
  Basis Set:
  Basis Set: 6-31G*
  Basis Set:
  @DF-RHF Final Energy:  -306.97164931107119
    Total Energy =                       -306.9716493110714737
  Basis Set: 6-31G*
  Basis Set:
  Charge       = 0
  Multiplicity = 1
  Basis Set: 6-31G*
  Basis Set:

    Orbital Energies (a.u.)
    -----------------------

    Doubly Occupied:

       1A    -20.562942     2A    -20.547979     3A    -11.276191
       4A    -11.271077     5A    -11.268847     6A    -11.258619
       7A     -1.391658     8A     -1.365996     9A     -1.029636
      10A     -0.950280    11A     -0.900801    12A     -0.810747
      13A     -0.693636    14A     -0.682261    15A     -0.657976
      16A     -0.636785    17A     -0.626739    18A     -0.593473
      19A     -0.560778    20A     -0.536442    21A     -0.518679
      22A     -0.492817    23A     -0.446965    24A     -0.424661
      25A     -0.406414

  @DF-RHF Final Energy:  -306.97165082613799

   => Energetics <=

    Nuclear Repulsion Energy =            264.5788073728945164
    One-Electron Energy =                -943.2761168025365350
    Two-Electron Energy =                 371.7256586035041437
    DFT Exchange-Correlation Energy =       0.0000000000000000
    Empirical Dispersion Energy =           0.0000000000000000
    PCM Polarization Energy =               0.0000000000000000
    EFP Energy =                            0.0000000000000000
    Total Energy =                       -306.9716508261378749
    Molecular point group: c1
  Basis Set: 6-31G*
  Basis Set:

  -Total Gradient:
     Atom            X                  Y                   Z
    ------   -----------------  -----------------  -----------------
       1       -0.000012721963     0.000001342445     0.000013345607
       2        0.002098356399    -0.002326301587     0.001364662136
       3       -0.003320191526     0.004420467679    -0.003347957670
       4       -0.000007203858     0.000000226389     0.000039969087
       5       -0.000029329443    -0.000001314263     0.000028332345
       6        0.001952597957    -0.003899735802     0.004364580802
       7       -0.000587727606     0.001728196995    -0.002455821905
       8       -0.000027853024    -0.000000060691    -0.000009271565
       9       -0.000037253706     0.000003357733     0.000011350572
      10       -0.000017873251     0.000082835949    -0.000005915443
      11       -0.000006789748     0.000012224726    -0.000011038603
      12        0.000006250488    -0.000004098956     0.000009988183
      13        0.000022586064    -0.000014651277    -0.000000375573
      14       -0.000007487537     0.000003934133    -0.000002402436
      15       -0.000027133403    -0.000001380406    -0.000000326576
      16        0.000001774154    -0.000005043064     0.000000881037

  **** Optimization is complete! (in 7 steps) ****
    Final optimized geometry and variables:
    Molecular point group: c1

    Geometry (in Angstrom), charge = 0, multiplicity = 1:

    H           -1.420274683944     0.042129315076    -2.088553962800
    C           -1.414406252268    -0.726303667341    -1.316446172860
    O           -1.761792150536    -0.216316594019    -0.066481855479
    H           -2.165780336416    -1.462862919110    -1.566435073615
    H           -0.443859778622    -1.207415092291    -1.301374937067
    C           -0.988659883041     0.809955483150     0.483870988429
    C            0.481624825994     0.846512425891     0.110649917975
    H           -1.412790336120     1.773759913770     0.199046249050
    H           -1.075703463458     0.713135113930     1.557941192406
    O            1.115332884828    -0.309844161275     0.560845670127
    H            0.615822471791     0.961462439236    -0.963194692516
    H            0.916915541459     1.728075557368     0.582531575586
    C            2.483323693569    -0.349339591298     0.303255718824
    H            2.689769502932    -0.301817253126    -0.764511826561
    H            3.003499941473     0.472592659140     0.791594561758
    H            2.861941521918    -1.284286329618     0.692071003050

  Mulliken Charges: (a.u.)
   Center  Symbol    Alpha    Beta     Spin     Total
       1     H     0.43489  0.43489  0.00000  0.13022
       2     C     3.08441  3.08441  0.00000 -0.16882
       3     O     4.30787  4.30787  0.00000 -0.61575
       4     H     0.41215  0.41215  0.00000  0.17571
       5     H     0.41755  0.41755  0.00000  0.16491
       6     C     2.98062  2.98062  0.00000  0.03876
       7     C     3.01913  3.01913  0.00000 -0.03825
       8     H     0.43146  0.43146  0.00000  0.13709
       9     H     0.41080  0.41080  0.00000  0.17840
      10     O     4.29987  4.29987  0.00000 -0.59974
      11     H     0.42709  0.42709  0.00000  0.14581
      12     H     0.42528  0.42528  0.00000  0.14943
      13     C     3.08089  3.08089  0.00000 -0.16177
      14     H     0.42983  0.42983  0.00000  0.14034
      15     H     0.42881  0.42881  0.00000  0.14238
      16     H     0.40936  0.40936  0.00000  0.18128

   Total alpha = 25.00000, Total beta = 25.00000, Total charge =  0.00000
