                              Psi4 1.0.54 Driver

  ==> Input File <==

--------------------------------------------------------------------------
set {
	reference rhf
	basis cc-pvtz
}

set_num_threads( 4 )
memory 2 gb

molecule MOL {
0 1

O	 0.912589	 0.913914	 -0.857144
C	 1.121787	 0.124983	 0.000110
C	 0.259232	 -0.095716	 1.216150
O	 2.167739	 -0.685178	 -0.000678
C	 -0.962610	 0.809645	 1.273999
H	 -0.026641	 -1.142490	 1.220856
H	 0.891664	 0.041468	 2.087168
C	 -1.813004	 0.559609	 2.516022
H	 -1.561558	 0.660260	 0.382660
H	 -0.642473	 1.845262	 1.250451
C	 -3.041562	 1.460196	 2.582940
H	 -2.127983	 -0.480410	 2.535779
H	 -1.207481	 0.710634	 3.405837
H	 -3.685126	 1.307380	 1.723255
H	 -3.625793	 1.260834	 3.473785
H	 -2.757978	 2.507039	 2.599755
C	 3.449556	 -0.089977	 -0.000570
H	 3.585694	 0.522473	 -0.879546
H	 4.155805	 -0.904274	 -0.001389
H	 3.586173	 0.521118	 0.879272

	symmetry c1
}
set optking {
	frozen_dihedral = ("
		1 2 4 17
	")
}

ee,wfn = optimize('scf', return_wfn=True)
oeprop( wfn, 'DIPOLE', 'QUADRUPOLE', 'MULLIKEN_CHARGES')
f=open( 'psi4out.xyz', 'w' )
f.write( "20  " )
f.write( str(ee) + "\n" )
f.write( MOL.save_string_xyz() )
f.close()
--------------------------------------------------------------------------

    Molecular point group: c1
  Charge       = 0
  Multiplicity = 1
  Basis Set: CC-PVTZ
  Basis Set:
  @DF-RHF Final Energy:  -384.06873324193907
    Total Energy =                       -384.0687332419390714
    Molecular point group: c1
  Basis Set: CC-PVTZ
  Basis Set:
  Basis Set: CC-PVTZ
  Basis Set:
  @DF-RHF Final Energy:  -384.06460130102914
    Total Energy =                       -384.0646013010289721
  Basis Set: CC-PVTZ
  Basis Set:
  Basis Set: CC-PVTZ
  Basis Set:
  @DF-RHF Final Energy:  -384.06953193543484
    Total Energy =                       -384.0695319354348385
  Basis Set: CC-PVTZ
  Basis Set:
  Basis Set: CC-PVTZ
  Basis Set:
  @DF-RHF Final Energy:  -384.06962398061762
    Total Energy =                       -384.0696239806175072
  Basis Set: CC-PVTZ
  Basis Set:
  Basis Set: CC-PVTZ
  Basis Set:
  @DF-RHF Final Energy:  -384.06974644358581
    Total Energy =                       -384.0697464435853590
  Basis Set: CC-PVTZ
  Basis Set:
  Basis Set: CC-PVTZ
  Basis Set:
  @DF-RHF Final Energy:  -384.06975120298921
    Total Energy =                       -384.0697512029886411
  Basis Set: CC-PVTZ
  Basis Set:
  Charge       = 0
  Multiplicity = 1
  Basis Set: CC-PVTZ
  Basis Set:

    Orbital Energies (a.u.)
    -----------------------

    Doubly Occupied:

       1A    -20.582185     2A    -20.542435     3A    -11.367160
       4A    -11.284423     5A    -11.236133     6A    -11.219817
       7A    -11.218771     8A    -11.209789     9A     -1.463775
      10A     -1.368176    11A     -1.090783    12A     -1.022483
      13A     -0.969390    14A     -0.892111    15A     -0.806502
      16A     -0.766935    17A     -0.698296    18A     -0.681018
      19A     -0.676144    20A     -0.644825    21A     -0.610427
      22A     -0.593218    23A     -0.585182    24A     -0.547512
      25A     -0.536919    26A     -0.515432    27A     -0.503698
      28A     -0.484994    29A     -0.478018    30A     -0.471741
      31A     -0.455589    32A     -0.436462

  @DF-RHF Final Energy:  -384.06975164619649

   => Energetics <=

    Nuclear Repulsion Energy =            381.2267942763888300
    One-Electron Energy =               -1278.6724072278677795
    Two-Electron Energy =                 513.3758613052824558
    DFT Exchange-Correlation Energy =       0.0000000000000000
    Empirical Dispersion Energy =           0.0000000000000000
    PCM Polarization Energy =               0.0000000000000000
    EFP Energy =                            0.0000000000000000
    Total Energy =                       -384.0697516461965506
    Molecular point group: c1
  Basis Set: CC-PVTZ
  Basis Set:

  -Total Gradient:
     Atom            X                  Y                   Z
    ------   -----------------  -----------------  -----------------
       1       -0.005147709248    -0.005235258352    -0.004225871281
       2        0.007724457196     0.007496952052     0.009423851217
       3        0.000022341541     0.000048884105     0.000022172490
       4       -0.002911809211    -0.001939447180    -0.011890934491
       5       -0.000016168406    -0.000020635340     0.000000863747
       6       -0.000008992519     0.000007140368    -0.000013973776
       7       -0.000004902114    -0.000009693444    -0.000006334905
       8       -0.000005199474    -0.000003360442     0.000002772989
       9        0.000004070211    -0.000002894735     0.000003165626
      10        0.000001445394     0.000000129201     0.000001929995
      11        0.000010391624     0.000004225075    -0.000004028647
      12        0.000000084287     0.000002232088    -0.000004429192
      13       -0.000001009653    -0.000000597456    -0.000004654762
      14        0.000002465567    -0.000002432528     0.000003218738
      15        0.000010787134    -0.000000394988    -0.000004833753
      16       -0.000002623749     0.000000646194     0.000000300660
      17        0.000357054222    -0.000312162328     0.006695179787
      18       -0.000006871935    -0.000024392240     0.000014529374
      19       -0.000024211348     0.000010139237     0.000002986325
      20       -0.000003599521    -0.000019079281    -0.000015910138

  **** Optimization is complete! (in 7 steps) ****
    Final optimized geometry and variables:
    Molecular point group: c1

    Geometry (in Angstrom), charge = 0, multiplicity = 1:

    O            0.673267377729     0.655833611693    -1.601402562157
    C            0.852983944398    -0.181039951062    -0.791226223325
    C           -0.035622128315    -0.450102483589     0.393429777072
    O            1.847374980645    -1.078849300129    -0.890105167507
    C           -1.260363119345     0.448766195114     0.473290677158
    H           -0.313275050613    -1.498132489877     0.346441928471
    H            0.582761978530    -0.353505857163     1.281964602924
    C           -2.131788649517     0.140836304472     1.687469342897
    H           -1.843089364498     0.338400534523    -0.434491296928
    H           -0.943049824502     1.485209612806     0.502094879621
    C           -3.362122349988     1.037151067153     1.775424472626
    H           -2.445915488731    -0.898971526826     1.653031129498
    H           -1.541759528815     0.250164374483     2.593738365498
    H           -3.990956894023     0.924191757580     0.898905198951
    H           -3.960980295007     0.796445232400     2.646062461628
    H           -3.079988257427     2.082173842436     1.845606234520
    C            3.166391644803    -0.577014822874    -0.932349636165
    H            3.285952211902     0.129809897723    -1.740622188289
    H            3.814771098079    -1.423654565306    -1.089173499141
    H            3.419220841634    -0.102719403813     0.008825001482

  Mulliken Charges: (a.u.)
   Center  Symbol    Alpha    Beta     Spin     Total
       1     O     4.17843  4.17843  0.00000 -0.35686
       2     C     2.79450  2.79450  0.00000  0.41101
       3     C     3.10728  3.10728  0.00000 -0.21457
       4     O     4.16513  4.16513  0.00000 -0.33026
       5     C     3.08297  3.08297  0.00000 -0.16594
       6     H     0.43698  0.43698  0.00000  0.12604
       7     H     0.44470  0.44470  0.00000  0.11060
       8     C     3.08622  3.08622  0.00000 -0.17243
       9     H     0.44586  0.44586  0.00000  0.10828
      10     H     0.44695  0.44695  0.00000  0.10610
      11     C     3.14930  3.14930  0.00000 -0.29861
      12     H     0.45465  0.45465  0.00000  0.09070
      13     H     0.45559  0.45559  0.00000  0.08883
      14     H     0.45351  0.45351  0.00000  0.09299
      15     H     0.44821  0.44821  0.00000  0.10357
      16     H     0.45398  0.45398  0.00000  0.09203
      17     C     3.03638  3.03638  0.00000 -0.07276
      18     H     0.44785  0.44785  0.00000  0.10431
      19     H     0.44537  0.44537  0.00000  0.10926
      20     H     0.46615  0.46615  0.00000  0.06770

   Total alpha = 32.00000, Total beta = 32.00000, Total charge = -0.00000

*** Psi4 exiting successfully. Buy a developer a beer!
