                              Psi4 1.0.54 Driver

  ==> Input File <==

--------------------------------------------------------------------------
set {
	reference rhf
	basis cc-pvtz
}

set_num_threads( 4 )
memory 2 gb

molecule MOL {
0 1

O	 0.074770	 1.259872	 0.000487
C	 0.029490	 0.077183	 0.000078
C	 -1.232113	 -0.748027	 0.000015
O	 1.106773	 -0.690081	 -0.000204
C	 -2.501422	 0.088592	 -0.000052
H	 -1.188777	 -1.400384	 -0.865133
H	 -1.188857	 -1.400312	 0.865225
H	 -2.548170	 0.725504	 -0.873205
H	 -3.371613	 -0.556398	 -0.000040
H	 -2.548215	 0.725571	 0.873047
C	 1.386065	 -1.416048	 -1.180293
H	 0.576831	 -2.092491	 -1.412243
H	 2.289199	 -1.970127	 -0.982380
H	 1.534940	 -0.745760	 -2.013838

	symmetry c1
}
set optking {
	frozen_dihedral = ("
		11 4 2 3
	")
}

ee,wfn = optimize('scf', return_wfn=True)
oeprop( wfn, 'DIPOLE', 'QUADRUPOLE', 'MULLIKEN_CHARGES')
f=open( 'psi4out.xyz', 'w' )
f.write( "14  " )
f.write( str(ee) + "\n" )
f.write( MOL.save_string_xyz() )
f.close()
--------------------------------------------------------------------------

    Molecular point group: c1
  Charge       = 0
  Multiplicity = 1
  Basis Set: CC-PVTZ
  Basis Set:
  @DF-RHF Final Energy:  -305.96437535210771
    Total Energy =                       -305.9643753521079930
    Molecular point group: c1
  Basis Set: CC-PVTZ
  Basis Set:
  Basis Set: CC-PVTZ
  Basis Set:
  @DF-RHF Final Energy:  -305.96612236440592
    Total Energy =                       -305.9661223644060328
  Basis Set: CC-PVTZ
  Basis Set:
  Basis Set: CC-PVTZ
  Basis Set:
  @DF-RHF Final Energy:  -305.96736798473927
    Total Energy =                       -305.9673679847394396
  Basis Set: CC-PVTZ
  Basis Set:
  Basis Set: CC-PVTZ
  Basis Set:
  @DF-RHF Final Energy:  -305.96744625657351
    Total Energy =                       -305.9674462565736803
  Basis Set: CC-PVTZ
  Basis Set:
  Basis Set: CC-PVTZ
  Basis Set:
  @DF-RHF Final Energy:  -305.96748352316263
    Total Energy =                       -305.9674835231623433
  Basis Set: CC-PVTZ
  Basis Set:
  Basis Set: CC-PVTZ
  Basis Set:
  @DF-RHF Final Energy:  -305.96755645706833
    Total Energy =                       -305.9675564570681559
  Basis Set: CC-PVTZ
  Basis Set:
  Basis Set: CC-PVTZ
  Basis Set:
  @DF-RHF Final Energy:  -305.96755765267568
    Total Energy =                       -305.9675576526757368
  Basis Set: CC-PVTZ
  Basis Set:
  Charge       = 0
  Multiplicity = 1
  Basis Set: CC-PVTZ
  Basis Set:

    Orbital Energies (a.u.)
    -----------------------

    Doubly Occupied:

       1A    -20.581302     2A    -20.543855     3A    -11.368110
       4A    -11.291857     5A    -11.243234     6A    -11.218580
       7A     -1.462444     8A     -1.371121     9A     -1.063563
      10A     -0.979157    11A     -0.896106    12A     -0.768057
      13A     -0.703597    14A     -0.680542    15A     -0.676615
      16A     -0.629354    17A     -0.613734    18A     -0.559118
      19A     -0.547862    20A     -0.526099    21A     -0.512402
      22A     -0.492412    23A     -0.460302    24A     -0.439554

  @DF-RHF Final Energy:  -305.96755779720127

   => Energetics <=

    Nuclear Repulsion Energy =            247.1481743347311237
    One-Electron Energy =                -906.9735116392978398
    Two-Electron Energy =                 353.8577795073655352
    DFT Exchange-Correlation Energy =       0.0000000000000000
    Empirical Dispersion Energy =           0.0000000000000000
    PCM Polarization Energy =               0.0000000000000000
    EFP Energy =                            0.0000000000000000
    Total Energy =                       -305.9675577972011524
    Molecular point group: c1
  Basis Set: CC-PVTZ
  Basis Set:

  -Total Gradient:
     Atom            X                  Y                   Z
    ------   -----------------  -----------------  -----------------
       1       -0.000011713793     0.000015428597     0.000000819692
       2        0.000303112585     0.000361272064    -0.001951737948
       3        0.000017372971     0.000099606621     0.001122914053
       4       -0.000965499238    -0.001446097529     0.001329570987
       5        0.000013837829    -0.000004620767     0.000003871676
       6       -0.000001248359    -0.000010984589     0.000009334189
       7        0.000004853492    -0.000003393375     0.000010143884
       8       -0.000004242568     0.000005001074    -0.000004588922
       9        0.000008294535    -0.000001458887    -0.000000486307
      10        0.000000562030     0.000001245352     0.000000006536
      11        0.000631294284     0.000977446126    -0.000512721979
      12       -0.000001617540    -0.000001937214    -0.000005701242
      13        0.000004497274     0.000001935811    -0.000002254886
      14        0.000000496500     0.000006556722     0.000000830267

  **** Optimization is complete! (in 8 steps) ****
    Final optimized geometry and variables:
    Molecular point group: c1

    Geometry (in Angstrom), charge = 0, multiplicity = 1:

    O            0.217044913296     1.489234028509     0.133774040779
    C            0.178316425392     0.314234078665     0.148366463231
    C           -1.094977340237    -0.493041911267     0.241049914107
    O            1.315169459897    -0.408935830096     0.173537191288
    C           -2.350477863892     0.361639801059     0.314654343427
    H           -1.140162735976    -1.163800081164    -0.610169410081
    H           -0.997246605829    -1.128935739817     1.114730007476
    H           -2.449497216796     0.983780901659    -0.564732582892
    H           -3.227261259559    -0.270180869226     0.387887151691
    H           -2.325150718607     1.014238576435     1.176548302959
    C            1.637429632645    -1.215990936578    -0.934119160012
    H            0.966911276967    -2.061444453478    -1.026439284937
    H            2.637862797249    -1.580137162805    -0.766221879268
    H            1.621858066180    -0.636990697045    -1.849707213048

  Mulliken Charges: (a.u.)
   Center  Symbol    Alpha    Beta     Spin     Total
       1     O     4.16658  4.16658  0.00000 -0.33315
       2     C     2.79535  2.79535  0.00000  0.40930
       3     C     3.11223  3.11223  0.00000 -0.22446
       4     O     4.15769  4.15769  0.00000 -0.31537
       5     C     3.13864  3.13864  0.00000 -0.27729
       6     H     0.44742  0.44742  0.00000  0.10516
       7     H     0.43773  0.43773  0.00000  0.12454
       8     H     0.44816  0.44816  0.00000  0.10369
       9     H     0.45090  0.45090  0.00000  0.09819
      10     H     0.44540  0.44540  0.00000  0.10919
      11     C     3.04071  3.04071  0.00000 -0.08141
      12     H     0.46251  0.46251  0.00000  0.07498
      13     H     0.43845  0.43845  0.00000  0.12311
      14     H     0.45823  0.45823  0.00000  0.08354

   Total alpha = 24.00000, Total beta = 24.00000, Total charge = -0.00000

*** Psi4 exiting successfully. Buy a developer a beer!
