  ==> Input File <==

--------------------------------------------------------------------------
set {
	reference rhf
	basis 6-31G*
}

set_num_threads( 1 )
memory 2 gb

molecule MOL {
0 1

H	 -3.161837	 0.500524	 -0.000234
C	 -2.367097	 -0.232926	 -0.000000
O	 -1.158440	 0.455814	 -0.000122
H	 -2.468853	 -0.861886	 -0.882833
H	 -2.468942	 -0.861421	 0.883154
C	 -0.029776	 -0.365156	 0.000148
C	 1.212217	 0.508981	 0.000007
H	 -0.036772	 -1.013236	 -0.877259
H	 -0.036869	 -1.012778	 0.877897
C	 1.096818	 1.688170	 -0.964917
H	 1.381326	 0.866935	 1.010914
H	 2.066983	 -0.107325	 -0.261220
H	 0.260775	 2.331929	 -0.706012
H	 1.996319	 2.294260	 -0.944980
H	 0.950572	 1.350750	 -1.987249

	symmetry c1
}
set optking {
	frozen_dihedral = ("
		6 3 2 4,
		8 6 3 2
	")
}

ee = energy('scf')
oeprop('DIPOLE', 'QUADRUPOLE', 'MULLIKEN_CHARGES')
f=open( 'psi4out.xyz', 'w' )
f.write( "15  " )
f.write( str(ee) + "\n" )
f.write( MOL.save_string_xyz() )
f.close()
--------------------------------------------------------------------------

    Molecular point group: c1

    Geometry (in Angstrom), charge = 0, multiplicity = 1:

       Center              X                  Y                   Z               Mass
    ------------   -----------------  -----------------  -----------------  -----------------
           H         -2.876816428590     0.095592230069     0.195376848963     1.007825032070
           C         -2.082076428590    -0.637857769931     0.195610848963    12.000000000000
           O         -0.873419428590     0.050882230069     0.195488848963    15.994914619560
           H         -2.183832428590    -1.266817769931    -0.687222151037     1.007825032070
           H         -2.183921428590    -1.266352769931     1.078764848963     1.007825032070
           C          0.255244571410    -0.770087769931     0.195758848963    12.000000000000
           C          1.497237571410     0.104049230069     0.195617848963    12.000000000000
           H          0.248248571410    -1.418167769931    -0.681648151037     1.007825032070
           H          0.248151571410    -1.417709769931     1.073507848963     1.007825032070
           C          1.381838571410     1.283238230069    -0.769306151037    12.000000000000
           H          1.666346571410     0.462003230069     1.206524848963     1.007825032070
           H          2.352003571410    -0.512256769931    -0.065609151037     1.007825032070
           H          0.545795571410     1.926997230069    -0.510401151037     1.007825032070
           H          2.281339571410     1.889328230069    -0.749369151037     1.007825032070
           H          1.235592571410     0.945818230069    -1.791638151037     1.007825032070

  Charge       = 0
  Multiplicity = 1
  Basis Set: 6-31G*
  Basis Set:

    Orbital Energies (a.u.)
    -----------------------

    Doubly Occupied:

       1A    -20.554590     2A    -11.266411     3A    -11.264863
       4A    -11.214191     5A    -11.200453     6A     -1.380052
       7A     -1.052991     8A     -0.947860     9A     -0.888933
      10A     -0.795463    11A     -0.671767    12A     -0.661284
      13A     -0.634397    14A     -0.596998    15A     -0.554140
      16A     -0.543645    17A     -0.504221    18A     -0.482849
      19A     -0.474161    20A     -0.458571    21A     -0.413146

  @DF-RHF Final Energy:  -232.13743836015803

   => Energetics <=

    Nuclear Repulsion Energy =            194.0768022952285889
    One-Electron Energy =                -699.3067264804460592
    Two-Electron Energy =                 273.0924858250601801
    DFT Exchange-Correlation Energy =       0.0000000000000000
    Empirical Dispersion Energy =           0.0000000000000000
    PCM Polarization Energy =               0.0000000000000000
    EFP Energy =                            0.0000000000000000
    Total Energy =                       -232.1374383601572617

  Mulliken Charges: (a.u.)
   Center  Symbol    Alpha    Beta     Spin     Total
       1     H     0.41232  0.41232  0.00000  0.17536
       2     C     3.07875  3.07875  0.00000 -0.15750
       3     O     4.30356  4.30356  0.00000 -0.60711
       4     H     0.42997  0.42997  0.00000  0.14006
       5     H     0.43032  0.43032  0.00000  0.13936
       6     C     2.98787  2.98787  0.00000  0.02426
       7     C     3.16356  3.16356  0.00000 -0.32712
       8     H     0.43282  0.43282  0.00000  0.13435
       9     H     0.43006  0.43006  0.00000  0.13989
      10     C     3.23837  3.23837  0.00000 -0.47674
      11     H     0.41764  0.41764  0.00000  0.16472
      12     H     0.42198  0.42198  0.00000  0.15605
      13     H     0.40523  0.40523  0.00000  0.18953
      14     H     0.42325  0.42325  0.00000  0.15350
      15     H     0.42431  0.42431  0.00000  0.15138

   Total alpha = 21.00000, Total beta = 21.00000, Total charge =  0.00000
