  ==> Input File <==

--------------------------------------------------------------------------
set {
	reference rhf
	basis 6-31G*
}

set_num_threads( 4 )
memory 2 gb

molecule MOL {
0 1

O	 -3.478473	 -0.023412	 0.857090
C	 -2.668563	 0.129746	 -0.000350
C	 -2.878365	 1.008965	 -1.206262
O	 -1.481751	 -0.454642	 0.000584
H	 -3.084050	 2.018028	 -0.869591
H	 -2.018772	 1.007984	 -1.860126
H	 -3.751041	 0.658816	 -1.744511
C	 -0.334255	 0.388708	 0.000906
C	 0.891947	 -0.504646	 0.000751
H	 -0.365390	 1.025305	 -0.873475
H	 -0.365484	 1.024911	 0.875569
C	 2.191998	 0.301789	 0.000897
H	 0.855148	 -1.151283	 -0.871571
H	 0.855132	 -1.151660	 0.872805
C	 3.441114	 -0.581407	 0.000108
H	 2.215074	 0.954890	 -0.869742
H	 2.215465	 0.953923	 0.872248
C	 4.739576	 0.224112	 -0.001102
H	 3.419457	 -1.233487	 -0.870178
H	 3.420834	 -1.233096	 0.870717
H	 4.804918	 0.861552	 -0.878265
H	 5.606527	 -0.429058	 -0.001824
H	 4.806469	 0.861674	 0.875853

	symmetry c1
}
set optking {
	frozen_dihedral = ("
		1 2 4 8
	")
}

ee = optimize('scf')
oeprop('DIPOLE', 'QUADRUPOLE', 'MULLIKEN_CHARGES')
f=open( 'psi4out.xyz', 'w' )
f.write( "23  " )
f.write( str(ee) + "\n" )
f.write( MOL.save_string_xyz() )
f.close()
--------------------------------------------------------------------------

    Molecular point group: c1
  Charge       = 0
  Multiplicity = 1
  Basis Set: 6-31G*
  Basis Set:
  @DF-RHF Final Energy:  -422.95608168877379
    Total Energy =                       -422.9560816887734518
    Molecular point group: c1
  Basis Set: 6-31G*
  Basis Set:
  Basis Set: 6-31G*
  Basis Set:
  @DF-RHF Final Energy:  -422.95551407709337
    Total Energy =                       -422.9555140770929711
  Basis Set: 6-31G*
  Basis Set:
  Basis Set: 6-31G*
  Basis Set:
  @DF-RHF Final Energy:  -422.95835984215734
    Total Energy =                       -422.9583598421570514
  Basis Set: 6-31G*
  Basis Set:
  Basis Set: 6-31G*
  Basis Set:
  @DF-RHF Final Energy:  -422.95964251932958
    Total Energy =                       -422.9596425193293499
  Basis Set: 6-31G*
  Basis Set:
  @DF-RHF Final Energy:  -422.95987265947866
    Total Energy =                       -422.9598726594788332
  @DF-RHF Final Energy:  -422.96021577476876
    Total Energy =                       -422.9602157747690399
  @DF-RHF Final Energy:  -422.96049925455276
    Total Energy =                       -422.9604992545531559
  @DF-RHF Final Energy:  -422.96075606961227
    Total Energy =                       -422.9607560696119890
  Basis Set: 6-31G*
  Basis Set:
  @DF-RHF Final Energy:  -422.96081516418502
    Total Energy =                       -422.9608151641855329
  Basis Set: 6-31G*
  Basis Set:
  Basis Set: 6-31G*
  Basis Set:
  @DF-RHF Final Energy:  -422.96082028779421
    Total Energy =                       -422.9608202877941494
  Basis Set: 6-31G*
  Basis Set:
  Basis Set: 6-31G*
  Basis Set:
  @DF-RHF Final Energy:  -422.96082129840062
    Total Energy =                       -422.9608212984010152
  Basis Set: 6-31G*
  Basis Set:
  Charge       = 0
  Multiplicity = 1
  Basis Set: 6-31G*
  Basis Set:

    Orbital Energies (a.u.)
    -----------------------

    Doubly Occupied:

       1A    -20.586850     2A    -20.550851     3A    -11.376113
       4A    -11.295416     5A    -11.238756     6A    -11.228269
       7A    -11.227526     8A    -11.224243     9A    -11.215384
      10A     -1.457825    11A     -1.366416    12A     -1.096205
      13A     -1.035915    14A     -1.011536    15A     -0.938821
      16A     -0.845242    17A     -0.806394    18A     -0.776505
      19A     -0.698350    20A     -0.689066    21A     -0.657221
      22A     -0.649245    23A     -0.618988    24A     -0.592912
      25A     -0.579827    26A     -0.577818    27A     -0.567055
      28A     -0.545000    29A     -0.520865    30A     -0.502032
      31A     -0.488131    32A     -0.481048    33A     -0.474669
      34A     -0.473968    35A     -0.452226    36A     -0.432621

  @DF-RHF Final Energy:  -422.96082228785889

   => Energetics <=

    Nuclear Repulsion Energy =            449.2088060657112578
    One-Electron Energy =               -1465.7806452273364357
    Two-Electron Energy =                 593.6110168737658341
    DFT Exchange-Correlation Energy =       0.0000000000000000
    Empirical Dispersion Energy =           0.0000000000000000
    PCM Polarization Energy =               0.0000000000000000
    EFP Energy =                            0.0000000000000000
    Total Energy =                       -422.9608222878592869
    Molecular point group: c1
  Basis Set: 6-31G*
  Basis Set:

  -Total Gradient:
     Atom            X                  Y                   Z
    ------   -----------------  -----------------  -----------------
       1        0.001172229974     0.002308108221     0.001722116771
       2       -0.001555271102    -0.003480920569    -0.001224091953
       3        0.000043429491     0.000050713989     0.000074635652
       4        0.000302251771     0.001429139569    -0.003100281739
       5       -0.000028699614    -0.000027717925     0.000000896485
       6       -0.000031495486    -0.000028010008    -0.000014161169
       7       -0.000030807234     0.000006640718    -0.000053336057
       8        0.000113561132    -0.000279308409     0.002626495344
       9        0.000019700103     0.000004991529    -0.000009083759
      10       -0.000014363052    -0.000011245963    -0.000007415913
      11        0.000026761890     0.000024018593    -0.000005142280
      12        0.000003300431    -0.000000419587    -0.000017077779
      13        0.000008675243     0.000000107625     0.000000703916
      14       -0.000016036753     0.000007854076     0.000001172303
      15       -0.000004914222    -0.000003890513     0.000004794675
      16        0.000001315462     0.000006410587     0.000002192590
      17       -0.000005782826    -0.000007764306     0.000002584402
      18       -0.000002567482     0.000002644966    -0.000008631844
      19        0.000000730990    -0.000003134767     0.000001811928
      20       -0.000000975337     0.000002261518     0.000001618959
      21        0.000000540681     0.000002762681     0.000001309400
      22       -0.000001503439    -0.000000985799    -0.000002263228
      23       -0.000000080632    -0.000002256226     0.000001153294

  **** Optimization is complete! (in 12 steps) ****
    Final optimized geometry and variables:
    Molecular point group: c1

    Geometry (in Angstrom), charge = 0, multiplicity = 1:

    O           -3.433815811180    -0.281139296324     0.887298937021
    C           -2.712393350840     0.027871564395     0.004006562438
    C           -3.093711480197     1.011606760235    -1.076444318480
    O           -1.484104713640    -0.511859859332    -0.104975461911
    H           -2.592288531038     1.960547564040    -0.915203385617
    H           -2.799143825233     0.639628775352    -2.050580871506
    H           -4.160619579738     1.176024771346    -1.045422800039
    C           -0.349927782721     0.338795683625    -0.066146103356
    C            0.884835357208    -0.539828515412     0.008418674793
    H           -0.320128037809     0.963912090239    -0.953278624043
    H           -0.414553234624     0.984420159206     0.804161312691
    C            2.178385172494     0.275254947309     0.053228610219
    H            0.888026288217    -1.201771163851    -0.852727155359
    H            0.804691795388    -1.169085449754     0.889153093797
    C            3.430128772164    -0.601106233046     0.129099402247
    H            2.240867377853     0.911272851149    -0.828458580454
    H            2.158459908782     0.944029972601     0.912158096146
    C            4.723363316362     0.211448579840     0.173968363912
    H            3.452556685456    -1.269887869295    -0.728267931353
    H            3.370674444451    -1.235655950790     1.010212287548
    H            4.827921299353     0.832349322596    -0.711316906205
    H            5.592008336858    -0.437115262142     0.227042435275
    H            4.745844811752     0.865748831025     1.040811084182

  Mulliken Charges: (a.u.)
   Center  Symbol    Alpha    Beta     Spin     Total
       1     O     4.24997  4.24997  0.00000 -0.49995
       2     C     2.62435  2.62435  0.00000  0.75131
       3     C     3.29902  3.29902  0.00000 -0.59804
       4     O     4.31568  4.31568  0.00000 -0.63136
       5     H     0.40360  0.40360  0.00000  0.19279
       6     H     0.40149  0.40149  0.00000  0.19702
       7     H     0.39215  0.39215  0.00000  0.21570
       8     C     2.99553  2.99553  0.00000  0.00894
       9     C     3.16238  3.16238  0.00000 -0.32475
      10     H     0.42257  0.42257  0.00000  0.15487
      11     H     0.41717  0.41717  0.00000  0.16566
      12     C     3.16124  3.16124  0.00000 -0.32247
      13     H     0.41190  0.41190  0.00000  0.17621
      14     H     0.40763  0.40763  0.00000  0.18475
      15     C     3.15176  3.15176  0.00000 -0.30351
      16     H     0.42273  0.42273  0.00000  0.15454
      17     H     0.42116  0.42116  0.00000  0.15767
      18     C     3.24003  3.24003  0.00000 -0.48005
      19     H     0.42069  0.42069  0.00000  0.15862
      20     H     0.41961  0.41961  0.00000  0.16078
      21     H     0.42144  0.42144  0.00000  0.15713
      22     H     0.41712  0.41712  0.00000  0.16576
      23     H     0.42081  0.42081  0.00000  0.15838

   Total alpha = 36.00000, Total beta = 36.00000, Total charge =  0.00000
