  ==> Input File <==

--------------------------------------------------------------------------
set {
	reference rhf
	basis cc-pvtz
}

set_num_threads( 4 )
memory 2 gb

molecule MOL {
0 1

H	 -2.582661	 -0.415350	 0.287468
N	 -1.851927	 0.161443	 -0.071573
C	 -0.561396	 -0.500007	 0.035200
H	 -1.861761	 1.010710	 0.453770
C	 0.575129	 0.507849	 -0.048832
H	 -0.478089	 -1.200753	 -0.788956
H	 -0.456191	 -1.081816	 0.952176
C	 1.951750	 -0.141983	 0.035101
H	 0.478254	 1.061643	 -0.975981
H	 0.467676	 1.231891	 0.755499
H	 2.101550	 -0.848142	 -0.774949
H	 2.738260	 0.600794	 -0.026526
H	 2.078939	 -0.679792	 0.968824

	symmetry c1
}
set optking {
	frozen_dihedral = ("
		1 2 3 6
	")
}

ee = optimize('scf')
oeprop('DIPOLE', 'QUADRUPOLE', 'MULLIKEN_CHARGES')
f=open( 'psi4out.xyz', 'w' )
f.write( "13  " )
f.write( str(ee) + "\n" )
f.write( MOL.save_string_xyz() )
f.close()
--------------------------------------------------------------------------

    Molecular point group: c1
  Charge       = 0
  Multiplicity = 1
  Basis Set: CC-PVTZ
  Basis Set:
  @DF-RHF Final Energy:  -173.35141717629958
    Total Energy =                       -173.3514171762997194
    Molecular point group: c1
  Basis Set: CC-PVTZ
  Basis Set:
  Basis Set: CC-PVTZ
  Basis Set:
  @DF-RHF Final Energy:  -173.35153430733112
    Total Energy =                       -173.3515343073310362
  Basis Set: CC-PVTZ
  Basis Set:
  Basis Set: CC-PVTZ
  Basis Set:
  @DF-RHF Final Energy:  -173.35154692773088
    Total Energy =                       -173.3515469277309080
  Basis Set: CC-PVTZ
  Basis Set:
  Charge       = 0
  Multiplicity = 1
  Basis Set: CC-PVTZ
  Basis Set:

    Orbital Energies (a.u.)
    -----------------------

    Doubly Occupied:

       1A    -15.526657     2A    -11.238162     3A    -11.213808
       4A    -11.208753     5A     -1.178632     6A     -1.037851
       7A     -0.899934     8A     -0.803382     9A     -0.650994
      10A     -0.642654    11A     -0.604166    12A     -0.561878
      13A     -0.538682    14A     -0.494503    15A     -0.477222
      16A     -0.469157    17A     -0.386090

  @DF-RHF Final Energy:  -173.35154792251814

   => Energetics <=

    Nuclear Repulsion Energy =            132.0824395459119955
    One-Electron Energy =                -495.0029220955844380
    Two-Electron Energy =                 189.5689346271542490
    DFT Exchange-Correlation Energy =       0.0000000000000000
    Empirical Dispersion Energy =           0.0000000000000000
    PCM Polarization Energy =               0.0000000000000000
    EFP Energy =                            0.0000000000000000
    Total Energy =                       -173.3515479225181934
    Molecular point group: c1
  Basis Set: CC-PVTZ
  Basis Set:

  -Total Gradient:
     Atom            X                  Y                   Z
    ------   -----------------  -----------------  -----------------
       1        0.000291326366     0.001131677631     0.002532664262
       2       -0.000045621099    -0.001072635648    -0.003541551324
       3       -0.001380174995    -0.001919280944     0.002418025837
       4        0.000023262490     0.000014737752     0.000014295478
       5       -0.000001968999     0.000032081923     0.000030105098
       6        0.001052831181     0.001803868739    -0.001429335350
       7        0.000024102180    -0.000001720088    -0.000010522837
       8        0.000014564582    -0.000014285240    -0.000013753632
       9       -0.000000241943     0.000007773209    -0.000008426770
      10        0.000012519445     0.000024819546     0.000002315763
      11        0.000003267578    -0.000002771869     0.000004753916
      12       -0.000006674765    -0.000002117564    -0.000002883548
      13        0.000012807979    -0.000002147445     0.000004313106

  **** Optimization is complete! (in 4 steps) ****
    Final optimized geometry and variables:
    Molecular point group: c1

    Geometry (in Angstrom), charge = 0, multiplicity = 1:

    H           -2.593304562385    -0.418439425600     0.251699897177
    N           -1.854271879244     0.156796486867    -0.094004777509
    C           -0.564696609080    -0.505024116009     0.051296473375
    H           -1.876034579629     0.992850172198     0.452983898908
    C            0.572789516998     0.502560069655    -0.037553585836
    H           -0.453721051079    -1.214818867504    -0.762157000595
    H           -0.476171958501    -1.061497017130     0.983917307859
    C            1.949345703161    -0.149504453937     0.024050639416
    H            0.468722120273     1.061929778901    -0.961461392266
    H            0.477479506794     1.221237141919     0.773296223814
    H            2.088755771087    -0.847444660018    -0.794513509407
    H            2.735656229645     0.593348567967    -0.038811295759
    H            2.085635305772    -0.696288101824     0.951180125071

  Mulliken Charges: (a.u.)
   Center  Symbol    Alpha    Beta     Spin     Total
       1     H     0.43180  0.43180  0.00000  0.13640
       2     N     3.68684  3.68684  0.00000 -0.37368
       3     C     3.01675  3.01675  0.00000 -0.03349
       4     H     0.43241  0.43241  0.00000  0.13519
       5     C     3.08227  3.08227  0.00000 -0.16454
       6     H     0.46034  0.46034  0.00000  0.07932
       7     H     0.46978  0.46978  0.00000  0.06043
       8     C     3.15194  3.15194  0.00000 -0.30389
       9     H     0.44856  0.44856  0.00000  0.10287
      10     H     0.46095  0.46095  0.00000  0.07809
      11     H     0.45408  0.45408  0.00000  0.09184
      12     H     0.44777  0.44777  0.00000  0.10445
      13     H     0.45650  0.45650  0.00000  0.08701

   Total alpha = 17.00000, Total beta = 17.00000, Total charge = -0.00000
