  ==> Input File <==

--------------------------------------------------------------------------
set {
	reference rhf
	basis 6-31G*
}

set_num_threads( 4 )
memory 2 gb

molecule MOL {
0 1

H	 0.049649	 -0.203409	 -0.560952
N	 -0.626943	 -0.667432	 -0.000092
C	 -1.979713	 -0.158776	 0.000050
C	 -0.235018	 -1.744209	 0.723172
H	 -2.520245	 -0.492427	 -0.879443
H	 -1.934741	 0.918111	 -0.004428
H	 -2.517790	 -0.485056	 0.883818
C	 1.229787	 -2.103449	 0.573917
O	 -0.978790	 -2.369036	 1.427878
H	 1.860365	 -1.279350	 0.892644
H	 1.440517	 -2.970221	 1.182191
H	 1.466356	 -2.325545	 -0.461962

	symmetry c1
}
set optking {
	frozen_dihedral = ("
		4 2 3 5
	")
}

ee = optimize('scf')
oeprop('DIPOLE', 'QUADRUPOLE', 'MULLIKEN_CHARGES')
f=open( 'psi4out.xyz', 'w' )
f.write( "12  " )
f.write( str(ee) + "\n" )
f.write( MOL.save_string_xyz() )
f.close()
--------------------------------------------------------------------------

    Molecular point group: c1
  Charge       = 0
  Multiplicity = 1
  Basis Set: 6-31G*
  Basis Set:
  @DF-RHF Final Energy:  -247.00512275577975
    Total Energy =                       -247.0051227557799507
    Molecular point group: c1
  Basis Set: 6-31G*
  Basis Set:
  Basis Set: 6-31G*
  Basis Set:
  @DF-RHF Final Energy:  -247.00544866550547
    Total Energy =                       -247.0054486655053552
  Basis Set: 6-31G*
  Basis Set:
  Basis Set: 6-31G*
  Basis Set:
  @DF-RHF Final Energy:  -247.00546783785470
    Total Energy =                       -247.0054678378546669
  Basis Set: 6-31G*
  Basis Set:
  Basis Set: 6-31G*
  Basis Set:
  @DF-RHF Final Energy:  -247.00551645472768
    Total Energy =                       -247.0055164547276263
  Basis Set: 6-31G*
  Basis Set:
  @DF-RHF Final Energy:  -247.00553348902170
    Total Energy =                       -247.0055334890215022
  @DF-RHF Final Energy:  -247.00553994428751
    Total Energy =                       -247.0055399442876478
  @DF-RHF Final Energy:  -247.00554104886419
    Total Energy =                       -247.0055410488641883
  @DF-RHF Final Energy:  -247.00554743770132
    Total Energy =                       -247.0055474377014662
  @DF-RHF Final Energy:  -247.00555619044488
    Total Energy =                       -247.0055561904449064
  @DF-RHF Final Energy:  -247.00375807164929
    Total Energy =                       -247.0037580716493721
  @DF-RHF Final Energy:  -247.00556112385348
    Total Energy =                       -247.0055611238535676
  @DF-RHF Final Energy:  -247.00557343215272
    Total Energy =                       -247.0055734321528007
  @DF-RHF Final Energy:  -247.00561306656687
    Total Energy =                       -247.0056130665666956
  @DF-RHF Final Energy:  -247.00561574317973
    Total Energy =                       -247.0056157431796464
  Basis Set: 6-31G*
  Basis Set:
  @DF-RHF Final Energy:  -247.00563002992467
    Total Energy =                       -247.0056300299247596
  Basis Set: 6-31G*
  Basis Set:
  Basis Set: 6-31G*
  Basis Set:
  @DF-RHF Final Energy:  -247.00564067281297
    Total Energy =                       -247.0056406728130014
  Basis Set: 6-31G*
  Basis Set:
  Basis Set: 6-31G*
  Basis Set:
  @DF-RHF Final Energy:  -247.00564347654529
    Total Energy =                       -247.0056434765454014
  Basis Set: 6-31G*
  Basis Set:
  Charge       = 0
  Multiplicity = 1
  Basis Set: 6-31G*
  Basis Set:

    Orbital Energies (a.u.)
    -----------------------

    Doubly Occupied:

       1A    -20.514736     2A    -15.582267     3A    -11.342931
       4A    -11.254066     5A    -11.229933     6A     -1.383702
       7A     -1.228491     8A     -1.015498     9A     -0.932162
      10A     -0.787048    11A     -0.689270    12A     -0.648363
      13A     -0.632205    14A     -0.585888    15A     -0.579722
      16A     -0.554173    17A     -0.545136    18A     -0.505858
      19A     -0.412646    20A     -0.384642

  @DF-RHF Final Energy:  -247.00564400021057

   => Energetics <=

    Nuclear Repulsion Energy =            181.3258261356730259
    One-Electron Energy =                -695.0454693924135654
    Two-Electron Energy =                 266.7139992565299735
    DFT Exchange-Correlation Energy =       0.0000000000000000
    Empirical Dispersion Energy =           0.0000000000000000
    PCM Polarization Energy =               0.0000000000000000
    EFP Energy =                            0.0000000000000000
    Total Energy =                       -247.0056440002105091
    Molecular point group: c1
  Basis Set: 6-31G*
  Basis Set:

  -Total Gradient:
     Atom            X                  Y                   Z
    ------   -----------------  -----------------  -----------------
       1        0.000007088665     0.000011250184     0.000019710057
       2       -0.000035132285    -0.000125919033    -0.000350890852
       3       -0.000085925550    -0.000224055712     0.000209410099
       4        0.000017683620     0.000077647560     0.000170886233
       5        0.000074646127     0.000205483657    -0.000083384988
       6        0.000001225913     0.000000435500    -0.000008941578
       7        0.000003122066     0.000010278773     0.000003152954
       8       -0.000002478557     0.000014219562     0.000011644546
       9        0.000020978011     0.000039281387     0.000035966074
      10        0.000002520949    -0.000002879084     0.000032241685
      11       -0.000007539012    -0.000030805659    -0.000020533446
      12        0.000003810053     0.000025062867    -0.000019260787

  **** Optimization is complete! (in 18 steps) ****
    Final optimized geometry and variables:
    Molecular point group: c1

    Geometry (in Angstrom), charge = 0, multiplicity = 1:

    H            0.610326425657     1.293205009175    -0.973101231155
    N           -0.074487744009     0.800165766311    -0.448786580523
    C           -1.444113682744     1.258079227804    -0.512099764381
    C            0.290134985131    -0.345740246117     0.173665896624
    H           -1.903124138010     1.025145557923    -1.468096990929
    H           -1.482539053718     2.330384158773    -0.360423413039
    H           -2.004374358690     0.770999603088     0.269597547434
    C            1.755803142783    -0.707026527617     0.045817889964
    O           -0.484339516471    -1.042379456022     0.770325327883
    H            2.398102920230     0.166130757775     0.018534232758
    H            2.033193078189    -1.336231529600     0.879084722036
    H            1.904372968907    -1.268718801016    -0.871490568721

  Mulliken Charges: (a.u.)
   Center  Symbol    Alpha    Beta     Spin     Total
       1     H     0.31069  0.31069  0.00000  0.37862
       2     N     3.89246  3.89246  0.00000 -0.78492
       3     C     3.14140  3.14140  0.00000 -0.28280
       4     C     2.62956  2.62956  0.00000  0.74087
       5     H     0.41622  0.41622  0.00000  0.16755
       6     H     0.41653  0.41653  0.00000  0.16695
       7     H     0.38761  0.38761  0.00000  0.22479
       8     C     3.29277  3.29277  0.00000 -0.58553
       9     O     4.30323  4.30323  0.00000 -0.60645
      10     H     0.41478  0.41478  0.00000  0.17044
      11     H     0.39310  0.39310  0.00000  0.21380
      12     H     0.40166  0.40166  0.00000  0.19668

   Total alpha = 20.00000, Total beta = 20.00000, Total charge = -0.00000
