  ==> Input File <==

--------------------------------------------------------------------------
set {
	reference rhf
	basis 6-31G*
}

set_num_threads( 1 )
memory 2 gb

molecule MOL {
0 1

H	 -3.892951	 0.981613	 -0.358725
C	 -3.196921	 0.361773	 0.172313
C	 -2.076860	 -0.007332	 -0.404944
H	 -3.439953	 0.057760	 1.173024
O	 -2.051629	 -0.533388	 -1.657737
H	 -1.116421	 0.101443	 0.067200
C	 -0.857076	 -1.058832	 -2.125498
C	 -0.685193	 -2.505220	 -1.719649
H	 0.004332	 -0.503991	 -1.770782
H	 -0.879373	 -1.018109	 -3.204539
F	 0.449777	 -2.971518	 -2.219865
F	 -0.631219	 -2.642997	 -0.405140
F	 -1.666230	 -3.263676	 -2.163158

	symmetry c1
}
set optking {
	frozen_dihedral = ("
		11 8 7 9,
		3 5 7 9,
		6 3 5 7
	")
}

ee = energy('scf')
oeprop('DIPOLE', 'QUADRUPOLE', 'MULLIKEN_CHARGES')
f=open( 'psi4out.xyz', 'w' )
f.write( "13  " )
f.write( str(ee) + "\n" )
f.write( MOL.save_string_xyz() )
f.close()
--------------------------------------------------------------------------

    Molecular point group: c1

    Geometry (in Angstrom), charge = 0, multiplicity = 1:

       Center              X                  Y                   Z               Mass
    ------------   -----------------  -----------------  -----------------  -----------------
           H         -2.630479164909     2.696314535843     0.994468851293     1.007825032070
           C         -1.934449164909     2.076474535843     1.525506851293    12.000000000000
           C         -0.814388164909     1.707369535843     0.948249851293    12.000000000000
           H         -2.177481164909     1.772461535843     2.526217851293     1.007825032070
           O         -0.789157164909     1.181313535843    -0.304543148707    15.994914619560
           H          0.146050835091     1.816144535843     1.420393851293     1.007825032070
           C          0.405395835091     0.655869535843    -0.772304148707    12.000000000000
           C          0.577278835091    -0.790518464157    -0.366455148707    12.000000000000
           H          1.266803835091     1.210710535843    -0.417588148707     1.007825032070
           H          0.383098835091     0.696592535843    -1.851345148707     1.007825032070
           F          1.712248835091    -1.256816464157    -0.866671148707    18.998403224000
           F          0.631252835091    -0.928295464157     0.948053851293    18.998403224000
           F         -0.403758164909    -1.548974464157    -0.809964148707    18.998403224000

  Charge       = 0
  Multiplicity = 1
  Basis Set: 6-31G*
  Basis Set:

    Orbital Energies (a.u.)
    -----------------------

    Doubly Occupied:

       1A    -26.346307     2A    -26.344138     3A    -26.341512
       4A    -20.613260     5A    -11.505149     6A    -11.321250
       7A    -11.310270     8A    -11.205951     9A     -1.742793
      10A     -1.641028    11A     -1.639077    12A     -1.442634
      13A     -1.086009    14A     -1.016783    15A     -0.926521
      16A     -0.837829    17A     -0.831992    18A     -0.822975
      19A     -0.792952    20A     -0.722364    21A     -0.711997
      22A     -0.696378    23A     -0.676285    24A     -0.660734
      25A     -0.655433    26A     -0.644027    27A     -0.636792
      28A     -0.588531    29A     -0.574685    30A     -0.527251
      31A     -0.509047    32A     -0.315624

  @DF-RHF Final Energy:  -527.48032999274108

   => Energetics <=

    Nuclear Repulsion Energy =            413.4865666231831938
    One-Electron Energy =               -1550.5587566188969504
    Two-Electron Energy =                 609.5918600029735899
    DFT Exchange-Correlation Energy =       0.0000000000000000
    Empirical Dispersion Energy =           0.0000000000000000
    PCM Polarization Energy =               0.0000000000000000
    EFP Energy =                            0.0000000000000000
    Total Energy =                       -527.4803299927402804

  Mulliken Charges: (a.u.)
   Center  Symbol    Alpha    Beta     Spin     Total
       1     H     0.40504  0.40504  0.00000  0.18992
       2     C     3.25701  3.25701  0.00000 -0.51402
       3     C     2.88980  2.88980  0.00000  0.22039
       4     H     0.40153  0.40153  0.00000  0.19694
       5     O     4.29096  4.29096  0.00000 -0.58192
       6     H     0.40576  0.40576  0.00000  0.18847
       7     C     3.06621  3.06621  0.00000 -0.13243
       8     C     2.45413  2.45413  0.00000  1.09174
       9     H     0.40474  0.40474  0.00000  0.19052
      10     H     0.38913  0.38913  0.00000  0.22173
      11     F     4.68249  4.68249  0.00000 -0.36498
      12     F     4.67912  4.67912  0.00000 -0.35823
      13     F     4.67407  4.67407  0.00000 -0.34813

   Total alpha = 32.00000, Total beta = 32.00000, Total charge =  0.00000
