                              Psi4 1.0.54 Driver

  ==> Input File <==

--------------------------------------------------------------------------
set {
	reference rhf
	basis cc-pvtz
}

set_num_threads( 4 )
memory 2 gb

molecule MOL {
0 1

H	 2.614283	 2.028610	 0.296620
O	 3.358864	 1.662087	 -0.142800
C	 3.565468	 0.338079	 0.273842
C	 2.533667	 -0.637565	 -0.272227
H	 4.548038	 0.064914	 -0.086598
H	 3.593945	 0.282242	 1.360360
C	 1.153248	 -0.514671	 0.369015
H	 2.453053	 -0.490434	 -1.345079
H	 2.912866	 -1.645146	 -0.119297
C	 0.153572	 -1.531266	 -0.180547
H	 0.772275	 0.488699	 0.210547
H	 1.243026	 -0.648995	 1.445668
C	 -1.226311	 -1.502477	 0.479262
H	 0.042436	 -1.379507	 -1.251456
H	 0.571543	 -2.526710	 -0.058644
C	 -2.041467	 -0.237084	 0.218413
H	 -1.792881	 -2.357966	 0.121961
H	 -1.113718	 -1.642892	 1.551998
C	 -3.445965	 -0.298071	 0.813457
H	 -2.114805	 -0.073525	 -0.854591
H	 -1.527038	 0.628996	 0.623715
C	 -4.261261	 0.965245	 0.558084
H	 -3.972572	 -1.155208	 0.402873
H	 -3.374633	 -0.469900	 1.884181
H	 -4.378116	 1.147350	 -0.505128
H	 -5.252192	 0.887726	 0.990696
H	 -3.779598	 1.836371	 0.989933

	symmetry c1
}
set optking {
	frozen_dihedral = ("
		8 4 3 2
	")
}

ee,wfn = optimize('scf', return_wfn=True)
oeprop( wfn, 'DIPOLE', 'QUADRUPOLE', 'MULLIKEN_CHARGES')
f=open( 'psi4out.xyz', 'w' )
f.write( "27  " )
f.write( str(ee) + "\n" )
f.write( MOL.save_string_xyz() )
f.close()
--------------------------------------------------------------------------

    Molecular point group: c1
  Charge       = 0
  Multiplicity = 1
  Basis Set: CC-PVTZ
  Basis Set:
  @DF-RHF Final Energy:  -388.42753197526554
    Total Energy =                       -388.4275319752656515
    Molecular point group: c1
  Basis Set: CC-PVTZ
  Basis Set:
  Basis Set: CC-PVTZ
  Basis Set:
  @DF-RHF Final Energy:  -388.42756424523935
    Total Energy =                       -388.4275642452398642
  Basis Set: CC-PVTZ
  Basis Set:
  Basis Set: CC-PVTZ
  Basis Set:
  @DF-RHF Final Energy:  -388.42757744242999
    Total Energy =                       -388.4275774424299925
  Basis Set: CC-PVTZ
  Basis Set:
  Charge       = 0
  Multiplicity = 1
  Basis Set: CC-PVTZ
  Basis Set:

    Orbital Energies (a.u.)
    -----------------------

    Doubly Occupied:

       1A    -20.545374     2A    -11.264827     3A    -11.216944
       4A    -11.214694     5A    -11.214032     6A    -11.213311
       7A    -11.213078     8A    -11.212055     9A    -11.207437
      10A     -1.363103    11A     -1.096336    12A     -1.062723
      13A     -1.012571    14A     -0.949197    15A     -0.888405
      16A     -0.820827    17A     -0.802377    18A     -0.778568
      19A     -0.695542    20A     -0.653664    21A     -0.640436
      22A     -0.614816    23A     -0.601605    24A     -0.583094
      25A     -0.581180    26A     -0.553571    27A     -0.540246
      28A     -0.533673    29A     -0.505897    30A     -0.496949
      31A     -0.485355    32A     -0.474268    33A     -0.468561
      34A     -0.461492    35A     -0.453506    36A     -0.442350
      37A     -0.425670

  @DF-RHF Final Energy:  -388.42757780827878

   => Energetics <=

    Nuclear Repulsion Energy =            459.8439075430428602
    One-Electron Energy =               -1437.9675094289805202
    Two-Electron Energy =                 589.6960240776591036
    DFT Exchange-Correlation Energy =       0.0000000000000000
    Empirical Dispersion Energy =           0.0000000000000000
    PCM Polarization Energy =               0.0000000000000000
    EFP Energy =                            0.0000000000000000
    Total Energy =                       -388.4275778082785564
    Molecular point group: c1
  Basis Set: CC-PVTZ
  Basis Set:

  -Total Gradient:
     Atom            X                  Y                   Z
    ------   -----------------  -----------------  -----------------
       1        0.000004055658    -0.000001358239    -0.000001745449
       2        0.000728175673    -0.000238127461    -0.001042266648
       3       -0.001273687708     0.000502394127     0.001488026244
       4        0.001770108345    -0.001430573540    -0.000710247495
       5        0.000001705306    -0.000003865246     0.000000330603
       6       -0.000023614510     0.000024157239    -0.000034933722
       7        0.000035043128    -0.000067707939     0.000049636263
       8       -0.001193393790     0.001126821926     0.000219829501
       9       -0.000023245695     0.000060644835     0.000024842387
      10       -0.000032962975     0.000010404911    -0.000012807066
      11        0.000018667924     0.000012133148    -0.000008090081
      12       -0.000015731361    -0.000002393759     0.000048374442
      13        0.000009683946     0.000021138387    -0.000001901693
      14       -0.000001059820    -0.000003425347    -0.000008786001
      15       -0.000012828735    -0.000002447656     0.000005263494
      16       -0.000007417252    -0.000002727621     0.000000721004
      17        0.000008415451     0.000002637200     0.000004214469
      18        0.000013037329     0.000007713726    -0.000010892678
      19       -0.000002801910    -0.000004051703    -0.000010581888
      20        0.000003889554     0.000002686545    -0.000000744221
      21       -0.000008275279    -0.000016216351     0.000001718653
      22        0.000000697794     0.000001313815     0.000001706883
      23       -0.000000066721     0.000006420194     0.000003441577
      24       -0.000000479266     0.000002263548    -0.000009698379
      25        0.000001814741    -0.000003302858     0.000008033502
      26        0.000002338808     0.000001053041     0.000000136187
      27       -0.000002068636    -0.000005584923    -0.000003579890

  **** Optimization is complete! (in 4 steps) ****
    Final optimized geometry and variables:
    Molecular point group: c1

    Geometry (in Angstrom), charge = 0, multiplicity = 1:

    H            2.556525208961     2.169570690503     0.029302337197
    O            3.311363178403     1.810874371645    -0.398942138083
    C            3.543492788001     0.498295154604     0.040453937862
    C            2.526284645167    -0.502032997280    -0.488913118785
    H            4.528638462066     0.239615704671    -0.323718546126
    H            3.581324185770     0.459648991496     1.127156354500
    C            1.139865520185    -0.371473047027     0.139659731287
    H            2.447109350239    -0.367256155066    -1.563223656308
    H            2.907606644115    -1.504558693106    -0.314386297726
    C            0.139203624948    -1.382460234773    -0.417989262716
    H            0.765283554872     0.634537160500    -0.021724860155
    H            1.219412773905    -0.504156279594     1.216909911996
    C           -1.242276302241    -1.354969930968     0.238380179629
    H            0.031235196171    -1.225075226947    -1.488383676980
    H            0.555147951228    -2.379290762212    -0.300310317310
    C           -2.051987770697    -0.084030441006    -0.011935985082
    H           -1.811119388670    -2.204635121755    -0.128881152147
    H           -1.133095894645    -1.506385829552     1.309889988299
    C           -3.459372805341    -0.146730020994     0.575877953910
    H           -2.119843110279     0.091844117730    -1.083323937506
    H           -1.536489653858     0.775529786881     0.405653972749
    C           -4.268521941714     1.122848767843     0.332706429055
    H           -3.987455286435    -0.996538950813     0.152281531026
    H           -3.393566121003    -0.332148804124     1.644619415873
    H           -4.380354444258     1.318356105327    -0.728625152156
    H           -5.261462569190     1.044143233510     0.760343860502
    H           -3.785133933761     1.986650807997     0.777079324510

  Mulliken Charges: (a.u.)
   Center  Symbol    Alpha    Beta     Spin     Total
       1     H     0.39296  0.39296  0.00000  0.21408
       2     O     4.20507  4.20507  0.00000 -0.41014
       3     C     2.97833  2.97833  0.00000  0.04333
       4     C     3.09182  3.09182  0.00000 -0.18365
       5     H     0.44848  0.44848  0.00000  0.10305
       6     H     0.47037  0.47037  0.00000  0.05927
       7     C     3.09901  3.09901  0.00000 -0.19801
       8     H     0.45021  0.45021  0.00000  0.09957
       9     H     0.45450  0.45450  0.00000  0.09099
      10     C     3.09857  3.09857  0.00000 -0.19713
      11     H     0.45898  0.45898  0.00000  0.08203
      12     H     0.45387  0.45387  0.00000  0.09226
      13     C     3.09795  3.09795  0.00000 -0.19590
      14     H     0.45161  0.45161  0.00000  0.09678
      15     H     0.44794  0.44794  0.00000  0.10411
      16     C     3.08801  3.08801  0.00000 -0.17603
      17     H     0.44797  0.44797  0.00000  0.10407
      18     H     0.45374  0.45374  0.00000  0.09252
      19     C     3.08402  3.08402  0.00000 -0.16804
      20     H     0.45413  0.45413  0.00000  0.09173
      21     H     0.45553  0.45553  0.00000  0.08894
      22     C     3.14964  3.14964  0.00000 -0.29927
      23     H     0.45370  0.45370  0.00000  0.09260
      24     H     0.45464  0.45464  0.00000  0.09072
      25     H     0.45487  0.45487  0.00000  0.09026
      26     H     0.44824  0.44824  0.00000  0.10352
      27     H     0.45583  0.45583  0.00000  0.08834

   Total alpha = 37.00000, Total beta = 37.00000, Total charge =  0.00000

*** Psi4 exiting successfully. Buy a developer a beer!
