  ==> Input File <==

--------------------------------------------------------------------------
set {
	reference rhf
	basis 6-31G*
}

set_num_threads( 4 )
memory 2 gb

molecule MOL {
0 1

H	 -0.824610	 -2.511196	 -0.190987
N	 -0.095492	 -1.835008	 -0.311965
C	 -0.563778	 -0.502042	 0.037919
H	 0.175208	 -1.870362	 -1.276448
C	 0.575259	 0.508231	 -0.048326
H	 -0.932543	 -0.538620	 1.058639
H	 -1.396151	 -0.161633	 -0.583388
C	 1.954651	 -0.143624	 0.035137
H	 0.475158	 1.060484	 -0.977307
H	 0.469181	 1.234488	 0.755973
H	 2.103292	 -0.853109	 -0.774172
H	 2.742821	 0.599562	 -0.030094
H	 2.083613	 -0.679371	 0.971560

	symmetry c1
}
set optking {
	frozen_dihedral = ("
		6 3 5 9
	")
}

ee = optimize('scf')
oeprop('DIPOLE', 'QUADRUPOLE', 'MULLIKEN_CHARGES')
f=open( 'psi4out.xyz', 'w' )
f.write( "13  " )
f.write( str(ee) + "\n" )
f.write( MOL.save_string_xyz() )
f.close()
--------------------------------------------------------------------------

    Molecular point group: c1
  Charge       = 0
  Multiplicity = 1
  Basis Set: 6-31G*
  Basis Set:
  @DF-RHF Final Energy:  -173.27373464560529
    Total Energy =                       -173.2737346456053729
    Molecular point group: c1
  Basis Set: 6-31G*
  Basis Set:
  Basis Set: 6-31G*
  Basis Set:
  @DF-RHF Final Energy:  -173.27479613729582
    Total Energy =                       -173.2747961372958798
  Basis Set: 6-31G*
  Basis Set:
  Basis Set: 6-31G*
  Basis Set:
  @DF-RHF Final Energy:  -173.27617783950947
    Total Energy =                       -173.2761778395093870
  Basis Set: 6-31G*
  Basis Set:
  Basis Set: 6-31G*
  Basis Set:
  @DF-RHF Final Energy:  -173.27627767461922
    Total Energy =                       -173.2762776746191946
  Basis Set: 6-31G*
  Basis Set:
  Basis Set: 6-31G*
  Basis Set:
  @DF-RHF Final Energy:  -173.27628504883225
    Total Energy =                       -173.2762850488322215
  Basis Set: 6-31G*
  Basis Set:
  Charge       = 0
  Multiplicity = 1
  Basis Set: 6-31G*
  Basis Set:

    Orbital Energies (a.u.)
    -----------------------

    Doubly Occupied:

       1A    -15.533888     2A    -11.241009     3A    -11.212365
       4A    -11.199439     5A     -1.177252     6A     -1.025951
       7A     -0.904779     8A     -0.786940     9A     -0.666888
      10A     -0.625717    11A     -0.598037    12A     -0.558453
      13A     -0.532591    14A     -0.492198    15A     -0.470411
      16A     -0.459342    17A     -0.379819

  @DF-RHF Final Energy:  -173.27628546501569

   => Energetics <=

    Nuclear Repulsion Energy =            133.8127357169036600
    One-Electron Energy =                -498.4478877027677299
    Two-Electron Energy =                 191.3588665208483803
    DFT Exchange-Correlation Energy =       0.0000000000000000
    Empirical Dispersion Energy =           0.0000000000000000
    PCM Polarization Energy =               0.0000000000000000
    EFP Energy =                            0.0000000000000000
    Total Energy =                       -173.2762854650156896
    Molecular point group: c1
  Basis Set: 6-31G*
  Basis Set:

  -Total Gradient:
     Atom            X                  Y                   Z
    ------   -----------------  -----------------  -----------------
       1        0.000000498660     0.000028246426     0.000009101794
       2        0.000020037332    -0.000014161751    -0.000013371796
       3        0.004354604584    -0.004675724330     0.002336547004
       4       -0.000003219631     0.000004442373     0.000006959810
       5        0.003405313119    -0.004361180425    -0.004093531167
       6       -0.004245766300     0.004619996923    -0.001292230892
       7        0.000018625347     0.000010688062     0.000010360771
       8        0.000000789780    -0.000008976155     0.000031278659
       9       -0.003533051337     0.004418508889     0.003030454468
      10       -0.000015687724    -0.000022516760    -0.000004289927
      11        0.000001392983    -0.000010204714    -0.000003205727
      12       -0.000009700217     0.000005012004    -0.000014684814
      13        0.000006163403     0.000005869458    -0.000003388184

  **** Optimization is complete! (in 6 steps) ****
    Final optimized geometry and variables:
    Molecular point group: c1

    Geometry (in Angstrom), charge = 0, multiplicity = 1:

    H           -1.394443957696    -1.978285309729    -0.091127192281
    N           -0.637640018395    -1.344718659578    -0.262151324933
    C           -1.008210203074     0.002334918545     0.142998709366
    H           -0.451488203414    -1.378294847528    -1.246612810736
    C            0.142943020679     1.019281297868     0.015719003642
    H           -1.352256153011    -0.025939443815     1.171630820884
    H           -1.859389250246     0.388689492275    -0.422901421977
    C            1.549688334457     0.442640437207     0.157314893866
    H            0.040925309704     1.577574357669    -0.912167736954
    H           -0.002953352508     1.768803608111     0.790795910040
    H            1.786468972271    -0.251648022245    -0.639775956411
    H            2.285049172227     1.241639368707     0.135894067005
    H            1.658395818254    -0.093200258500     1.093740543842

  Mulliken Charges: (a.u.)
   Center  Symbol    Alpha    Beta     Spin     Total
       1     H     0.33153  0.33153  0.00000  0.33695
       2     N     3.92039  3.92039  0.00000 -0.84077
       3     C     3.06102  3.06102  0.00000 -0.12205
       4     H     0.33497  0.33497  0.00000  0.33005
       5     C     3.16525  3.16525  0.00000 -0.33049
       6     H     0.42002  0.42002  0.00000  0.15997
       7     H     0.43313  0.43313  0.00000  0.13374
       8     C     3.22749  3.22749  0.00000 -0.45499
       9     H     0.42361  0.42361  0.00000  0.15278
      10     H     0.42107  0.42107  0.00000  0.15786
      11     H     0.41981  0.41981  0.00000  0.16037
      12     H     0.42527  0.42527  0.00000  0.14947
      13     H     0.41644  0.41644  0.00000  0.16712

   Total alpha = 17.00000, Total beta = 17.00000, Total charge =  0.00000
