  ==> Input File <==

--------------------------------------------------------------------------
set {
	reference rhf
	basis 6-31G*
}

set_num_threads( 4 )
memory 2 gb

molecule MOL {
0 1

O	 3.225979	 0.970355	 -0.599647
C	 2.701189	 0.057885	 -0.047330
C	 1.245376	 -0.013843	 0.345420
O	 3.347903	 -1.046386	 0.304773
C	 0.455112	 1.231400	 -0.050772
H	 0.838542	 -0.913825	 -0.103701
H	 1.208210	 -0.175333	 1.419774
C	 -0.998893	 1.219485	 0.433193
H	 0.482531	 1.345121	 -1.130325
H	 0.957290	 2.103070	 0.354729
C	 -1.883438	 0.145884	 -0.207175
H	 -1.431207	 2.195402	 0.224832
H	 -1.019646	 1.105716	 1.516076
C	 -3.347647	 0.245583	 0.225435
H	 -1.822183	 0.231698	 -1.291012
H	 -1.510341	 -0.844814	 0.042401
C	 -4.239992	 -0.825570	 -0.404234
H	 -3.732888	 1.230466	 -0.033079
H	 -3.408585	 0.170602	 1.310038
C	 -4.682161	 -1.896381	 0.592536
H	 -5.118247	 -0.352534	 -0.838455
H	 -3.709315	 -1.297629	 -1.228445
H	 -5.312904	 -2.640903	 0.116662
H	 -5.246333	 -1.460088	 1.412020
H	 -3.826467	 -2.411973	 1.019417
C	 4.728119	 -1.109107	 -0.004993
H	 4.882018	 -1.033965	 -1.071845
H	 5.068212	 -2.067527	 0.355250
H	 5.265056	 -0.311663	 0.488280

	symmetry c1
}
set optking {
	frozen_dihedral = ("
		21 17 14 11
	")
}

ee = optimize('scf')
oeprop('DIPOLE', 'QUADRUPOLE', 'MULLIKEN_CHARGES')
f=open( 'psi4out.xyz', 'w' )
f.write( "29  " )
f.write( str(ee) + "\n" )
f.write( MOL.save_string_xyz() )
f.close()
--------------------------------------------------------------------------

    Molecular point group: c1
  Charge       = 0
  Multiplicity = 1
  Basis Set: 6-31G*
  Basis Set:
  @DF-RHF Final Energy:  -501.03869066676384
    Total Energy =                       -501.0386906667636140
    Molecular point group: c1
  Basis Set: 6-31G*
  Basis Set:
  Basis Set: 6-31G*
  Basis Set:
  @DF-RHF Final Energy:  -501.03893873769584
    Total Energy =                       -501.0389387376964123
  Basis Set: 6-31G*
  Basis Set:
  Basis Set: 6-31G*
  Basis Set:
  @DF-RHF Final Energy:  -501.03902147910901
    Total Energy =                       -501.0390214791090102
  Basis Set: 6-31G*
  Basis Set:
  Basis Set: 6-31G*
  Basis Set:
  @DF-RHF Final Energy:  -501.03901102667533
    Total Energy =                       -501.0390110266762349
  Basis Set: 6-31G*
  Basis Set:
  Basis Set: 6-31G*
  Basis Set:
  @DF-RHF Final Energy:  -501.03902609353383
    Total Energy =                       -501.0390260935333799
  Basis Set: 6-31G*
  Basis Set:
  Charge       = 0
  Multiplicity = 1
  Basis Set: 6-31G*
  Basis Set:

    Orbital Energies (a.u.)
    -----------------------

    Doubly Occupied:

       1A    -20.603385     2A    -20.545207     3A    -11.372022
       4A    -11.280672     5A    -11.234764     6A    -11.219162
       7A    -11.217513     8A    -11.216344     9A    -11.215511
      10A    -11.214190    11A    -11.209789    12A     -1.469081
      13A     -1.362522    14A     -1.097577    15A     -1.065303
      16A     -1.018719    17A     -0.976851    18A     -0.928252
      19A     -0.863921    20A     -0.800930    21A     -0.788467
      22A     -0.763946    23A     -0.700751    24A     -0.682374
      25A     -0.672040    26A     -0.644530    27A     -0.625824
      28A     -0.609126    29A     -0.595415    30A     -0.586169
      31A     -0.562077    32A     -0.553072    33A     -0.532516
      34A     -0.528642    35A     -0.518143    36A     -0.507451
      37A     -0.499709    38A     -0.475363    39A     -0.473325
      40A     -0.462713    41A     -0.455989    42A     -0.452432
      43A     -0.440529    44A     -0.435088

  @DF-RHF Final Energy:  -501.03902602238713

   => Energetics <=

    Nuclear Repulsion Energy =            613.6022814236198428
    One-Electron Energy =               -1898.3278069238413082
    Two-Electron Energy =                 783.6864994778342179
    DFT Exchange-Correlation Energy =       0.0000000000000000
    Empirical Dispersion Energy =           0.0000000000000000
    PCM Polarization Energy =               0.0000000000000000
    EFP Energy =                            0.0000000000000000
    Total Energy =                       -501.0390260223872474
    Molecular point group: c1
  Basis Set: 6-31G*
  Basis Set:

  -Total Gradient:
     Atom            X                  Y                   Z
    ------   -----------------  -----------------  -----------------
       1       -0.000004097381    -0.000016593806    -0.000017974185
       2        0.000016908179     0.000009087832     0.000048176206
       3       -0.000020929245    -0.000004451653    -0.000037372956
       4        0.000003183981    -0.000004927453    -0.000020180551
       5        0.000050224701     0.000061468034     0.000086116952
       6       -0.000038866477    -0.000025851812    -0.000002688153
       7        0.000007251495     0.000010905500    -0.000010630551
       8        0.000035536693     0.000034348343    -0.000010605802
       9       -0.000000859836     0.000025841818     0.000007047989
      10        0.000047019235    -0.000024848931     0.000006171785
      11       -0.000389706030     0.001032678396    -0.001365607054
      12       -0.000000810787    -0.000030734382    -0.000024896366
      13       -0.000012455626     0.000049902712    -0.000001283684
      14        0.000694473748    -0.001613510356     0.001311063198
      15       -0.000071205775    -0.000004227157     0.000009122745
      16        0.000000410310     0.000030115417     0.000007908610
      17       -0.001434014116     0.000195081789     0.002271311207
      18       -0.000025567576     0.000023850701    -0.000049068369
      19        0.000008281195    -0.000072271270    -0.000014513681
      20        0.000022882965     0.000073488597    -0.000117372262
      21        0.001093485978     0.000279704416    -0.002041295135
      22        0.000030043728    -0.000062524524     0.000028101181
      23       -0.000017878936    -0.000040364854     0.000017032038
      24        0.000011075645     0.000018674371    -0.000055351753
      25       -0.000005719036     0.000056223506    -0.000024022780
      26        0.000000615635    -0.000000375774     0.000002118310
      27        0.000000311180    -0.000000041365    -0.000000429184
      28        0.000000845044    -0.000000428210    -0.000000647397
      29       -0.000000438911    -0.000000219885    -0.000000230357

  **** Optimization is complete! (in 6 steps) ****
    Final optimized geometry and variables:
    Molecular point group: c1

    Geometry (in Angstrom), charge = 0, multiplicity = 1:

    O            3.133184143925     1.085692141275    -0.637668009087
    C            2.602720032695     0.168323418062    -0.099055395896
    C            1.145512580754     0.098064672643     0.288765487094
    O            3.243317937468    -0.943705472913     0.239540337988
    C            0.361916653163     1.352068931572    -0.092819593017
    H            0.735763728786    -0.793934295571    -0.173464129369
    H            1.104632743992    -0.077632459088     1.360748802600
    C           -1.094162029403     1.338916030847     0.385220951252
    H            0.393980836306     1.480764787467    -1.170556013296
    H            0.866133789200     2.215875528812     0.326713304405
    C           -1.977810905270     0.271225574529    -0.265229783460
    H           -1.524437304456     2.316827302523     0.181451376805
    H           -1.119509041084     1.218483942820     1.467301975689
    C           -3.446203840325     0.374135821328     0.156433228949
    H           -1.912914718355     0.361435381806    -1.348202653284
    H           -1.608604907946    -0.722269009490    -0.018958077256
    C           -4.340904709128    -0.725349734238    -0.455097899255
    H           -3.817921349901     1.354207015047    -0.132102277006
    H           -3.511888429128     0.338963153776     1.241746381854
    C           -4.766426956109    -1.796254811154     0.548760593793
    H           -5.221584526870    -0.278804974926    -0.907834909724
    H           -3.810026547108    -1.204441725941    -1.274673810722
    H           -5.358775931840    -2.571741240330     0.072622172102
    H           -5.362749019919    -1.367079430518     1.348733248735
    H           -3.901365223477    -2.272536445620     1.002442976927
    C            4.624049214756    -1.008705434159    -0.067473342437
    H            4.781137289702    -0.919706489187    -1.132798152021
    H            4.958664998491    -1.973557552368     0.280501427718
    H            5.163395354819    -0.220630703317     0.438074782618

  Mulliken Charges: (a.u.)
   Center  Symbol    Alpha    Beta     Spin     Total
       1     O     4.28596  4.28596  0.00000 -0.57192
       2     C     2.60483  2.60483  0.00000  0.79034
       3     C     3.20975  3.20975  0.00000 -0.41950
       4     O     4.30746  4.30746  0.00000 -0.61492
       5     C     3.15365  3.15365  0.00000 -0.30731
       6     H     0.39883  0.39883  0.00000  0.20234
       7     H     0.40125  0.40125  0.00000  0.19750
       8     C     3.15728  3.15728  0.00000 -0.31456
       9     H     0.41308  0.41308  0.00000  0.17384
      10     H     0.40876  0.40876  0.00000  0.18247
      11     C     3.15669  3.15669  0.00000 -0.31338
      12     H     0.41826  0.41826  0.00000  0.16347
      13     H     0.42373  0.42373  0.00000  0.15253
      14     C     3.15451  3.15451  0.00000 -0.30902
      15     H     0.42194  0.42194  0.00000  0.15612
      16     H     0.42364  0.42364  0.00000  0.15273
      17     C     3.15559  3.15559  0.00000 -0.31119
      18     H     0.42062  0.42062  0.00000  0.15877
      19     H     0.42123  0.42123  0.00000  0.15753
      20     C     3.23949  3.23949  0.00000 -0.47898
      21     H     0.41960  0.41960  0.00000  0.16080
      22     H     0.42096  0.42096  0.00000  0.15808
      23     H     0.42005  0.42005  0.00000  0.15989
      24     H     0.42117  0.42117  0.00000  0.15767
      25     H     0.42253  0.42253  0.00000  0.15493
      26     C     3.09241  3.09241  0.00000 -0.18481
      27     H     0.40908  0.40908  0.00000  0.18184
      28     H     0.40851  0.40851  0.00000  0.18298
      29     H     0.40912  0.40912  0.00000  0.18176

   Total alpha = 44.00000, Total beta = 44.00000, Total charge =  0.00000
