                              Psi4 1.0.54 Driver

  ==> Input File <==

--------------------------------------------------------------------------
set {
	reference rhf
	basis cc-pvtz
}

set_num_threads( 4 )
memory 2 gb

molecule MOL {
0 1

H	 3.083630	 -1.378543	 -0.000000
O	 2.178976	 -1.633547	 -0.000000
C	 1.366921	 -0.558357	 -0.000000
C	 1.856050	 0.739115	 -0.000000
C	 0.005230	 -0.781558	 0.000000
H	 2.917100	 0.911169	 -0.000000
C	 0.983912	 1.808849	 -0.000000
H	 -0.375651	 -1.782444	 0.000000
C	 -0.861733	 0.296283	 0.000000
H	 1.373811	 2.808250	 -0.000000
C	 -0.379656	 1.594137	 0.000000
C	 -2.330718	 0.069431	 0.000000
H	 -1.060281	 2.423979	 0.000000
O	 -2.848650	 -0.994132	 -0.000000
H	 -2.934335	 0.982254	 -0.000000

	symmetry c1
}
ee,wfn = energy('scf', return_wfn=True)
oeprop( wfn, 'DIPOLE', 'QUADRUPOLE', 'MULLIKEN_CHARGES')
oeprop( wfn, 'GRID_ESP')
f=open( 'psi4out.xyz', 'w' )
f.write( "15  " )
f.write( str(ee) + "\n" )
f.write( MOL.save_string_xyz() )
f.close()
--------------------------------------------------------------------------

    Molecular point group: c1

    Geometry (in Angstrom), charge = 0, multiplicity = 1:

       Center              X                  Y                   Z               Mass
    ------------   -----------------  -----------------  -----------------  -----------------
           H          3.083658875824    -1.378387205805     0.000000000000     1.007825032070
           O          2.179004875824    -1.633391205805     0.000000000000    15.994914619560
           C          1.366949875824    -0.558201205805     0.000000000000    12.000000000000
           C          1.856078875824     0.739270794195     0.000000000000    12.000000000000
           C          0.005258875824    -0.781402205805     0.000000000000    12.000000000000
           H          2.917128875824     0.911324794195     0.000000000000     1.007825032070
           C          0.983940875824     1.809004794195     0.000000000000    12.000000000000
           H         -0.375622124176    -1.782288205805     0.000000000000     1.007825032070
           C         -0.861704124176     0.296438794195     0.000000000000    12.000000000000
           H          1.373839875824     2.808405794195     0.000000000000     1.007825032070
           C         -0.379627124176     1.594292794195     0.000000000000    12.000000000000
           C         -2.330689124176     0.069586794195     0.000000000000    12.000000000000
           H         -1.060252124176     2.424134794195     0.000000000000     1.007825032070
           O         -2.848621124176    -0.993976205805     0.000000000000    15.994914619560
           H         -2.934306124176     0.982409794195     0.000000000000     1.007825032070

  Charge       = 0
  Multiplicity = 1
  Basis Set: CC-PVTZ
  Basis Set:

    Orbital Energies (a.u.)
    -----------------------

    Doubly Occupied:

       1A    -20.595736     2A    -20.554363     3A    -11.327453
       4A    -11.311848     5A    -11.251052     6A    -11.250672
       7A    -11.247750     8A    -11.243155     9A    -11.237356
      10A     -1.427442    11A     -1.410048    12A     -1.174342
      13A     -1.052157    14A     -1.031000    15A     -0.902845
      16A     -0.850281    17A     -0.816969    18A     -0.740342
      19A     -0.706305    20A     -0.690049    21A     -0.644533
      22A     -0.640525    23A     -0.614505    24A     -0.608784
      25A     -0.579698    26A     -0.556895    27A     -0.546004
      28A     -0.516404    29A     -0.492702    30A     -0.426841
      31A     -0.358356    32A     -0.330911

  @DF-RHF Final Energy:  -418.43890713928397

   => Energetics <=

    Nuclear Repulsion Energy =            404.1054450167054028
    One-Electron Energy =               -1370.8140184459730335
    Two-Electron Energy =                 548.2696662899834337
    DFT Exchange-Correlation Energy =       0.0000000000000000
    Empirical Dispersion Energy =           0.0000000000000000
    PCM Polarization Energy =               0.0000000000000000
    EFP Energy =                            0.0000000000000000
    Total Energy =                       -418.4389071392841970

  Mulliken Charges: (a.u.)
   Center  Symbol    Alpha    Beta     Spin     Total
       1     H     0.38738  0.38738  0.00000  0.22524
       2     O     4.16969  4.16969  0.00000 -0.33938
       3     C     2.84173  2.84173  0.00000  0.31654
       4     C     3.12653  3.12653  0.00000 -0.25307
       5     C     3.11851  3.11851  0.00000 -0.23703
       6     H     0.43115  0.43115  0.00000  0.13770
       7     C     3.06289  3.06289  0.00000 -0.12579
       8     H     0.40489  0.40489  0.00000  0.19022
       9     C     2.97068  2.97068  0.00000  0.05863
      10     H     0.41938  0.41938  0.00000  0.16124
      11     C     3.10951  3.10951  0.00000 -0.21903
      12     C     2.90909  2.90909  0.00000  0.18182
      13     H     0.42327  0.42327  0.00000  0.15346
      14     O     4.16888  4.16888  0.00000 -0.33777
      15     H     0.45639  0.45639  0.00000  0.08721

   Total alpha = 32.00000, Total beta = 32.00000, Total charge = -0.00000

*** Psi4 exiting successfully. Buy a developer a beer!
