  ==> Input File <==

--------------------------------------------------------------------------
set {
	reference rhf
	basis 6-31G*
}

set_num_threads( 4 )
memory 2 gb

molecule MOL {
0 1

H	 3.998216	 4.862087	 -0.842634
C	 3.450893	 3.951800	 -0.673526
C	 2.078972	 3.996607	 -0.476104
C	 4.119355	 2.737840	 -0.653677
H	 1.561773	 4.938746	 -0.491742
C	 1.375910	 2.825739	 -0.258724
H	 5.182864	 2.705067	 -0.806907
C	 3.417641	 1.564512	 -0.436255
H	 0.314067	 2.841386	 -0.104072
C	 2.042594	 1.606056	 -0.238057
H	 3.930861	 0.622883	 -0.420081
C	 1.239129	 0.373821	 0.000060
O	 1.970282	 -0.730723	 0.000018
O	 0.060696	 0.370879	 0.173681
C	 3.377318	 -0.566646	 -0.000065
H	 3.695437	 -0.028981	 -0.881264
H	 3.789299	 -1.563704	 0.000236
H	 3.695516	 -0.028316	 0.880770

	symmetry c1
}
set optking {
	frozen_dihedral = ("
		10 12 13 15
	")
}

ee = optimize('scf')
oeprop('DIPOLE', 'QUADRUPOLE', 'MULLIKEN_CHARGES')
f=open( 'psi4out.xyz', 'w' )
f.write( "18  " )
f.write( str(ee) + "\n" )
f.write( MOL.save_string_xyz() )
f.close()
--------------------------------------------------------------------------

    Molecular point group: c1
  Charge       = 0
  Multiplicity = 1
  Basis Set: 6-31G*
  Basis Set:
  @DF-RHF Final Energy:  -457.11084937779543
    Total Energy =                       -457.1108493777946933
    Molecular point group: c1
  Basis Set: 6-31G*
  Basis Set:
  Basis Set: 6-31G*
  Basis Set:
  @DF-RHF Final Energy:  -457.23445174149344
    Total Energy =                       -457.2344517414935581
  Basis Set: 6-31G*
  Basis Set:
  Basis Set: 6-31G*
  Basis Set:
  @DF-RHF Final Energy:  -457.28408966832762
    Total Energy =                       -457.2840896683279652
  Basis Set: 6-31G*
  Basis Set:
  Basis Set: 6-31G*
  Basis Set:
  @DF-RHF Final Energy:  -457.30823063407809
    Total Energy =                       -457.3082306340784271
  Basis Set: 6-31G*
  Basis Set:
  @DF-RHF Final Energy:  -457.31725040250956
    Total Energy =                       -457.3172504025096714
  @DF-RHF Final Energy:  -457.31942545254640
    Total Energy =                       -457.3194254525462839
  @DF-RHF Final Energy:  -457.32105510396724
    Total Energy =                       -457.3210551039674101
  @DF-RHF Final Energy:  -457.32223585427988
    Total Energy =                       -457.3222358542799384
  @DF-RHF Final Energy:  -457.32295433828159
    Total Energy =                       -457.3229543382815336
  @DF-RHF Final Energy:  -457.32359420393595
    Total Energy =                       -457.3235942039360680
  @DF-RHF Final Energy:  -457.32498745847744
    Total Energy =                       -457.3249874584771533
  @DF-RHF Final Energy:  -457.32576810651318
    Total Energy =                       -457.3257681065138058
  @DF-RHF Final Energy:  -457.32682857710512
    Total Energy =                       -457.3268285771051751
  @DF-RHF Final Energy:  -457.32708171267427
    Total Energy =                       -457.3270817126746124
  @DF-RHF Final Energy:  -457.32712789314934
    Total Energy =                       -457.3271278931496227
  @DF-RHF Final Energy:  -457.32716836297539
    Total Energy =                       -457.3271683629754989
  @DF-RHF Final Energy:  -457.32718947737533
    Total Energy =                       -457.3271894773754411
  @DF-RHF Final Energy:  -457.32720815144921
    Total Energy =                       -457.3272081514498950
  @DF-RHF Final Energy:  -457.32723499253450
    Total Energy =                       -457.3272349925346134
  @DF-RHF Final Energy:  -457.32731495035597
    Total Energy =                       -457.3273149503561399
  @DF-RHF Final Energy:  -457.32737795951914
    Total Energy =                       -457.3273779595192536
  @DF-RHF Final Energy:  -457.32745317012115
    Total Energy =                       -457.3274531701213164
  @DF-RHF Final Energy:  -457.32746548289282
    Total Energy =                       -457.3274654828924213
  @DF-RHF Final Energy:  -457.32751600819250
    Total Energy =                       -457.3275160081923332
  @DF-RHF Final Energy:  -457.32753117335409
    Total Energy =                       -457.3275311733536910
  @DF-RHF Final Energy:  -457.32754357869572
    Total Energy =                       -457.3275435786960088
  @DF-RHF Final Energy:  -457.32755217310171
    Total Energy =                       -457.3275521731018216
  @DF-RHF Final Energy:  -457.32755806975445
    Total Energy =                       -457.3275580697546729
  @DF-RHF Final Energy:  -457.32756242818533
    Total Energy =                       -457.3275624281856153
  @DF-RHF Final Energy:  -457.32757194999544
    Total Energy =                       -457.3275719499952174
  Basis Set: 6-31G*
  Basis Set:
  @DF-RHF Final Energy:  -457.32757885920370
    Total Energy =                       -457.3275788592042090
  Basis Set: 6-31G*
  Basis Set:
  Basis Set: 6-31G*
  Basis Set:
  @DF-RHF Final Energy:  -457.32758353767974
    Total Energy =                       -457.3275835376796294
  Basis Set: 6-31G*
  Basis Set:
  Basis Set: 6-31G*
  Basis Set:
  @DF-RHF Final Energy:  -457.32758617263937
    Total Energy =                       -457.3275861726390303
  Basis Set: 6-31G*
  Basis Set:
  Charge       = 0
  Multiplicity = 1
  Basis Set: 6-31G*
  Basis Set:

    Orbital Energies (a.u.)
    -----------------------

    Doubly Occupied:

       1A    -20.604085     2A    -20.540391     3A    -11.379845
       4A    -11.293907     5A    -11.257546     6A    -11.254816
       7A    -11.250004     8A    -11.249546     9A    -11.247478
      10A    -11.245347    11A     -1.464634    12A     -1.365374
      13A     -1.173370    14A     -1.047583    15A     -1.033596
      16A     -0.987606    17A     -0.876042    18A     -0.845998
      19A     -0.785471    20A     -0.737369    21A     -0.690870
      22A     -0.677585    23A     -0.673415    24A     -0.639922
      25A     -0.630022    26A     -0.604583    27A     -0.596734
      28A     -0.564760    29A     -0.540025    30A     -0.517846
      31A     -0.512820    32A     -0.503285    33A     -0.448364
      34A     -0.438718    35A     -0.351463    36A     -0.348813

  @DF-RHF Final Energy:  -457.32758656116795

   => Energetics <=

    Nuclear Repulsion Energy =            497.8234181196934856
    One-Electron Energy =               -1609.5435439400066571
    Two-Electron Energy =                 654.3925392591452237
    DFT Exchange-Correlation Energy =       0.0000000000000000
    Empirical Dispersion Energy =           0.0000000000000000
    PCM Polarization Energy =               0.0000000000000000
    EFP Energy =                            0.0000000000000000
    Total Energy =                       -457.3275865611678910
    Molecular point group: c1
  Basis Set: 6-31G*
  Basis Set:

  -Total Gradient:
     Atom            X                  Y                   Z
    ------   -----------------  -----------------  -----------------
       1       -0.000000287252     0.000000097231    -0.000000923033
       2        0.000003144864    -0.000001559710     0.000001185073
       3       -0.000002609703    -0.000001120606     0.000001315421
       4        0.000000237703     0.000002234630     0.000000416625
       5        0.000000482161     0.000000556403     0.000000093204
       6       -0.000003933209     0.000009611185    -0.000002727810
       7       -0.000000179014     0.000000201232    -0.000000287237
       8       -0.000010920670    -0.000008758159     0.000006534296
       9        0.000001444620    -0.000001280013    -0.000000398185
      10       -0.000598156037     0.000279786121     0.001529845732
      11        0.000006127346     0.000002327421     0.000011530211
      12        0.001504558223    -0.000532992087    -0.003385360885
      13       -0.001851154323     0.000401041123     0.003464096198
      14       -0.000002857160    -0.000001150528     0.000003982735
      15        0.000964079050    -0.000147269823    -0.001639096846
      16       -0.000009882709    -0.000007880951    -0.000004509796
      17       -0.000003497395     0.000008510430     0.000012553902
      18        0.000003403513    -0.000002353898     0.000001750395

  **** Optimization is complete! (in 34 steps) ****
    Final optimized geometry and variables:
    Molecular point group: c1

    Geometry (in Angstrom), charge = 0, multiplicity = 1:

    H            1.558253262778     3.550994634263    -0.072701815199
    C            1.074434752959     2.590906015677    -0.085825076866
    C           -0.201881093530     2.450026680417     0.436076304528
    C            1.722324681674     1.496644634594    -0.635355533729
    H           -0.711254623866     3.299642654404     0.853297893993
    C           -0.829829904642     1.217353610898     0.406620900172
    H            2.703928936135     1.606720995949    -1.059474235909
    C            1.104539337513     0.257295529058    -0.642800271516
    H           -1.830246607828     1.106325776826     0.780675891075
    C           -0.171731406671     0.110002054477    -0.114369814167
    H            1.609514362423    -0.581559577062    -1.085234273147
    C           -0.930024323911    -1.186080148279    -0.170660315260
    O           -0.357309925307    -2.307806022539     0.262087192924
    O           -2.046019826812    -1.226593814689    -0.567502094187
    C            0.861656316926    -2.371555471750     0.970453103106
    H            1.700570692323    -2.436682399673     0.291548026626
    H            0.811847911979    -3.277102431653     1.555778750492
    H            0.991105853526    -1.524675117228     1.628887398335

  Mulliken Charges: (a.u.)
   Center  Symbol    Alpha    Beta     Spin     Total
       1     H     0.39427  0.39427  0.00000  0.21147
       2     C     3.09433  3.09433  0.00000 -0.18866
       3     C     3.10257  3.10257  0.00000 -0.20515
       4     C     3.10225  3.10225  0.00000 -0.20449
       5     H     0.39351  0.39351  0.00000  0.21299
       6     C     3.09131  3.09131  0.00000 -0.18263
       7     H     0.39473  0.39473  0.00000  0.21053
       8     C     3.09860  3.09860  0.00000 -0.19721
       9     H     0.38042  0.38042  0.00000  0.23916
      10     C     3.06619  3.06619  0.00000 -0.13238
      11     H     0.39077  0.39077  0.00000  0.21845
      12     C     2.60439  2.60439  0.00000  0.79121
      13     O     4.30300  4.30300  0.00000 -0.60600
      14     O     4.26417  4.26417  0.00000 -0.52834
      15     C     3.09224  3.09224  0.00000 -0.18449
      16     H     0.41644  0.41644  0.00000  0.16712
      17     H     0.40085  0.40085  0.00000  0.19831
      18     H     0.40996  0.40996  0.00000  0.18008

   Total alpha = 36.00000, Total beta = 36.00000, Total charge =  0.00000
