                              Psi4 1.0.54 Driver

  ==> Input File <==

--------------------------------------------------------------------------
set {
	reference rhf
	basis cc-pvtz
}

set_num_threads( 4 )
memory 2 gb

molecule MOL {
0 1

H	 -1.835082	 1.385983	 0.000069
C	 -1.300516	 0.441153	 -0.000028
O	 -0.006604	 0.654344	 -0.000106
O	 -1.828920	 -0.612308	 0.000113
C	 0.852093	 -0.482521	 -0.000161
C	 2.216836	 -0.029523	 -0.461651
H	 0.437374	 -1.233399	 -0.657540
H	 0.885018	 -0.895397	 0.998044
H	 2.168069	 0.384969	 -1.460545
H	 2.896176	 -0.873455	 -0.473027
H	 2.617956	 0.724695	 0.203350

	symmetry c1
}
set optking {
	frozen_dihedral = ("
		7 5 3 2
	")
}

ee,wfn = optimize('scf', return_wfn=True)
oeprop( wfn, 'DIPOLE', 'QUADRUPOLE', 'MULLIKEN_CHARGES')
f=open( 'psi4out.xyz', 'w' )
f.write( "11  " )
f.write( str(ee) + "\n" )
f.write( MOL.save_string_xyz() )
f.close()
--------------------------------------------------------------------------

    Molecular point group: c1
  Charge       = 0
  Multiplicity = 1
  Basis Set: CC-PVTZ
  Basis Set:
  @DF-RHF Final Energy:  -266.93132830167156
    Total Energy =                       -266.9313283016717833
    Molecular point group: c1
  Basis Set: CC-PVTZ
  Basis Set:
  Basis Set: CC-PVTZ
  Basis Set:
  @DF-RHF Final Energy:  -266.93136496492650
    Total Energy =                       -266.9313649649263880
  Basis Set: CC-PVTZ
  Basis Set:
  Basis Set: CC-PVTZ
  Basis Set:
  @DF-RHF Final Energy:  -266.93097719660420
    Total Energy =                       -266.9309771966043172
  Basis Set: CC-PVTZ
  Basis Set:
  Basis Set: CC-PVTZ
  Basis Set:
  @DF-RHF Final Energy:  -266.93139863430201
    Total Energy =                       -266.9313986343020133
  Basis Set: CC-PVTZ
  Basis Set:
  Charge       = 0
  Multiplicity = 1
  Basis Set: CC-PVTZ
  Basis Set:

    Orbital Energies (a.u.)
    -----------------------

    Doubly Occupied:

       1A    -20.605436     2A    -20.545477     3A    -11.370352
       4A    -11.289714     5A    -11.225282     6A     -1.478973
       7A     -1.377443     8A     -1.053870     9A     -0.904637
      10A     -0.805430    11A     -0.741972    12A     -0.691542
      13A     -0.681724    14A     -0.595606    15A     -0.577259
      16A     -0.558496    17A     -0.523838    18A     -0.512205
      19A     -0.463644    20A     -0.457175

  @DF-RHF Final Energy:  -266.93141243113803

   => Energetics <=

    Nuclear Repulsion Energy =            179.5931570004215416
    One-Electron Energy =                -720.1289879479822957
    Two-Electron Energy =                 273.6044185164225837
    DFT Exchange-Correlation Energy =       0.0000000000000000
    Empirical Dispersion Energy =           0.0000000000000000
    PCM Polarization Energy =               0.0000000000000000
    EFP Energy =                            0.0000000000000000
    Total Energy =                       -266.9314124311381420
    Molecular point group: c1
  Basis Set: CC-PVTZ
  Basis Set:

  -Total Gradient:
     Atom            X                  Y                   Z
    ------   -----------------  -----------------  -----------------
       1       -0.000002259470    -0.000001117891     0.000009860060
       2       -0.000065978198     0.000112646946    -0.001258509889
       3       -0.000236640864    -0.000221542895     0.002037187709
       4        0.000131240905    -0.000005720040     0.000014213672
       5        0.000881953711     0.000589686217    -0.001867660430
       6        0.000023827057     0.000016002449     0.000004671789
       7       -0.000695535235    -0.000508836618     0.001061945325
       8       -0.000016312427     0.000024372373     0.000003732665
       9       -0.000014758719     0.000000372953    -0.000004297063
      10       -0.000008798657    -0.000000133768     0.000003306005
      11        0.000003261894    -0.000005729727    -0.000004449844

  **** Optimization is complete! (in 5 steps) ****
    Final optimized geometry and variables:
    Molecular point group: c1

    Geometry (in Angstrom), charge = 0, multiplicity = 1:

    H           -1.818737313896     1.398140585420     0.067416899217
    C           -1.290365890628     0.450145770968     0.090378400463
    O            0.004645775992     0.657306948820     0.083371092042
    O           -1.826651049462    -0.598908519079     0.118994647169
    C            0.869500256845    -0.475407615018     0.078358945399
    C            2.237573164576    -0.015902771451    -0.366248471623
    H            0.460101578479    -1.230385849771    -0.574809656366
    H            0.897064501761    -0.886207211514     1.079052525237
    H            2.200427247751     0.388197339288    -1.369962373945
    H            2.923706653687    -0.854429957971    -0.358701898847
    H            2.622757881311     0.747999660459     0.297044507783

  Mulliken Charges: (a.u.)
   Center  Symbol    Alpha    Beta     Spin     Total
       1     H     0.44865  0.44865  0.00000  0.10270
       2     C     2.84490  2.84490  0.00000  0.31019
       3     O     4.14502  4.14502  0.00000 -0.29005
       4     O     4.19532  4.19532  0.00000 -0.39064
       5     C     2.97402  2.97402  0.00000  0.05197
       6     C     3.13265  3.13265  0.00000 -0.26529
       7     H     0.44932  0.44932  0.00000  0.10136
       8     H     0.45499  0.45499  0.00000  0.09003
       9     H     0.45063  0.45063  0.00000  0.09874
      10     H     0.45430  0.45430  0.00000  0.09141
      11     H     0.45020  0.45020  0.00000  0.09959

   Total alpha = 20.00000, Total beta = 20.00000, Total charge =  0.00000

*** Psi4 exiting successfully. Buy a developer a beer!
