  ==> Input File <==

--------------------------------------------------------------------------
set {
	reference rhf
	basis 6-31G*
}

set_num_threads( 4 )
memory 2 gb

molecule MOL {
0 1

H	 -1.836216	 1.387520	 -0.000064
C	 -1.301823	 0.443321	 -0.000031
O	 -0.003969	 0.658512	 0.000451
O	 -1.829879	 -0.616434	 -0.000857
C	 0.850537	 -0.484732	 0.000380
C	 -0.011783	 -1.696025	 -0.281568
H	 1.339337	 -0.554620	 0.962413
H	 1.613596	 -0.350118	 -0.753884
H	 -0.775229	 -1.810474	 0.479409
H	 0.601916	 -2.590752	 -0.289956
H	 -0.499723	 -1.605133	 -1.245176

	symmetry c1
}
set optking {
	frozen_dihedral = ("
		7 5 3 2
	")
}

ee = optimize('scf')
oeprop('DIPOLE', 'QUADRUPOLE', 'MULLIKEN_CHARGES')
f=open( 'psi4out.xyz', 'w' )
f.write( "11  " )
f.write( str(ee) + "\n" )
f.write( MOL.save_string_xyz() )
f.close()
--------------------------------------------------------------------------

    Molecular point group: c1
  Charge       = 0
  Multiplicity = 1
  Basis Set: 6-31G*
  Basis Set:
  @DF-RHF Final Energy:  -266.75899290610482
    Total Energy =                       -266.7589929061049361
    Molecular point group: c1
  Basis Set: 6-31G*
  Basis Set:
  Basis Set: 6-31G*
  Basis Set:
  @DF-RHF Final Energy:  -266.80129091238962
    Total Energy =                       -266.8012909123897316
  Basis Set: 6-31G*
  Basis Set:
  Basis Set: 6-31G*
  Basis Set:
  @DF-RHF Final Energy:  -266.80039540287783
    Total Energy =                       -266.8003954028775979
  Basis Set: 6-31G*
  Basis Set:
  Basis Set: 6-31G*
  Basis Set:
  @DF-RHF Final Energy:  -266.81046865840443
    Total Energy =                       -266.8104686584042611
  Basis Set: 6-31G*
  Basis Set:
  @DF-RHF Final Energy:  -266.81690508305917
    Total Energy =                       -266.8169050830594529
  @DF-RHF Final Energy:  -266.81784272518371
    Total Energy =                       -266.8178427251837093
  @DF-RHF Final Energy:  -266.81809514852682
    Total Energy =                       -266.8180951485269929
  Basis Set: 6-31G*
  Basis Set:
  @DF-RHF Final Energy:  -266.81817042059868
    Total Energy =                       -266.8181704205987899
  Basis Set: 6-31G*
  Basis Set:
  Basis Set: 6-31G*
  Basis Set:
  @DF-RHF Final Energy:  -266.81818345637032
    Total Energy =                       -266.8181834563701500
  Basis Set: 6-31G*
  Basis Set:
  Basis Set: 6-31G*
  Basis Set:
  @DF-RHF Final Energy:  -266.81818445930668
    Total Energy =                       -266.8181844593065648
  Basis Set: 6-31G*
  Basis Set:
  Charge       = 0
  Multiplicity = 1
  Basis Set: 6-31G*
  Basis Set:

    Orbital Energies (a.u.)
    -----------------------

    Doubly Occupied:

       1A    -20.610049     2A    -20.552401     3A    -11.379019
       4A    -11.297731     5A    -11.221390     6A     -1.468292
       7A     -1.372956     8A     -1.050154     9A     -0.919421
      10A     -0.795925    11A     -0.718454    12A     -0.684270
      13A     -0.671294    14A     -0.609100    15A     -0.582361
      16A     -0.546871    17A     -0.528281    18A     -0.504003
      19A     -0.449724    20A     -0.444207

  @DF-RHF Final Energy:  -266.81818453453036

   => Energetics <=

    Nuclear Repulsion Energy =            182.1899671206407447
    One-Electron Energy =                -725.2045061275116495
    Two-Electron Energy =                 276.1963544723406017
    DFT Exchange-Correlation Energy =       0.0000000000000000
    Empirical Dispersion Energy =           0.0000000000000000
    PCM Polarization Energy =               0.0000000000000000
    EFP Energy =                            0.0000000000000000
    Total Energy =                       -266.8181845345303032
    Molecular point group: c1
  Basis Set: 6-31G*
  Basis Set:

  -Total Gradient:
     Atom            X                  Y                   Z
    ------   -----------------  -----------------  -----------------
       1        0.000007251951     0.000004532887     0.000012524959
       2       -0.000081839992    -0.000097126199    -0.003129423716
       3        0.000616117897     0.000492713443     0.004496921691
       4       -0.000019580489    -0.000001905097     0.000006868178
       5       -0.002979549942    -0.002083565291    -0.000196042320
       6        0.000023774649     0.000016379300    -0.000004889498
       7        0.002447308481     0.001656561017    -0.001199554221
       8        0.000002002217    -0.000003451983     0.000007862160
       9       -0.000013311182    -0.000004230182     0.000021439675
      10        0.000001934036     0.000013310289    -0.000007011033
      11       -0.000004107627     0.000006781817    -0.000008695876

  **** Optimization is complete! (in 11 steps) ****
    Final optimized geometry and variables:
    Molecular point group: c1

    Geometry (in Angstrom), charge = 0, multiplicity = 1:

    H           -1.166081817344     1.970029710596    -0.060026727057
    C           -0.836911794066     0.941412635837     0.050796388641
    O            0.476642769481     0.915787726922     0.022082758195
    O           -1.584068421327     0.033668404478     0.186844753865
    C            1.298560732375    -0.259050064758     0.035379265641
    C            0.657816779966    -1.598174759060    -0.289920157592
    H            1.784028648573    -0.275518476209     1.002403934326
    H            2.062936677383    -0.038334946463    -0.696913888668
    H           -0.041389239277    -1.921017199327     0.465182143104
    H            1.462319285014    -2.325298770190    -0.357835260917
    H            0.144548654669    -1.573999298329    -1.242690535989

  Mulliken Charges: (a.u.)
   Center  Symbol    Alpha    Beta     Spin     Total
       1     H     0.41387  0.41387  0.00000  0.17226
       2     C     2.72600  2.72600  0.00000  0.54800
       3     O     4.30097  4.30097  0.00000 -0.60194
       4     O     4.26292  4.26292  0.00000 -0.52584
       5     C     2.99435  2.99435  0.00000  0.01130
       6     C     3.25558  3.25558  0.00000 -0.51116
       7     H     0.41119  0.41119  0.00000  0.17762
       8     H     0.40981  0.40981  0.00000  0.18037
       9     H     0.39647  0.39647  0.00000  0.20706
      10     H     0.41974  0.41974  0.00000  0.16051
      11     H     0.40910  0.40910  0.00000  0.18180

   Total alpha = 20.00000, Total beta = 20.00000, Total charge =  0.00000
