  ==> Input File <==

--------------------------------------------------------------------------
set {
	reference rhf
	basis 6-31G*
}

set_num_threads( 4 )
memory 2 gb

molecule MOL {
0 1

H	 2.756578	 0.241845	 0.847420
N	 2.332695	 -0.069570	 0.000000
C	 0.936681	 -0.007078	 0.000000
H	 2.762093	 0.365037	 -0.788360
C	 0.227108	 -0.002120	 -1.198267
C	 0.227108	 -0.002120	 1.198267
H	 0.761569	 -0.014657	 -2.132680
C	 -1.156334	 0.010459	 -1.192360
H	 0.761569	 -0.014657	 2.132680
C	 -1.156334	 0.010459	 1.192360
H	 -1.684791	 0.014915	 -2.129421
C	 -1.862085	 0.017996	 0.000000
H	 -1.684791	 0.014915	 2.129421
H	 -2.936703	 0.028387	 0.000000

	symmetry c1
}
set optking {
	frozen_dihedral = ("
		1 2 3 5
	")
}

ee = optimize('scf')
oeprop('DIPOLE', 'QUADRUPOLE', 'MULLIKEN_CHARGES')
f=open( 'psi4out.xyz', 'w' )
f.write( "14  " )
f.write( str(ee) + "\n" )
f.write( MOL.save_string_xyz() )
f.close()
--------------------------------------------------------------------------

    Molecular point group: c1
  Charge       = 0
  Multiplicity = 1
  Basis Set: 6-31G*
  Basis Set:
  @DF-RHF Final Energy:  -285.73038166550123
    Total Energy =                       -285.7303816655013406
    Molecular point group: c1
  Basis Set: 6-31G*
  Basis Set:
  Basis Set: 6-31G*
  Basis Set:
  @DF-RHF Final Energy:  -285.73038784895999
    Total Energy =                       -285.7303878489602766
  Basis Set: 6-31G*
  Basis Set:
  Basis Set: 6-31G*
  Basis Set:
  @DF-RHF Final Energy:  -285.73038947334561
    Total Energy =                       -285.7303894733454399
  Basis Set: 6-31G*
  Basis Set:
  Charge       = 0
  Multiplicity = 1
  Basis Set: 6-31G*
  Basis Set:

    Orbital Energies (a.u.)
    -----------------------

    Doubly Occupied:

       1A    -15.560687     2A    -11.271015     3A    -11.228398
       4A    -11.228320     5A    -11.217277     6A    -11.216982
       7A    -11.213022     8A     -1.222168     9A     -1.125118
      10A     -1.009058    11A     -0.983649    12A     -0.828592
      13A     -0.809245    14A     -0.703219    15A     -0.683205
      16A     -0.652072    17A     -0.595177    18A     -0.589499
      19A     -0.578089    20A     -0.529016    21A     -0.502604
      22A     -0.484187    23A     -0.442647    24A     -0.330797
      25A     -0.289064

  @DF-RHF Final Energy:  -285.73038971116955

   => Energetics <=

    Nuclear Repulsion Energy =            273.0753662320150852
    One-Electron Energy =                -927.0252991676293277
    Two-Electron Energy =                 368.2195432244445215
    DFT Exchange-Correlation Energy =       0.0000000000000000
    Empirical Dispersion Energy =           0.0000000000000000
    PCM Polarization Energy =               0.0000000000000000
    EFP Energy =                            0.0000000000000000
    Total Energy =                       -285.7303897111697211
    Molecular point group: c1
  Basis Set: 6-31G*
  Basis Set:

  -Total Gradient:
     Atom            X                  Y                   Z
    ------   -----------------  -----------------  -----------------
       1       -0.000017786100    -0.000490007897     0.000200674292
       2        0.000080612891     0.000416308987    -0.000252945977
       3       -0.000060689718     0.000473553419     0.000051738209
       4       -0.000023020779     0.000003215255     0.000002896553
       5        0.000025950293    -0.000400955707     0.000015247939
       6        0.000002018366     0.000003656179    -0.000012111937
       7       -0.000001000916    -0.000004736100     0.000004991126
       8       -0.000048993580    -0.000003323885     0.000017504601
       9        0.000003615728     0.000006434476     0.000005270375
      10        0.000029018973    -0.000013850820     0.000020402051
      11       -0.000001819377     0.000002897831    -0.000002406974
      12        0.000015808114     0.000009124860    -0.000049825390
      13        0.000000247131    -0.000003565521    -0.000003566307
      14       -0.000003961026     0.000001248924     0.000002131438

  **** Optimization is complete! (in 4 steps) ****
    Final optimized geometry and variables:
    Molecular point group: c1

    Geometry (in Angstrom), charge = 0, multiplicity = 1:

    H            2.759977186808     0.243487841567     0.843117764028
    N            2.332229128444    -0.068253531913    -0.002016660462
    C            0.936613919635    -0.005150047842     0.001077022767
    H            2.762562666324     0.355502011208    -0.795582724370
    C            0.227889990913    -0.001470037578    -1.198069795729
    C            0.226310111411    -0.001906757101     1.198464266209
    H            0.763818410698    -0.016043738692    -2.131563372530
    C           -1.155087287233     0.011827547298    -1.193253243684
    H            0.759654736982    -0.012172352276     2.133663065265
    C           -1.157465867772     0.007365990460     1.191492360828
    H           -1.682943261317     0.016629525904    -2.130738528882
    C           -1.861926550004     0.016614459861    -0.001140769626
    H           -1.686630856000     0.009895187563     2.128237423122
    H           -2.936616899362     0.026207964125    -0.002084778813

  Mulliken Charges: (a.u.)
   Center  Symbol    Alpha    Beta     Spin     Total
       1     H     0.32040  0.32040  0.00000  0.35919
       2     N     3.94523  3.94523  0.00000 -0.89046
       3     C     2.85138  2.85138  0.00000  0.29724
       4     H     0.32027  0.32027  0.00000  0.35946
       5     C     3.12631  3.12631  0.00000 -0.25262
       6     C     3.12787  3.12787  0.00000 -0.25574
       7     H     0.40376  0.40376  0.00000  0.19249
       8     C     3.08978  3.08978  0.00000 -0.17955
       9     H     0.40453  0.40453  0.00000  0.19095
      10     C     3.08961  3.08961  0.00000 -0.17922
      11     H     0.40088  0.40088  0.00000  0.19823
      12     C     3.11617  3.11617  0.00000 -0.23234
      13     H     0.40091  0.40091  0.00000  0.19818
      14     H     0.40290  0.40290  0.00000  0.19419

   Total alpha = 25.00000, Total beta = 25.00000, Total charge = -0.00000
