                              Psi4 1.0.54 Driver

  ==> Input File <==

--------------------------------------------------------------------------
set {
	reference rhf
	basis cc-pvtz
}

set_num_threads( 4 )
memory 2 gb

molecule MOL {
0 1

H	 1.166964	 -1.062386	 0.758429
O	 1.324748	 -0.612467	 -0.052206
C	 0.706474	 0.636793	 -0.025501
C	 1.475325	 1.700037	 0.706628
H	 -0.252914	 0.493913	 0.457679
H	 0.496064	 0.987011	 -1.034349
C	 2.586655	 1.516591	 1.384565
H	 1.044407	 2.686030	 0.648533
H	 3.036950	 0.546976	 1.479712
H	 3.075582	 2.334150	 1.879144

	symmetry c1
}
set optking {
	frozen_dihedral = ("
		5 3 2 1
	")
}

ee,wfn = optimize('scf', return_wfn=True)
oeprop( wfn, 'DIPOLE', 'QUADRUPOLE', 'MULLIKEN_CHARGES')
f=open( 'psi4out.xyz', 'w' )
f.write( "10  " )
f.write( str(ee) + "\n" )
f.write( MOL.save_string_xyz() )
f.close()
--------------------------------------------------------------------------

    Molecular point group: c1
  Charge       = 0
  Multiplicity = 1
  Basis Set: CC-PVTZ
  Basis Set:
  @DF-RHF Final Energy:  -191.99652672409255
    Total Energy =                       -191.9965267240924049
    Molecular point group: c1
  Basis Set: CC-PVTZ
  Basis Set:
  Basis Set: CC-PVTZ
  Basis Set:
  @DF-RHF Final Energy:  -191.99198475249051
    Total Energy =                       -191.9919847524904526
  Basis Set: CC-PVTZ
  Basis Set:
  Basis Set: CC-PVTZ
  Basis Set:
  @DF-RHF Final Energy:  -191.99815787329982
    Total Energy =                       -191.9981578732997320
  Basis Set: CC-PVTZ
  Basis Set:
  Basis Set: CC-PVTZ
  Basis Set:
  @DF-RHF Final Energy:  -191.99838080923524
    Total Energy =                       -191.9983808092353001
  Basis Set: CC-PVTZ
  Basis Set:
  Basis Set: CC-PVTZ
  Basis Set:
  @DF-RHF Final Energy:  -191.99839083490258
    Total Energy =                       -191.9983908349025228
  Basis Set: CC-PVTZ
  Basis Set:
  Charge       = 0
  Multiplicity = 1
  Basis Set: CC-PVTZ
  Basis Set:

    Orbital Energies (a.u.)
    -----------------------

    Doubly Occupied:

       1A    -20.554511     2A    -11.278458     3A    -11.227037
       4A    -11.213049     5A     -1.374554     6A     -1.060210
       7A     -0.930505     8A     -0.767859     9A     -0.697961
      10A     -0.661790    11A     -0.618368    12A     -0.575517
      13A     -0.530299    14A     -0.503266    15A     -0.450054
      16A     -0.366295

  @DF-RHF Final Energy:  -191.99839211027722

   => Energetics <=

    Nuclear Repulsion Energy =            119.4564806426669890
    One-Electron Energy =                -497.2902787925431767
    Two-Electron Energy =                 185.8354060395990359
    DFT Exchange-Correlation Energy =       0.0000000000000000
    Empirical Dispersion Energy =           0.0000000000000000
    PCM Polarization Energy =               0.0000000000000000
    EFP Energy =                            0.0000000000000000
    Total Energy =                       -191.9983921102771660
    Molecular point group: c1
  Basis Set: CC-PVTZ
  Basis Set:

  -Total Gradient:
     Atom            X                  Y                   Z
    ------   -----------------  -----------------  -----------------
       1       -0.000989861027    -0.000464720569    -0.001009396059
       2        0.001264739764     0.000561671580     0.001598085225
       3       -0.000412860325    -0.000097494622    -0.001871516377
       4       -0.000025395149    -0.000036868013    -0.000004642177
       5        0.000170317948     0.000042713861     0.001299571044
       6        0.000003190026     0.000003548701     0.000008994589
       7       -0.000085173472    -0.000019973015     0.000008658751
       8        0.000045119531    -0.000042698856    -0.000000680181
       9        0.000001522281     0.000047219912    -0.000012863079
      10        0.000028400422     0.000006601019    -0.000016211737

  **** Optimization is complete! (in 6 steps) ****
    Final optimized geometry and variables:
    Molecular point group: c1

    Geometry (in Angstrom), charge = 0, multiplicity = 1:

    H           -0.393929941781    -1.831990526721    -0.078188115214
    O           -0.021037924363    -1.259769381888    -0.723190479778
    C           -0.658003563806    -0.018305984160    -0.685717513485
    C           -0.129572915553     0.913284900184     0.368862657168
    H           -1.729366463080    -0.135916775791    -0.537498224411
    H           -0.524740071768     0.434796610484    -1.661124098237
    C            0.873244069756     0.662617419395     1.180244060246
    H           -0.642957334364     1.858892040092     0.430918255090
    H            1.414139921170    -0.262753314306     1.134597710758
    H            1.190711693706     1.384393524736     1.908624853950

  Mulliken Charges: (a.u.)
   Center  Symbol    Alpha    Beta     Spin     Total
       1     H     0.39119  0.39119  0.00000  0.21763
       2     O     4.19879  4.19879  0.00000 -0.39758
       3     C     2.95174  2.95174  0.00000  0.09652
       4     C     3.08360  3.08360  0.00000 -0.16720
       5     H     0.46874  0.46874  0.00000  0.06252
       6     H     0.45415  0.45415  0.00000  0.09169
       7     C     3.17731  3.17731  0.00000 -0.35462
       8     H     0.42371  0.42371  0.00000  0.15258
       9     H     0.42231  0.42231  0.00000  0.15538
      10     H     0.42846  0.42846  0.00000  0.14308

   Total alpha = 16.00000, Total beta = 16.00000, Total charge = -0.00000

*** Psi4 exiting successfully. Buy a developer a beer!
