  ==> Input File <==

--------------------------------------------------------------------------
set {
	reference rhf
	basis 6-31G*
}

set_num_threads( 1 )
memory 2 gb

molecule MOL {
0 1

H	 3.741655	 -0.903794	 0.014297
O	 2.838830	 -1.133557	 0.211458
C	 2.077727	 -0.067559	 -0.035091
C	 0.624473	 -0.343591	 0.253101
O	 2.533056	 0.954986	 -0.432699
C	 -0.265902	 0.883932	 0.072916
H	 0.324016	 -1.163849	 -0.390541
H	 0.565024	 -0.726111	 1.268924
C	 -1.728698	 0.646073	 0.462102
H	 -0.209144	 1.219470	 -0.958188
H	 0.135059	 1.692851	 0.673903
C	 -2.482460	 -0.343073	 -0.431425
H	 -2.245265	 1.602650	 0.432430
H	 -1.779332	 0.308348	 1.496285
C	 -3.960546	 -0.461025	 -0.060175
H	 -2.395034	 -0.026811	 -1.468912
H	 -2.024850	 -1.327147	 -0.371646
H	 -4.472726	 -1.168004	 -0.705284
H	 -4.465146	 0.496508	 -0.151489
H	 -4.081218	 -0.800940	 0.964585

	symmetry c1
}
set optking {
	frozen_dihedral = ("
		16 12 9 6,
		7 4 6 10,
		12 9 6 10,
		1 2 3 5
	")
}

ee = energy('scf')
oeprop('DIPOLE', 'QUADRUPOLE', 'MULLIKEN_CHARGES')
f=open( 'psi4out.xyz', 'w' )
f.write( "20  " )
f.write( str(ee) + "\n" )
f.write( MOL.save_string_xyz() )
f.close()
--------------------------------------------------------------------------

    Molecular point group: c1

    Geometry (in Angstrom), charge = 0, multiplicity = 1:

       Center              X                  Y                   Z               Mass
    ------------   -----------------  -----------------  -----------------  -----------------
           H          3.741149094442    -0.904808714890     0.010773136061     1.007825032070
           O          2.838324094442    -1.134571714890     0.207934136061    15.994914619560
           C          2.077221094442    -0.068573714890    -0.038614863939    12.000000000000
           C          0.623967094442    -0.344605714890     0.249577136061    12.000000000000
           O          2.532550094442     0.953971285110    -0.436222863939    15.994914619560
           C         -0.266407905558     0.882917285110     0.069392136061    12.000000000000
           H          0.323510094442    -1.164863714890    -0.394064863939     1.007825032070
           H          0.564518094442    -0.727125714890     1.265400136061     1.007825032070
           C         -1.729203905558     0.645058285110     0.458578136061    12.000000000000
           H         -0.209649905558     1.218455285110    -0.961711863939     1.007825032070
           H          0.134553094442     1.691836285110     0.670379136061     1.007825032070
           C         -2.482965905558    -0.344087714890    -0.434948863939    12.000000000000
           H         -2.245770905558     1.601635285110     0.428906136061     1.007825032070
           H         -1.779837905558     0.307333285110     1.492761136061     1.007825032070
           C         -3.961051905558    -0.462039714890    -0.063698863939    12.000000000000
           H         -2.395539905558    -0.027825714890    -1.472435863939     1.007825032070
           H         -2.025355905558    -1.328161714890    -0.375169863939     1.007825032070
           H         -4.473231905558    -1.169018714890    -0.708807863939     1.007825032070
           H         -4.465651905558     0.495493285110    -0.155012863939     1.007825032070
           H         -4.081723905558    -0.801954714890     0.961061136061     1.007825032070

  Charge       = 0
  Multiplicity = 1
  Basis Set: 6-31G*
  Basis Set:

    Orbital Energies (a.u.)
    -----------------------

    Doubly Occupied:

       1A    -20.612516     2A    -20.551572     3A    -11.381171
       4A    -11.240216     5A    -11.223005     6A    -11.220732
       7A    -11.220143     8A    -11.212429     9A     -1.474572
      10A     -1.365616    11A     -1.096242    12A     -1.040987
      13A     -0.961266    14A     -0.868861    15A     -0.816313
      16A     -0.776800    17A     -0.699501    18A     -0.690005
      19A     -0.664249    20A     -0.635593    21A     -0.602841
      22A     -0.593954    23A     -0.575528    24A     -0.555889
      25A     -0.539933    26A     -0.513215    27A     -0.495459
      28A     -0.479477    29A     -0.470407    30A     -0.467419
      31A     -0.457578    32A     -0.443539

  @DF-RHF Final Energy:  -383.94873900151475

   => Energetics <=

    Nuclear Repulsion Energy =            375.9053115924123745
    One-Electron Energy =               -1267.8140520893252869
    Two-Electron Energy =                 507.9600014953978189
    DFT Exchange-Correlation Energy =       0.0000000000000000
    Empirical Dispersion Energy =           0.0000000000000000
    PCM Polarization Energy =               0.0000000000000000
    EFP Energy =                            0.0000000000000000
    Total Energy =                       -383.9487390015151504

  Mulliken Charges: (a.u.)
   Center  Symbol    Alpha    Beta     Spin     Total
       1     H     0.26786  0.26786  0.00000  0.46427
       2     O     4.35157  4.35157  0.00000 -0.70314
       3     C     2.62229  2.62229  0.00000  0.75542
       4     C     3.21275  3.21275  0.00000 -0.42550
       5     O     4.27928  4.27928  0.00000 -0.55857
       6     C     3.15437  3.15437  0.00000 -0.30875
       7     H     0.39658  0.39658  0.00000  0.20684
       8     H     0.39934  0.39934  0.00000  0.20131
       9     C     3.15549  3.15549  0.00000 -0.31098
      10     H     0.41144  0.41144  0.00000  0.17713
      11     H     0.40890  0.40890  0.00000  0.18220
      12     C     3.15489  3.15489  0.00000 -0.30977
      13     H     0.41788  0.41788  0.00000  0.16425
      14     H     0.42368  0.42368  0.00000  0.15264
      15     C     3.23923  3.23923  0.00000 -0.47847
      16     H     0.42136  0.42136  0.00000  0.15728
      17     H     0.42283  0.42283  0.00000  0.15435
      18     H     0.41832  0.41832  0.00000  0.16335
      19     H     0.42063  0.42063  0.00000  0.15875
      20     H     0.42131  0.42131  0.00000  0.15739

   Total alpha = 32.00000, Total beta = 32.00000, Total charge =  0.00000
