                              Psi4 1.0.54 Driver

  ==> Input File <==

--------------------------------------------------------------------------
set {
	reference rhf
	basis cc-pvtz
}

set_num_threads( 4 )
memory 2 gb

molecule MOL {
0 1

H	 -4.340537	 -0.784487	 0.000000
O	 -3.958786	 0.074640	 0.000000
C	 -2.613554	 0.009900	 0.000000
C	 -1.953249	 0.398538	 -1.153747
C	 -1.889080	 -0.423502	 1.093702
H	 -2.525322	 0.733046	 -1.996184
C	 -0.577911	 0.352317	 -1.208546
H	 -2.394253	 -0.726632	 1.992301
C	 -0.507991	 -0.469306	 1.037001
H	 -0.068952	 0.653358	 -2.101912
C	 0.142035	 -0.081951	 -0.111866
H	 0.049649	 -0.806056	 1.887495
Br	 2.037702	 -0.143803	 -0.192489

	symmetry c1
}
set optking {
	frozen_dihedral = ("
		4 3 2 1
	")
}

ee,wfn = optimize('scf', return_wfn=True)
oeprop( wfn, 'DIPOLE', 'QUADRUPOLE', 'MULLIKEN_CHARGES')
f=open( 'psi4out.xyz', 'w' )
f.write( "13  " )
f.write( str(ee) + "\n" )
f.write( MOL.save_string_xyz() )
f.close()
--------------------------------------------------------------------------

    Molecular point group: c1
  Charge       = 0
  Multiplicity = 1
  Basis Set: CC-PVTZ
  Basis Set:
  @DF-RHF Final Energy: -2877.54260737552022
    Total Energy =                      -2877.5426073755197649
    Molecular point group: c1
  Basis Set: CC-PVTZ
  Basis Set:
  Basis Set: CC-PVTZ
  Basis Set:
  @DF-RHF Final Energy: -2877.54311816740210
    Total Energy =                      -2877.5431181673989158
  Basis Set: CC-PVTZ
  Basis Set:
  Basis Set: CC-PVTZ
  Basis Set:
  @DF-RHF Final Energy: -2877.54316450319948
    Total Energy =                      -2877.5431645032040251
  Basis Set: CC-PVTZ
  Basis Set:
  Basis Set: CC-PVTZ
  Basis Set:
  @DF-RHF Final Energy: -2877.54316960027109
    Total Energy =                      -2877.5431696002715398
  Basis Set: CC-PVTZ
  Basis Set:
  Charge       = 0
  Multiplicity = 1
  Basis Set: CC-PVTZ
  Basis Set:

    Orbital Energies (a.u.)
    -----------------------

    Doubly Occupied:

       1A   -490.020788     2A    -65.161121     3A    -58.516345
       4A    -58.514980     5A    -58.514966     6A    -20.583706
       7A    -11.303732     8A    -11.293587     9A    -11.252392
      10A    -11.251735    11A    -11.242782    12A    -11.241020
      13A     -9.834925    14A     -7.446547    15A     -7.439762
      16A     -7.439738    17A     -3.190240    18A     -3.186696
      19A     -3.186553    20A     -3.177915    21A     -3.177911
      22A     -1.411791    23A     -1.180767    24A     -1.067705
      25A     -1.041900    26A     -0.970620    27A     -0.862921
      28A     -0.826556    29A     -0.753380    30A     -0.679401
      31A     -0.662461    32A     -0.646045    33A     -0.610478
      34A     -0.600502    35A     -0.549858    36A     -0.531699
      37A     -0.502627    38A     -0.490038    39A     -0.434410
      40A     -0.415597    41A     -0.359116    42A     -0.328429

  @DF-RHF Final Energy: -2877.54317065910436

   => Energetics <=

    Nuclear Repulsion Energy =            525.1644800237843356
    One-Electron Energy =               -5041.6078157886067856
    Two-Electron Energy =                1638.9001651057174058
    DFT Exchange-Correlation Energy =       0.0000000000000000
    Empirical Dispersion Energy =           0.0000000000000000
    PCM Polarization Energy =               0.0000000000000000
    EFP Energy =                            0.0000000000000000
    Total Energy =                      -2877.5431706591048169
    Molecular point group: c1
  Basis Set: CC-PVTZ
  Basis Set:

  -Total Gradient:
     Atom            X                  Y                   Z
    ------   -----------------  -----------------  -----------------
       1       -0.000047171090     0.000027794089    -0.001455986228
       2       -0.000158596268    -0.000518453029     0.001594642710
       3        0.000351494366     0.001439229072     0.000391487275
       4       -0.000057333174    -0.000950125292    -0.000472808222
       5       -0.000162752452    -0.000014223877    -0.000050195460
       6        0.000015416559    -0.000000548657     0.000021976749
       7       -0.000089341017    -0.000012194144    -0.000054917061
       8       -0.000016430146     0.000012335150     0.000003167129
       9        0.000145938740     0.000038147970    -0.000089289505
      10        0.000033928625    -0.000001547962     0.000013882004
      11        0.000021572624    -0.000030080656     0.000131949062
      12       -0.000011181150     0.000003859123    -0.000010685838
      13       -0.000025545894     0.000005808199    -0.000023222610

  **** Optimization is complete! (in 5 steps) ****
    Final optimized geometry and variables:
    Molecular point group: c1

    Geometry (in Angstrom), charge = 0, multiplicity = 1:

    H           -4.348106801078    -0.706154099907     0.138067962933
    O           -3.965791972530     0.153832910931     0.139779942202
    C           -2.605022869368     0.077756616728     0.096081357091
    C           -1.944714258451     0.469577872536    -1.051379208632
    C           -1.885937278903    -0.352285970402     1.194335909689
    H           -2.514419145703     0.807216506506    -1.894478576932
    C           -0.564791853253     0.433998545455    -1.102846752411
    H           -2.405236447692    -0.640338727052     2.087925956803
    C           -0.506108003748    -0.397755307941     1.144682423912
    H           -0.051321112216     0.740573012037    -1.991556363908
    C            0.145540748778    -0.003219019646    -0.004617138546
    H            0.052175692884    -0.731372643447     1.995806659626
    BR           2.041405505870    -0.059088843933    -0.074624486109

  Mulliken Charges: (a.u.)
   Center  Symbol    Alpha    Beta     Spin     Total
       1     H     0.38606  0.38606  0.00000  0.22788
       2     O     4.18760  4.18760  0.00000 -0.37520
       3     C     2.87974  2.87974  0.00000  0.24051
       4     C     3.09049  3.09049  0.00000 -0.18098
       5     C     3.09959  3.09959  0.00000 -0.19919
       6     H     0.41289  0.41289  0.00000  0.17422
       7     C     3.08721  3.08721  0.00000 -0.17441
       8     H     0.41579  0.41579  0.00000  0.16842
       9     C     3.08865  3.08865  0.00000 -0.17729
      10     H     0.41008  0.41008  0.00000  0.17983
      11     C     2.96743  2.96743  0.00000  0.06515
      12     H     0.41019  0.41019  0.00000  0.17962
      13    BR    17.56427 17.56427  0.00000 -0.12855

   Total alpha = 42.00000, Total beta = 42.00000, Total charge = -0.00000

*** Psi4 exiting successfully. Buy a developer a beer!
