  ==> Input File <==

--------------------------------------------------------------------------
set {
	reference rhf
	basis cc-pvtz
}

set_num_threads( 4 )
memory 2 gb

molecule MOL {
0 1

H	 -2.468933	 -0.834922	 0.590750
O	 -2.313989	 -0.142475	 -0.025864
C	 -0.943808	 -0.065018	 -0.330000
H	 -0.812293	 -0.225641	 -1.398673
C	 -0.231030	 -1.182113	 0.407592
C	 -0.353797	 1.300461	 0.050970
H	 -0.312800	 -0.992012	 1.473041
H	 -0.738841	 -2.119564	 0.220514
C	 1.246176	 -1.268044	 -0.015480
H	 -0.539537	 2.008579	 -0.751815
H	 -0.889989	 1.662858	 0.920677
C	 1.153605	 1.231851	 0.356834
H	 1.823096	 -1.684665	 0.802361
H	 1.352335	 -1.958223	 -0.845114
C	 1.826409	 0.100723	 -0.416008
H	 1.622968	 2.181508	 0.128734
H	 1.301983	 1.066493	 1.419367
H	 2.897299	 0.112407	 -0.249665
H	 1.683458	 0.265621	 -1.480024

	symmetry c1
}
set optking {
	frozen_dihedral = ("
		1 2 3 4
	")
}

ee = optimize('scf')
oeprop('DIPOLE', 'QUADRUPOLE', 'MULLIKEN_CHARGES')
f=open( 'psi4out.xyz', 'w' )
f.write( "19  " )
f.write( str(ee) + "\n" )
f.write( MOL.save_string_xyz() )
f.close()
--------------------------------------------------------------------------

    Molecular point group: c1
  Charge       = 0
  Multiplicity = 1
  Basis Set: CC-PVTZ
  Basis Set:
  @DF-RHF Final Energy:  -309.15976835439011
    Total Energy =                       -309.1597683543899393
    Molecular point group: c1
  Basis Set: CC-PVTZ
  Basis Set:
  Basis Set: CC-PVTZ
  Basis Set:
  @DF-RHF Final Energy:  -309.16098420185870
    Total Energy =                       -309.1609842018589234
  Basis Set: CC-PVTZ
  Basis Set:
  Basis Set: CC-PVTZ
  Basis Set:
  @DF-RHF Final Energy:  -309.16128831698040
    Total Energy =                       -309.1612883169802899
  Basis Set: CC-PVTZ
  Basis Set:
  Basis Set: CC-PVTZ
  Basis Set:
  @DF-RHF Final Energy:  -309.16129368387487
    Total Energy =                       -309.1612936838745327
  Basis Set: CC-PVTZ
  Basis Set:
  Charge       = 0
  Multiplicity = 1
  Basis Set: CC-PVTZ
  Basis Set:

    Orbital Energies (a.u.)
    -----------------------

    Doubly Occupied:

       1A    -20.540588     2A    -11.267209     3A    -11.219459
       4A    -11.218717     5A    -11.215228     6A    -11.213669
       7A    -11.206646     8A     -1.361032     9A     -1.111911
      10A     -1.005706    11A     -0.990115    12A     -0.853064
      13A     -0.834688    14A     -0.746149    15A     -0.682232
      16A     -0.666998    17A     -0.623923    18A     -0.603612
      19A     -0.578477    20A     -0.552934    21A     -0.532458
      22A     -0.522182    23A     -0.500732    24A     -0.492468
      25A     -0.466273    26A     -0.449713    27A     -0.427888
      28A     -0.414003

  @DF-RHF Final Energy:  -309.16129409234077

   => Energetics <=

    Nuclear Repulsion Energy =            331.8848951858271903
    One-Electron Energy =               -1077.4962328255919601
    Two-Electron Energy =                 436.4500435474236042
    DFT Exchange-Correlation Energy =       0.0000000000000000
    Empirical Dispersion Energy =           0.0000000000000000
    PCM Polarization Energy =               0.0000000000000000
    EFP Energy =                            0.0000000000000000
    Total Energy =                       -309.1612940923411657
    Molecular point group: c1
  Basis Set: CC-PVTZ
  Basis Set:

  -Total Gradient:
     Atom            X                  Y                   Z
    ------   -----------------  -----------------  -----------------
       1        0.000014697149     0.000048532432     0.000059238579
       2       -0.000018932567    -0.000061054399    -0.000078820982
       3       -0.000016580683    -0.000058561983     0.000049074302
       4        0.000013590131     0.000065020723    -0.000003300686
       5        0.000010031225     0.000000356422    -0.000026261250
       6        0.000030846473    -0.000001918877     0.000007163019
       7        0.000003382158    -0.000003934880    -0.000013643061
       8        0.000003394967    -0.000000854172     0.000003562797
       9       -0.000018402906    -0.000012572114     0.000042420288
      10        0.000013143926     0.000012007336    -0.000008642168
      11        0.000003973263    -0.000006149274    -0.000004553601
      12       -0.000009179212     0.000017107069    -0.000019406523
      13        0.000018070593    -0.000016629735     0.000002843165
      14       -0.000008592866     0.000002765224     0.000001364278
      15       -0.000017146152     0.000016977087    -0.000019709805
      16       -0.000010814341     0.000011399743     0.000010870167
      17       -0.000004196577    -0.000000896077     0.000003187005
      18       -0.000010352473    -0.000016849196     0.000001505320
      19        0.000003067892     0.000005254671    -0.000006890845

  **** Optimization is complete! (in 5 steps) ****
    Final optimized geometry and variables:
    Molecular point group: c1

    Geometry (in Angstrom), charge = 0, multiplicity = 1:

    H           -2.561482841427    -0.759689889748     0.521014329825
    O           -2.333702512771    -0.073492097855    -0.077443142024
    C           -0.946505919070    -0.069511799567    -0.320883458418
    H           -0.816757151138    -0.226961000428    -1.387499214411
    C           -0.217008613947    -1.184371929514     0.411805793275
    C           -0.362390011017     1.297059757062     0.058465933284
    H           -0.286637595540    -0.999455772663     1.481061371618
    H           -0.708632921097    -2.133759385042     0.224170573238
    C            1.258530021908    -1.260519938777    -0.020564558098
    H           -0.569245024730     2.001274667827    -0.739507531815
    H           -0.894772433992     1.654452047765     0.931609765807
    C            1.148879555245     1.238831277298     0.346010833039
    H            1.844342722006    -1.668029183264     0.795489912891
    H            1.361998288011    -1.954533263894    -0.846943977518
    C            1.821716620512     0.111570643043    -0.432332053053
    H            1.609223581593     2.190868384532     0.110056436337
    H            1.314420972765     1.077089358456     1.407139034743
    H            2.894383529210     0.129716657164    -0.278907023291
    H            1.663914154357     0.271101379507    -1.494674681809

  Mulliken Charges: (a.u.)
   Center  Symbol    Alpha    Beta     Spin     Total
       1     H     0.39144  0.39144  0.00000  0.21712
       2     O     4.21046  4.21046  0.00000 -0.42093
       3     C     2.92649  2.92649  0.00000  0.14701
       4     H     0.45435  0.45435  0.00000  0.09129
       5     C     3.11614  3.11614  0.00000 -0.23229
       6     C     3.10709  3.10709  0.00000 -0.21419
       7     H     0.45322  0.45322  0.00000  0.09357
       8     H     0.44448  0.44448  0.00000  0.11104
       9     C     3.11306  3.11306  0.00000 -0.22611
      10     H     0.44688  0.44688  0.00000  0.10625
      11     H     0.44775  0.44775  0.00000  0.10449
      12     C     3.10159  3.10159  0.00000 -0.20319
      13     H     0.44713  0.44713  0.00000  0.10573
      14     H     0.44604  0.44604  0.00000  0.10792
      15     C     3.10191  3.10191  0.00000 -0.20382
      16     H     0.44191  0.44191  0.00000  0.11617
      17     H     0.45453  0.45453  0.00000  0.09094
      18     H     0.44271  0.44271  0.00000  0.11457
      19     H     0.45279  0.45279  0.00000  0.09442

   Total alpha = 28.00000, Total beta = 28.00000, Total charge = -0.00000
