  ==> Input File <==

--------------------------------------------------------------------------
set {
	reference rhf
	basis cc-pvtz
}

set_num_threads( 4 )
memory 2 gb

molecule MOL {
0 1

O	 0.451721	 0.683649	 -0.924434
C	 0.029490	 0.077183	 0.000078
C	 -1.232113	 -0.748027	 0.000015
O	 0.625493	 0.045622	 1.180339
C	 -2.501422	 0.088592	 -0.000052
H	 -1.188777	 -1.400384	 -0.865133
H	 -1.188857	 -1.400312	 0.865225
H	 -2.548170	 0.725504	 -0.873205
H	 -3.371613	 -0.556398	 -0.000040
H	 -2.548215	 0.725571	 0.873047
C	 1.825020	 0.779709	 1.321379
H	 2.575690	 0.419133	 0.633837
H	 2.148636	 0.628907	 2.338412
H	 1.653186	 1.829741	 1.136574

	symmetry c1
}
set optking {
	frozen_dihedral = ("
		4 2 3 6
	")
}

ee = optimize('scf')
oeprop('DIPOLE', 'QUADRUPOLE', 'MULLIKEN_CHARGES')
f=open( 'psi4out.xyz', 'w' )
f.write( "14  " )
f.write( str(ee) + "\n" )
f.write( MOL.save_string_xyz() )
f.close()
--------------------------------------------------------------------------

    Molecular point group: c1
  Charge       = 0
  Multiplicity = 1
  Basis Set: CC-PVTZ
  Basis Set:
  @DF-RHF Final Energy:  -305.98518292197559
    Total Energy =                       -305.9851829219757064
    Molecular point group: c1
  Basis Set: CC-PVTZ
  Basis Set:
  Basis Set: CC-PVTZ
  Basis Set:
  @DF-RHF Final Energy:  -305.98583820539591
    Total Energy =                       -305.9858382053961918
  Basis Set: CC-PVTZ
  Basis Set:
  Basis Set: CC-PVTZ
  Basis Set:
  @DF-RHF Final Energy:  -305.98471449192198
    Total Energy =                       -305.9847144919216930
  Basis Set: CC-PVTZ
  Basis Set:
  Basis Set: CC-PVTZ
  Basis Set:
  @DF-RHF Final Energy:  -305.98592623752631
    Total Energy =                       -305.9859262375264279
  Basis Set: CC-PVTZ
  Basis Set:
  Basis Set: CC-PVTZ
  Basis Set:
  @DF-RHF Final Energy:  -305.98593120928581
    Total Energy =                       -305.9859312092858090
  Basis Set: CC-PVTZ
  Basis Set:
  Charge       = 0
  Multiplicity = 1
  Basis Set: CC-PVTZ
  Basis Set:

    Orbital Energies (a.u.)
    -----------------------

    Doubly Occupied:

       1A    -20.599569     2A    -20.532059     3A    -11.364644
       4A    -11.279235     5A    -11.235728     6A    -11.223385
       7A     -1.473364     8A     -1.365451     9A     -1.066631
      10A     -0.980209    11A     -0.881930    12A     -0.775305
      13A     -0.700705    14A     -0.683373    15A     -0.676043
      16A     -0.618186    17A     -0.601868    18A     -0.564991
      19A     -0.541720    20A     -0.520805    21A     -0.510441
      22A     -0.503387    23A     -0.459494    24A     -0.439000

  @DF-RHF Final Energy:  -305.98593148692453

   => Energetics <=

    Nuclear Repulsion Energy =            248.0002631683361471
    One-Electron Energy =                -908.7773404313115861
    Two-Electron Energy =                 354.7911457760509393
    DFT Exchange-Correlation Energy =       0.0000000000000000
    Empirical Dispersion Energy =           0.0000000000000000
    PCM Polarization Energy =               0.0000000000000000
    EFP Energy =                            0.0000000000000000
    Total Energy =                       -305.9859314869245281
    Molecular point group: c1
  Basis Set: CC-PVTZ
  Basis Set:

  -Total Gradient:
     Atom            X                  Y                   Z
    ------   -----------------  -----------------  -----------------
       1       -0.000016362572    -0.000017279626     0.000044321792
       2       -0.000013184555     0.000036151050    -0.000122604281
       3       -0.000019739930    -0.000002555035     0.000027032833
       4        0.000030639346     0.000023546723     0.000065658879
       5        0.000026627701    -0.000008195143    -0.000006441783
       6       -0.000002037089     0.000005088442     0.000000651246
       7       -0.000006943301    -0.000007043879     0.000002672466
       8       -0.000004232027     0.000003877519    -0.000007568813
       9        0.000007933341    -0.000002695348     0.000000093265
      10        0.000003380381    -0.000002865528     0.000003919813
      11       -0.000010367556    -0.000047100967    -0.000018585009
      12        0.000010772212     0.000010480256     0.000005711088
      13       -0.000000132035     0.000004493717     0.000004432169
      14       -0.000006353914     0.000004097819     0.000000706334

  **** Optimization is complete! (in 6 steps) ****
    Final optimized geometry and variables:
    Molecular point group: c1

    Geometry (in Angstrom), charge = 0, multiplicity = 1:

    O            0.504831955199     0.537107195030    -1.174190907812
    C            0.134061468796    -0.106510895318    -0.251449612467
    C           -1.118183492960    -0.946948565125    -0.257394343097
    O            0.770919414736    -0.148175038494     0.905445576249
    C           -2.369031912361    -0.067533449338    -0.301941403045
    H           -1.077124400871    -1.568417492565    -1.142788810343
    H           -1.130292568813    -1.587492732461     0.612284698459
    H           -2.355202643140     0.572501991771    -1.173657532173
    H           -3.257318837214    -0.684879751062    -0.343199636704
    H           -2.437799124404     0.558303139957     0.580243083400
    C            1.948779429970     0.625141739088     1.023694546975
    H            2.685946939174     0.308054999071     0.301245283408
    H            2.312920009073     0.461094874328     2.024831251742
    H            1.733417252660     1.672214347665     0.871151866743

  Mulliken Charges: (a.u.)
   Center  Symbol    Alpha    Beta     Spin     Total
       1     O     4.20507  4.20507  0.00000 -0.41014
       2     C     2.80091  2.80091  0.00000  0.39819
       3     C     3.08490  3.08490  0.00000 -0.16981
       4     O     4.14583  4.14583  0.00000 -0.29166
       5     C     3.14742  3.14742  0.00000 -0.29484
       6     H     0.44348  0.44348  0.00000  0.11305
       7     H     0.44117  0.44117  0.00000  0.11765
       8     H     0.44266  0.44266  0.00000  0.11469
       9     H     0.44863  0.44863  0.00000  0.10274
      10     H     0.45244  0.45244  0.00000  0.09512
      11     C     3.03420  3.03420  0.00000 -0.06840
      12     H     0.45379  0.45379  0.00000  0.09241
      13     H     0.44541  0.44541  0.00000  0.10918
      14     H     0.45409  0.45409  0.00000  0.09182

   Total alpha = 24.00000, Total beta = 24.00000, Total charge = -0.00000
