                              Psi4 1.0.54 Driver

  ==> Input File <==

--------------------------------------------------------------------------
set {
	reference rhf
	basis cc-pvtz
}

set_num_threads( 4 )
memory 2 gb

molecule MOL {
0 1

H	 3.721907	 -0.933076	 -0.066039
O	 2.824271	 -1.154299	 0.131461
C	 2.076458	 -0.067370	 -0.038225
C	 0.626018	 -0.337582	 0.258241
O	 2.538288	 0.965419	 -0.381593
C	 -0.267326	 0.883135	 0.076490
H	 0.325620	 -1.161483	 -0.378003
H	 0.574537	 -0.713685	 1.275261
C	 -1.726822	 0.642622	 0.463839
H	 -0.210803	 1.217591	 -0.953497
H	 0.129920	 1.693110	 0.675679
C	 -2.756161	 1.342562	 -0.421929
H	 -1.863626	 0.982120	 1.486229
H	 -1.928117	 -0.426420	 0.472622
C	 -4.186038	 1.152622	 0.073903
H	 -2.527544	 2.404192	 -0.463300
H	 -2.685977	 0.974717	 -1.440615
H	 -4.895338	 1.659951	 -0.569677
H	 -4.307764	 1.547252	 1.076972
H	 -4.454950	 0.101798	 0.098602

	symmetry c1
}
set optking {
	frozen_dihedral = ("
		12 9 6 10
	")
}

ee,wfn = optimize('scf', return_wfn=True)
oeprop( wfn, 'DIPOLE', 'QUADRUPOLE', 'MULLIKEN_CHARGES')
f=open( 'psi4out.xyz', 'w' )
f.write( "20  " )
f.write( str(ee) + "\n" )
f.write( MOL.save_string_xyz() )
f.close()
--------------------------------------------------------------------------

    Molecular point group: c1
  Charge       = 0
  Multiplicity = 1
  Basis Set: CC-PVTZ
  Basis Set:
  @DF-RHF Final Energy:  -384.09238505990737
    Total Energy =                       -384.0923850599074285
    Molecular point group: c1
  Basis Set: CC-PVTZ
  Basis Set:
  Basis Set: CC-PVTZ
  Basis Set:
  @DF-RHF Final Energy:  -384.09292072257210
    Total Energy =                       -384.0929207225727851
  Basis Set: CC-PVTZ
  Basis Set:
  Basis Set: CC-PVTZ
  Basis Set:
  @DF-RHF Final Energy:  -384.09254935061745
    Total Energy =                       -384.0925493506173893
  Basis Set: CC-PVTZ
  Basis Set:
  Basis Set: CC-PVTZ
  Basis Set:
  @DF-RHF Final Energy:  -384.09297802982132
    Total Energy =                       -384.0929780298217793
  Basis Set: CC-PVTZ
  Basis Set:
  Basis Set: CC-PVTZ
  Basis Set:
  @DF-RHF Final Energy:  -384.09297736169674
    Total Energy =                       -384.0929773616965690
  Basis Set: CC-PVTZ
  Basis Set:
  Basis Set: CC-PVTZ
  Basis Set:
  @DF-RHF Final Energy:  -384.09298231513390
    Total Energy =                       -384.0929823151336677
  Basis Set: CC-PVTZ
  Basis Set:
  Charge       = 0
  Multiplicity = 1
  Basis Set: CC-PVTZ
  Basis Set:

    Orbital Energies (a.u.)
    -----------------------

    Doubly Occupied:

       1A    -20.604023     2A    -20.540673     3A    -11.373489
       4A    -11.239757     5A    -11.220397     6A    -11.218163
       7A    -11.216995     8A    -11.209208     9A     -1.477592
      10A     -1.369126    11A     -1.095858    12A     -1.044046
      13A     -0.959951    14A     -0.870087    15A     -0.806282
      16A     -0.791293    17A     -0.703853    18A     -0.690549
      19A     -0.668947    20A     -0.638428    21A     -0.599148
      22A     -0.596279    23A     -0.570392    24A     -0.563170
      25A     -0.542542    26A     -0.508958    27A     -0.491448
      28A     -0.484460    29A     -0.473545    30A     -0.467329
      31A     -0.461575    32A     -0.443966

  @DF-RHF Final Energy:  -384.09298240234494

   => Energetics <=

    Nuclear Repulsion Energy =            372.3433732318732723
    One-Electron Energy =               -1260.9896534803756367
    Two-Electron Energy =                 504.5532978461577613
    DFT Exchange-Correlation Energy =       0.0000000000000000
    Empirical Dispersion Energy =           0.0000000000000000
    PCM Polarization Energy =               0.0000000000000000
    EFP Energy =                            0.0000000000000000
    Total Energy =                       -384.0929824023445462
    Molecular point group: c1
  Basis Set: CC-PVTZ
  Basis Set:

  -Total Gradient:
     Atom            X                  Y                   Z
    ------   -----------------  -----------------  -----------------
       1        0.000011953049    -0.000005116795     0.000000087467
       2        0.000010571504     0.000002877823    -0.000008696228
       3       -0.000021481120     0.000022805599    -0.000001549157
       4       -0.000003559209    -0.000003710802    -0.000012914495
       5        0.000009662313    -0.000021569101     0.000005704632
       6        0.000236873869    -0.005807218925    -0.002245674866
       7       -0.000001825344     0.000000481787     0.000007669060
       8       -0.000002152006     0.000005937712     0.000005450832
       9        0.000154190820     0.004274667667     0.002784857785
      10       -0.000243777953     0.003915062545     0.001253280310
      11       -0.000001410394    -0.000001795727    -0.000001340032
      12       -0.000158601487    -0.002375440957    -0.001782585732
      13        0.000008525710     0.000003157685    -0.000003541587
      14       -0.000003546040    -0.000004363858     0.000001662708
      15        0.000000261142    -0.000006833215    -0.000005331340
      16        0.000000331466     0.000002046368     0.000003148714
      17        0.000001206623    -0.000000902910     0.000000225180
      18        0.000001542767    -0.000001154072    -0.000001439509
      19        0.000002834950     0.000002237752    -0.000000666120
      20       -0.000001600661    -0.000001168581     0.000001652375

  **** Optimization is complete! (in 7 steps) ****
    Final optimized geometry and variables:
    Molecular point group: c1

    Geometry (in Angstrom), charge = 0, multiplicity = 1:

    H            3.741425537869    -1.435313884310    -0.166098698360
    O            2.847004879043    -1.623639249610     0.075352140964
    C            2.123403682930    -0.521152886135    -0.098217146514
    C            0.679568446030    -0.739212211003     0.265266412389
    O            2.598198995965     0.486964754190    -0.493489653450
    C           -0.193516188424     0.491841347346     0.078148257872
    H            0.321577383418    -1.571233170916    -0.332116576128
    H            0.657547796293    -1.083980227328     1.294226940713
    C           -1.651443749415     0.264378089552     0.506317505625
    H           -0.152474480251     0.825712604287    -0.951748296551
    H            0.229881730873     1.310499170035     0.648184755344
    C           -2.661484404176     0.991259021541    -0.377969509713
    H           -1.783104053473     0.565695947102     1.540978144348
    H           -1.881354958635    -0.798132510802     0.474357041360
    C           -4.104021672200     0.797398465282     0.075466960128
    H           -2.428684665648     2.052707558825    -0.396682313088
    H           -2.551823134707     0.638612452663    -1.399411697487
    H           -4.794299036557     1.315148844757    -0.580384478166
    H           -4.253414509725     1.178814736727     1.080052112352
    H           -4.375779819582    -0.253144675674     0.078474150042

  Mulliken Charges: (a.u.)
   Center  Symbol    Alpha    Beta     Spin     Total
       1     H     0.38238  0.38238  0.00000  0.23524
       2     O     4.15990  4.15990  0.00000 -0.31980
       3     C     2.80619  2.80619  0.00000  0.38761
       4     C     3.11061  3.11061  0.00000 -0.22123
       5     O     4.19107  4.19107  0.00000 -0.38215
       6     C     3.08939  3.08939  0.00000 -0.17879
       7     H     0.43781  0.43781  0.00000  0.12437
       8     H     0.43646  0.43646  0.00000  0.12708
       9     C     3.09057  3.09057  0.00000 -0.18114
      10     H     0.44550  0.44550  0.00000  0.10899
      11     H     0.44411  0.44411  0.00000  0.11178
      12     C     3.08409  3.08409  0.00000 -0.16817
      13     H     0.45090  0.45090  0.00000  0.09819
      14     H     0.45730  0.45730  0.00000  0.08539
      15     C     3.15034  3.15034  0.00000 -0.30069
      16     H     0.45179  0.45179  0.00000  0.09642
      17     H     0.45379  0.45379  0.00000  0.09243
      18     H     0.44769  0.44769  0.00000  0.10462
      19     H     0.45471  0.45471  0.00000  0.09058
      20     H     0.45537  0.45537  0.00000  0.08925

   Total alpha = 32.00000, Total beta = 32.00000, Total charge =  0.00000

*** Psi4 exiting successfully. Buy a developer a beer!
