                              Psi4 1.0.54 Driver

  ==> Input File <==

--------------------------------------------------------------------------
set {
	reference rhf
	basis cc-pvtz
}

set_num_threads( 4 )
memory 2 gb

molecule MOL {
0 1

H	 -2.824033	 -0.272434	 0.822196
C	 -2.653412	 0.377902	 -0.032693
O	 -1.300767	 0.488344	 -0.325432
H	 -3.144972	 -0.046566	 -0.895875
H	 -3.097280	 1.348810	 0.179917
C	 -0.534885	 1.033207	 0.698377
C	 0.923094	 1.008617	 0.313622
H	 -0.833308	 2.064776	 0.884870
H	 -0.670748	 0.472789	 1.620821
O	 1.401606	 -0.295166	 0.366636
H	 1.035728	 1.419600	 -0.687296
H	 1.480560	 1.643462	 1.002227
C	 2.714315	 -0.441627	 -0.061017
H	 2.765292	 -0.641548	 -1.128869
H	 3.305661	 0.447341	 0.150952
H	 3.143725	 -1.278506	 0.470147

	symmetry c1
}
set optking {
	frozen_dihedral = ("
		7 10 13 14
	")
}

ee,wfn = optimize('scf', return_wfn=True)
oeprop( wfn, 'DIPOLE', 'QUADRUPOLE', 'MULLIKEN_CHARGES')
f=open( 'psi4out.xyz', 'w' )
f.write( "16  " )
f.write( str(ee) + "\n" )
f.write( MOL.save_string_xyz() )
f.close()
--------------------------------------------------------------------------

    Molecular point group: c1
  Charge       = 0
  Multiplicity = 1
  Basis Set: CC-PVTZ
  Basis Set:
  @DF-RHF Final Energy:  -307.09613951075767
    Total Energy =                       -307.0961395107576664
    Molecular point group: c1
  Basis Set: CC-PVTZ
  Basis Set:
  Basis Set: CC-PVTZ
  Basis Set:
  @DF-RHF Final Energy:  -307.09622444077286
    Total Energy =                       -307.0962244407726871
  Basis Set: CC-PVTZ
  Basis Set:
  Charge       = 0
  Multiplicity = 1
  Basis Set: CC-PVTZ
  Basis Set:

    Orbital Energies (a.u.)
    -----------------------

    Doubly Occupied:

       1A    -20.547666     2A    -20.546100     3A    -11.267604
       4A    -11.266756     5A    -11.261484     6A    -11.261258
       7A     -1.390595     8A     -1.373152     9A     -1.031958
      10A     -0.937240    11A     -0.892164    12A     -0.824076
      13A     -0.685772    14A     -0.682049    15A     -0.659045
      16A     -0.636704    17A     -0.631591    18A     -0.597992
      19A     -0.551971    20A     -0.538270    21A     -0.509050
      22A     -0.479448    23A     -0.464495    24A     -0.421689
      25A     -0.412315

  @DF-RHF Final Energy:  -307.09623659391855

   => Energetics <=

    Nuclear Repulsion Energy =            258.7543091763816392
    One-Electron Energy =                -931.9602020711729438
    Two-Electron Energy =                 366.1096563008726434
    DFT Exchange-Correlation Energy =       0.0000000000000000
    Empirical Dispersion Energy =           0.0000000000000000
    PCM Polarization Energy =               0.0000000000000000
    EFP Energy =                            0.0000000000000000
    Total Energy =                       -307.0962365939186611
    Molecular point group: c1
  Basis Set: CC-PVTZ
  Basis Set:

  -Total Gradient:
     Atom            X                  Y                   Z
    ------   -----------------  -----------------  -----------------
       1        0.000001730092    -0.000000465505    -0.000000260321
       2       -0.000005101305     0.000000861487    -0.000001880142
       3       -0.000027845350     0.000000584281    -0.000005770061
       4        0.000002035516     0.000001030923     0.000000436753
       5       -0.000001301839     0.000001045610    -0.000000291541
       6        0.000068018222    -0.000106996921    -0.000031861700
       7        0.000739406225     0.000535488029     0.002216309872
       8        0.000057801682    -0.000013539374    -0.000019885844
       9       -0.000014657418    -0.000002933859     0.000028298786
      10       -0.001087242156    -0.001345013478    -0.002938365366
      11       -0.000016829822    -0.000011877606    -0.000003529979
      12       -0.000014959269     0.000005348258     0.000001560009
      13        0.000431624464     0.003767044290     0.000217104116
      14       -0.000125053901    -0.002856731394     0.000526178040
      15        0.000014652820    -0.000007195733     0.000014164488
      16       -0.000022277962     0.000033350994    -0.000002207111

  **** Optimization is complete! (in 3 steps) ****
    Final optimized geometry and variables:
    Molecular point group: c1

    Geometry (in Angstrom), charge = 0, multiplicity = 1:

    H           -2.905462286140    -0.645329744279     0.679943532785
    C           -2.744522119808     0.001972041060    -0.179098881530
    O           -1.394271748968     0.122805930463    -0.478641085361
    H           -3.236259738965    -0.431311484114    -1.037785355898
    H           -3.195969610080     0.970055559608     0.030489080049
    C           -0.628522521253     0.679802674696     0.538727713897
    C            0.827839655564     0.665827484811     0.148201576722
    H           -0.934591165625     1.710000721856     0.720589623371
    H           -0.755587969827     0.123455543777     1.464904247476
    O            1.316120568630    -0.634743329607     0.210606435287
    H            0.930181118151     1.072865622486    -0.855443565607
    H            1.382451811168     1.308503862629     0.830850985182
    C            2.628946377988    -0.794662303390    -0.221289418277
    H            2.668333449210    -1.009175489118    -1.285806572084
    H            3.236346627112     0.081052953824    -0.010428396848
    H            3.053779295744    -1.639060146498     0.304796337750

  Mulliken Charges: (a.u.)
   Center  Symbol    Alpha    Beta     Spin     Total
       1     H     0.47015  0.47015  0.00000  0.05969
       2     C     3.03202  3.03202  0.00000 -0.06403
       3     O     4.17052  4.17052  0.00000 -0.34103
       4     H     0.44639  0.44639  0.00000  0.10722
       5     H     0.47369  0.47369  0.00000  0.05261
       6     C     2.96175  2.96175  0.00000  0.07651
       7     C     2.95977  2.95977  0.00000  0.08047
       8     H     0.47610  0.47610  0.00000  0.04780
       9     H     0.47098  0.47098  0.00000  0.05804
      10     O     4.17284  4.17284  0.00000 -0.34569
      11     H     0.47138  0.47138  0.00000  0.05724
      12     H     0.47530  0.47530  0.00000  0.04940
      13     C     3.03023  3.03023  0.00000 -0.06045
      14     H     0.46307  0.46307  0.00000  0.07387
      15     H     0.47466  0.47466  0.00000  0.05067
      16     H     0.45116  0.45116  0.00000  0.09768

   Total alpha = 25.00000, Total beta = 25.00000, Total charge =  0.00000

*** Psi4 exiting successfully. Buy a developer a beer!
