                              Psi4 1.0.54 Driver

  ==> Input File <==

--------------------------------------------------------------------------
set {
	reference rhf
	basis cc-pvtz
}

set_num_threads( 4 )
memory 2 gb

molecule MOL {
0 1

H	 -1.847826	 -0.155778	 0.622566
N	 -1.173824	 -0.310545	 -0.096857
C	 -0.022588	 0.563366	 0.065815
H	 -0.902282	 -1.270344	 -0.045238
C	 1.270420	 -0.230572	 -0.014245
H	 -0.045354	 1.293678	 -0.735129
H	 -0.043155	 1.123061	 1.001180
H	 1.336273	 -0.754933	 -0.959364
H	 2.130728	 0.422015	 0.082222
H	 1.323344	 -0.967006	 0.781773

	symmetry c1
}
set optking {
	frozen_dihedral = ("
		1 2 3 6
	")
}

ee,wfn = optimize('scf', return_wfn=True)
oeprop( wfn, 'DIPOLE', 'QUADRUPOLE', 'MULLIKEN_CHARGES')
f=open( 'psi4out.xyz', 'w' )
f.write( "10  " )
f.write( str(ee) + "\n" )
f.write( MOL.save_string_xyz() )
f.close()
--------------------------------------------------------------------------

    Molecular point group: c1
  Charge       = 0
  Multiplicity = 1
  Basis Set: CC-PVTZ
  Basis Set:
  @DF-RHF Final Energy:  -134.30061883539082
    Total Energy =                       -134.3006188353909067
    Molecular point group: c1
  Basis Set: CC-PVTZ
  Basis Set:
  Basis Set: CC-PVTZ
  Basis Set:
  @DF-RHF Final Energy:  -134.30099508662107
    Total Energy =                       -134.3009950866210147
  Basis Set: CC-PVTZ
  Basis Set:
  Basis Set: CC-PVTZ
  Basis Set:
  @DF-RHF Final Energy:  -134.30106511707754
    Total Energy =                       -134.3010651170775134
  Basis Set: CC-PVTZ
  Basis Set:
  Basis Set: CC-PVTZ
  Basis Set:
  @DF-RHF Final Energy:  -134.30106686135332
    Total Energy =                       -134.3010668613533198
  Basis Set: CC-PVTZ
  Basis Set:
  Charge       = 0
  Multiplicity = 1
  Basis Set: CC-PVTZ
  Basis Set:

    Orbital Energies (a.u.)
    -----------------------

    Doubly Occupied:

       1A    -15.524526     2A    -11.240950     3A    -11.211157
       4A     -1.175508     5A     -0.990609     6A     -0.830313
       7A     -0.662723     8A     -0.618132     9A     -0.594633
      10A     -0.528953    11A     -0.504828    12A     -0.492115
      13A     -0.381059

  @DF-RHF Final Energy:  -134.30106699539070

   => Energetics <=

    Nuclear Repulsion Energy =             83.4320003621270700
    One-Electron Energy =                -345.9551224505545406
    Two-Electron Energy =                 128.2220550930367438
    DFT Exchange-Correlation Energy =       0.0000000000000000
    Empirical Dispersion Energy =           0.0000000000000000
    PCM Polarization Energy =               0.0000000000000000
    EFP Energy =                            0.0000000000000000
    Total Energy =                       -134.3010669953907552
    Molecular point group: c1
  Basis Set: CC-PVTZ
  Basis Set:

  -Total Gradient:
     Atom            X                  Y                   Z
    ------   -----------------  -----------------  -----------------
       1        0.000685878656    -0.001086016898     0.000918731274
       2       -0.000706123774     0.001154193561    -0.001373694326
       3       -0.000774214451     0.000824118754     0.001269349216
       4        0.000010258799    -0.000008254289     0.000008002501
       5        0.000003001277    -0.000003996658    -0.000005713375
       6        0.000778526160    -0.000896431775    -0.000805285415
       7        0.000003887199     0.000004021134    -0.000000716281
       8        0.000000345315    -0.000002578930    -0.000000126636
       9        0.000005442517     0.000004275954     0.000000664674
      10       -0.000007001698     0.000010669149    -0.000011211633

  **** Optimization is complete! (in 5 steps) ****
    Final optimized geometry and variables:
    Molecular point group: c1

    Geometry (in Angstrom), charge = 0, multiplicity = 1:

    H           -1.879610049168    -0.158279910384     0.595538026040
    N           -1.194556570753    -0.308520567142    -0.111902479581
    C           -0.038824824569     0.569911581788     0.056610930702
    H           -0.929485127622    -1.268268192303    -0.059579300454
    C            1.274778600726    -0.195432374885     0.009204734485
    H           -0.035534893289     1.306468832088    -0.740192764538
    H           -0.099555856195     1.117203323144     0.992434820338
    H            1.358382205091    -0.752812068249    -0.917917858450
    H            2.119156210484     0.481315413039     0.067626902581
    H            1.347945046415    -0.897794334670     0.833246571590

  Mulliken Charges: (a.u.)
   Center  Symbol    Alpha    Beta     Spin     Total
       1     H     0.42859  0.42859  0.00000  0.14281
       2     N     3.69113  3.69113  0.00000 -0.38226
       3     C     3.01239  3.01239  0.00000 -0.02479
       4     H     0.43023  0.43023  0.00000  0.13954
       5     C     3.14699  3.14699  0.00000 -0.29398
       6     H     0.46416  0.46416  0.00000  0.07168
       7     H     0.46493  0.46493  0.00000  0.07014
       8     H     0.45164  0.45164  0.00000  0.09673
       9     H     0.45189  0.45189  0.00000  0.09623
      10     H     0.45805  0.45805  0.00000  0.08390

   Total alpha = 13.00000, Total beta = 13.00000, Total charge =  0.00000

*** Psi4 exiting successfully. Buy a developer a beer!
