                              Psi4 1.0.54 Driver

  ==> Input File <==

--------------------------------------------------------------------------
set {
	reference rhf
	basis cc-pvtz
}

set_num_threads( 4 )
memory 2 gb

molecule MOL {
0 1

H	 -2.816458	 -0.841657	 -0.064679
N	 -1.878861	 -0.711874	 0.250184
C	 -1.341419	 0.551458	 -0.220231
H	 -1.333674	 -1.468530	 -0.105118
C	 0.082190	 0.731516	 0.254705
H	 -1.357065	 0.652078	 -1.304747
H	 -1.939897	 1.357530	 0.189797
O	 0.881195	 -0.248324	 -0.336237
H	 0.440901	 1.722476	 -0.020063
H	 0.119896	 0.643586	 1.338114
C	 1.839458	 -0.796014	 0.506963
H	 2.394358	 -1.533364	 -0.054986
H	 2.531836	 -0.038153	 0.867454
H	 1.382667	 -1.281070	 1.366396

	symmetry c1
}
set optking {
	frozen_dihedral = ("
		11 8 5 3
	")
}

ee,wfn = optimize('scf', return_wfn=True)
oeprop( wfn, 'DIPOLE', 'QUADRUPOLE', 'MULLIKEN_CHARGES')
f=open( 'psi4out.xyz', 'w' )
f.write( "14  " )
f.write( str(ee) + "\n" )
f.write( MOL.save_string_xyz() )
f.close()
--------------------------------------------------------------------------

    Molecular point group: c1
  Charge       = 0
  Multiplicity = 1
  Basis Set: CC-PVTZ
  Basis Set:
  @DF-RHF Final Energy:  -248.22358756181626
    Total Energy =                       -248.2235875618162027
    Molecular point group: c1
  Basis Set: CC-PVTZ
  Basis Set:
  Basis Set: CC-PVTZ
  Basis Set:
  @DF-RHF Final Energy:  -248.22377491957658
    Total Energy =                       -248.2237749195767265
  Basis Set: CC-PVTZ
  Basis Set:
  Basis Set: CC-PVTZ
  Basis Set:
  @DF-RHF Final Energy:  -248.22382384721649
    Total Energy =                       -248.2238238472165790
  Basis Set: CC-PVTZ
  Basis Set:
  Basis Set: CC-PVTZ
  Basis Set:
  @DF-RHF Final Energy:  -248.22382546191031
    Total Energy =                       -248.2238254619101099
  Basis Set: CC-PVTZ
  Basis Set:
  Charge       = 0
  Multiplicity = 1
  Basis Set: CC-PVTZ
  Basis Set:

    Orbital Energies (a.u.)
    -----------------------

    Doubly Occupied:

       1A    -20.547626     2A    -15.525637     3A    -11.262985
       4A    -11.262419     5A    -11.239789     6A     -1.380009
       7A     -1.177310     8A     -1.000311     9A     -0.907315
      10A     -0.814943    11A     -0.686588    12A     -0.671466
      13A     -0.645920    14A     -0.616276    15A     -0.603673
      16A     -0.540831    17A     -0.531148    18A     -0.500742
      19A     -0.472831    20A     -0.417074    21A     -0.384549

  @DF-RHF Final Energy:  -248.22382564934068

   => Energetics <=

    Nuclear Repulsion Energy =            195.5959756856940146
    One-Electron Energy =                -725.2607243880798933
    Two-Electron Energy =                 281.4409230530451396
    DFT Exchange-Correlation Energy =       0.0000000000000000
    Empirical Dispersion Energy =           0.0000000000000000
    PCM Polarization Energy =               0.0000000000000000
    EFP Energy =                            0.0000000000000000
    Total Energy =                       -248.2238256493407107
    Molecular point group: c1
  Basis Set: CC-PVTZ
  Basis Set:

  -Total Gradient:
     Atom            X                  Y                   Z
    ------   -----------------  -----------------  -----------------
       1       -0.000020179376     0.000003571810    -0.000000416749
       2       -0.000000430894     0.000007605132     0.000005406262
       3       -0.000319623307    -0.001111514093     0.001424201856
       4        0.000014752072     0.000009058629     0.000003874326
       5       -0.000105293751     0.000846194169    -0.001703444430
       6       -0.000012696192    -0.000003662295     0.000014095441
       7       -0.000020900811    -0.000002547567     0.000002657127
       8        0.001850281794     0.001747632259    -0.000364574068
       9       -0.000003476807    -0.000000773044    -0.000003211723
      10       -0.000007863172    -0.000006032599     0.000003712533
      11       -0.001384584712    -0.001494711133     0.000609230938
      12        0.000003785196    -0.000002341652     0.000009257587
      13        0.000004682255     0.000002765253     0.000003878975
      14        0.000001547706     0.000004755132    -0.000004668075

  **** Optimization is complete! (in 5 steps) ****
    Final optimized geometry and variables:
    Molecular point group: c1

    Geometry (in Angstrom), charge = 0, multiplicity = 1:

    H           -2.754714223473    -0.709633802866    -0.119806868797
    N           -1.799755411847    -0.599562285880     0.146788058172
    C           -1.273399589264     0.671539795505    -0.315966662739
    H           -1.286347423960    -1.349679448780    -0.265261022408
    C            0.151830005394     0.854851691407     0.157915228398
    H           -1.298023246917     0.779188869406    -1.399750597920
    H           -1.875461216445     1.471159486300     0.102011737602
    O            0.964580372332    -0.131313839061    -0.413846326410
    H            0.518535638057     1.839278825119    -0.121790584495
    H            0.172035648197     0.779624568521     1.240678701922
    C            1.930586029607    -0.677698691065     0.424470622044
    H            2.473498422736    -1.421435984793    -0.141373651620
    H            2.635499239044     0.074867947187     0.770899249921
    H            1.479998542971    -1.154035859626     1.290702235323

  Mulliken Charges: (a.u.)
   Center  Symbol    Alpha    Beta     Spin     Total
       1     H     0.42970  0.42970  0.00000  0.14060
       2     N     3.69606  3.69606  0.00000 -0.39212
       3     C     3.02421  3.02421  0.00000 -0.04842
       4     H     0.42250  0.42250  0.00000  0.15500
       5     C     2.97028  2.97028  0.00000  0.05944
       6     H     0.46446  0.46446  0.00000  0.07109
       7     H     0.45812  0.45812  0.00000  0.08376
       8     O     4.18722  4.18722  0.00000 -0.37444
       9     H     0.46060  0.46060  0.00000  0.07880
      10     H     0.46866  0.46866  0.00000  0.06268
      11     C     3.03439  3.03439  0.00000 -0.06877
      12     H     0.44955  0.44955  0.00000  0.10089
      13     H     0.46763  0.46763  0.00000  0.06474
      14     H     0.46662  0.46662  0.00000  0.06676

   Total alpha = 21.00000, Total beta = 21.00000, Total charge = -0.00000

*** Psi4 exiting successfully. Buy a developer a beer!
