  ==> Input File <==

--------------------------------------------------------------------------
set {
	reference rhf
	basis 6-31G*
}

set_num_threads( 4 )
memory 2 gb

molecule MOL {
0 1

H	 2.746591	 -2.560117	 -3.728686
C	 2.361843	 -2.473637	 -2.717628
C	 1.136377	 -1.562011	 -2.671429
H	 2.119997	 -3.474238	 -2.370445
H	 3.163084	 -2.091460	 -2.091370
C	 0.564023	 -1.412292	 -1.265587
H	 0.357826	 -1.947275	 -3.322443
H	 1.404089	 -0.579367	 -3.056309
N	 -0.612941	 -0.565998	 -1.266093
H	 0.272543	 -2.389982	 -0.891254
H	 1.342975	 -1.042390	 -0.590468
C	 -1.217365	 -0.386708	 0.039277
H	 -0.378616	 0.329833	 -1.650306
C	 -2.452633	 0.504241	 -0.042481
H	 -1.505895	 -1.366118	 0.411386
H	 -0.514953	 0.027202	 0.770495
C	 -3.758029	 -0.289423	 -0.010781
H	 -2.394220	 1.093569	 -0.952170
H	 -2.440793	 1.210787	 0.785871
H	 -3.816659	 -0.981993	 -0.845726
H	 -4.617837	 0.370165	 -0.069296
H	 -3.847478	 -0.867502	 0.904682

	symmetry c1
}
set optking {
	frozen_dihedral = ("
		15 12 14 18
	")
}

ee = optimize('scf')
oeprop('DIPOLE', 'QUADRUPOLE', 'MULLIKEN_CHARGES')
f=open( 'psi4out.xyz', 'w' )
f.write( "22  " )
f.write( str(ee) + "\n" )
f.write( MOL.save_string_xyz() )
f.close()
--------------------------------------------------------------------------

    Molecular point group: c1
  Charge       = 0
  Multiplicity = 1
  Basis Set: 6-31G*
  Basis Set:
  @DF-RHF Final Energy:  -290.37823390899456
    Total Energy =                       -290.3782339089951279
    Molecular point group: c1
  Basis Set: 6-31G*
  Basis Set:
  Basis Set: 6-31G*
  Basis Set:
  @DF-RHF Final Energy:  -290.37875343508341
    Total Energy =                       -290.3787534350834107
  Basis Set: 6-31G*
  Basis Set:
  Basis Set: 6-31G*
  Basis Set:
  @DF-RHF Final Energy:  -290.37888193901421
    Total Energy =                       -290.3788819390145477
  Basis Set: 6-31G*
  Basis Set:
  Basis Set: 6-31G*
  Basis Set:
  @DF-RHF Final Energy:  -290.37888378101104
    Total Energy =                       -290.3788837810111545
  Basis Set: 6-31G*
  Basis Set:
  Basis Set: 6-31G*
  Basis Set:
  @DF-RHF Final Energy:  -290.37888539710207
    Total Energy =                       -290.3788853971017829
  Basis Set: 6-31G*
  Basis Set:
  Charge       = 0
  Multiplicity = 1
  Basis Set: 6-31G*
  Basis Set:

    Orbital Energies (a.u.)
    -----------------------

    Doubly Occupied:

       1A    -15.534169     2A    -11.238173     3A    -11.237867
       4A    -11.213768     5A    -11.213246     6A    -11.209863
       7A    -11.204289     8A     -1.205188     9A     -1.057432
      10A     -1.022950    11A     -0.926115    12A     -0.869551
      13A     -0.810196    14A     -0.793537    15A     -0.662353
      16A     -0.632886    17A     -0.613804    18A     -0.606864
      19A     -0.571232    20A     -0.563329    21A     -0.540309
      22A     -0.523133    23A     -0.505236    24A     -0.487684
      25A     -0.477167    26A     -0.474540    27A     -0.467153
      28A     -0.449777    29A     -0.358512

  @DF-RHF Final Energy:  -290.37888567625839

   => Energetics <=

    Nuclear Repulsion Energy =            315.6111210581747173
    One-Electron Energy =               -1017.0393693307108833
    Two-Electron Energy =                 411.0493625962778879
    DFT Exchange-Correlation Energy =       0.0000000000000000
    Empirical Dispersion Energy =           0.0000000000000000
    PCM Polarization Energy =               0.0000000000000000
    EFP Energy =                            0.0000000000000000
    Total Energy =                       -290.3788856762582782
    Molecular point group: c1
  Basis Set: 6-31G*
  Basis Set:

  -Total Gradient:
     Atom            X                  Y                   Z
    ------   -----------------  -----------------  -----------------
       1       -0.000004056712     0.000002744214     0.000000992112
       2       -0.000004037678    -0.000000393594     0.000008166441
       3       -0.000006055087     0.000009612986    -0.000002594890
       4        0.000000655220    -0.000001003308     0.000000285887
       5        0.000000621990     0.000000324614    -0.000000130958
       6       -0.000004293101    -0.000000350437     0.000005251883
       7       -0.000001008494    -0.000000739693    -0.000003874919
       8        0.000000553506     0.000001157067    -0.000001679815
       9        0.000011862942     0.000000745061     0.000000828328
      10       -0.000001688730    -0.000002984619     0.000001615356
      11        0.000001220735     0.000002396686     0.000000905961
      12        0.000332409454     0.000927479701     0.004470782397
      13        0.000003449812    -0.000000020194    -0.000005373889
      14        0.002260500291     0.003515293743     0.001644514247
      15       -0.000626405283    -0.001328483390    -0.003999147489
      16       -0.000003844587     0.000001419933    -0.000004205695
      17       -0.000007118973    -0.000001998011    -0.000005578472
      18       -0.001959302649    -0.003125407297    -0.002108527869
      19        0.000008938623    -0.000000647730     0.000002800908
      20        0.000000502150    -0.000002875431    -0.000003267468
      21       -0.000007029531    -0.000002941449     0.000002732377
      22        0.000004126105     0.000006671146    -0.000004494433

  **** Optimization is complete! (in 6 steps) ****
    Final optimized geometry and variables:
    Molecular point group: c1

    Geometry (in Angstrom), charge = 0, multiplicity = 1:

    H            3.257333219880    -1.701205285267    -2.618136786583
    C            2.885953652793    -1.610365128420    -1.602455938137
    C            1.678189246985    -0.676405418582    -1.539948293573
    H            2.629685326367    -2.607214261407    -1.254921551650
    H            3.701256180129    -1.244632523415    -0.984583406705
    C            1.124283335375    -0.520710313936    -0.127323782043
    H            0.885525589121    -1.045318814249    -2.183375174982
    H            1.959810401277     0.302327711452    -1.925000771092
    N           -0.037588788033     0.345852892105    -0.112543762404
    H            0.820751717865    -1.494401025875     0.248000279782
    H            1.917227894251    -0.165927055620     0.539789687746
    C           -0.617358367727     0.541337350460     1.206197715869
    H            0.208256682007     1.236240885329    -0.502176352189
    C           -1.890599031516     1.398725545624     1.119090141399
    H           -0.870056134958    -0.447711025685     1.576081035528
    H            0.096698311589     0.977581950666     1.909198551375
    C           -3.165855515599     0.555539054881     1.065512571635
    H           -1.849959831236     1.991709786307     0.209723044869
    H           -1.941519816041     2.088005095938     1.956615981415
    H           -3.123093118003    -0.143423258534     0.236264030344
    H           -4.045625720723     1.178518136952     0.934935315409
    H           -3.298017215872    -0.016462789733     1.979720066576

  Mulliken Charges: (a.u.)
   Center  Symbol    Alpha    Beta     Spin     Total
       1     H     0.41773  0.41773  0.00000  0.16454
       2     C     3.24325  3.24325  0.00000 -0.48651
       3     C     3.15560  3.15560  0.00000 -0.31119
       4     H     0.42067  0.42067  0.00000  0.15865
       5     H     0.42163  0.42163  0.00000  0.15673
       6     C     3.04681  3.04681  0.00000 -0.09362
       7     H     0.41309  0.41309  0.00000  0.17382
       8     H     0.42667  0.42667  0.00000  0.14665
       9     N     3.85785  3.85785  0.00000 -0.71570
      10     H     0.42177  0.42177  0.00000  0.15646
      11     H     0.43638  0.43638  0.00000  0.12725
      12     C     3.05538  3.05538  0.00000 -0.11075
      13     H     0.33523  0.33523  0.00000  0.32955
      14     C     3.15456  3.15456  0.00000 -0.30912
      15     H     0.41933  0.41933  0.00000  0.16135
      16     H     0.43226  0.43226  0.00000  0.13549
      17     C     3.24194  3.24194  0.00000 -0.48387
      18     H     0.41989  0.41989  0.00000  0.16023
      19     H     0.42179  0.42179  0.00000  0.15641
      20     H     0.41314  0.41314  0.00000  0.17372
      21     H     0.42143  0.42143  0.00000  0.15714
      22     H     0.42361  0.42361  0.00000  0.15278

   Total alpha = 29.00000, Total beta = 29.00000, Total charge = -0.00000
