                              Psi4 1.0.54 Driver

  ==> Input File <==

--------------------------------------------------------------------------
set {
	reference rhf
	basis cc-pvtz
}

set_num_threads( 4 )
memory 2 gb

molecule MOL {
0 1

H	 2.650298	 -0.781415	 0.799268
N	 2.433987	 -0.362316	 -0.080024
C	 1.263552	 0.494993	 0.021953
H	 2.276566	 -1.104562	 -0.729351
C	 -0.016533	 -0.325589	 -0.026925
H	 1.280915	 1.180773	 -0.818522
H	 1.263064	 1.106893	 0.925038
C	 -1.280353	 0.525521	 0.047747
H	 -0.016686	 -0.912532	 -0.939714
H	 -0.014099	 -1.037598	 0.796369
C	 -2.560681	 -0.301323	 -0.007747
H	 -1.279957	 1.241025	 -0.770189
H	 -1.270445	 1.110526	 0.963468
H	 -2.617064	 -0.872870	 -0.928010
H	 -3.439525	 0.331102	 0.043462
H	 -2.609427	 -1.002736	 0.818585

	symmetry c1
}
set optking {
	frozen_dihedral = ("
		1 2 3 6
	")
}

ee,wfn = optimize('scf', return_wfn=True)
oeprop( wfn, 'DIPOLE', 'QUADRUPOLE', 'MULLIKEN_CHARGES')
f=open( 'psi4out.xyz', 'w' )
f.write( "16  " )
f.write( str(ee) + "\n" )
f.write( MOL.save_string_xyz() )
f.close()
--------------------------------------------------------------------------

    Molecular point group: c1
  Charge       = 0
  Multiplicity = 1
  Basis Set: CC-PVTZ
  Basis Set:
  @DF-RHF Final Energy:  -212.39748394146869
    Total Energy =                       -212.3974839414686926
    Molecular point group: c1
  Basis Set: CC-PVTZ
  Basis Set:
  Basis Set: CC-PVTZ
  Basis Set:
  @DF-RHF Final Energy:  -212.39339933487142
    Total Energy =                       -212.3933993348713614
  Basis Set: CC-PVTZ
  Basis Set:
  Basis Set: CC-PVTZ
  Basis Set:
  @DF-RHF Final Energy:  -212.39951760287192
    Total Energy =                       -212.3995176028719811
  Basis Set: CC-PVTZ
  Basis Set:
  Basis Set: CC-PVTZ
  Basis Set:
  @DF-RHF Final Energy:  -212.39961975570085
    Total Energy =                       -212.3996197557007690
  Basis Set: CC-PVTZ
  Basis Set:
  Basis Set: CC-PVTZ
  Basis Set:
  @DF-RHF Final Energy:  -212.39962627853308
    Total Energy =                       -212.3996262785329918
  Basis Set: CC-PVTZ
  Basis Set:
  Charge       = 0
  Multiplicity = 1
  Basis Set: CC-PVTZ
  Basis Set:

    Orbital Energies (a.u.)
    -----------------------

    Doubly Occupied:

       1A    -15.525259     2A    -11.237966     3A    -11.215348
       4A    -11.211084     5A    -11.208372     6A     -1.177610
       7A     -1.062700     8A     -0.960166     9A     -0.848304
      10A     -0.796835    11A     -0.678822    12A     -0.627607
      13A     -0.598161    14A     -0.588955    15A     -0.555053
      16A     -0.526867    17A     -0.501296    18A     -0.487226
      19A     -0.471504    20A     -0.465546    21A     -0.377171

  @DF-RHF Final Energy:  -212.39962701139359

   => Energetics <=

    Nuclear Repulsion Energy =            186.3598665246890391
    One-Electron Energy =                -655.2752864870788017
    Two-Electron Energy =                 256.5157929509961718
    DFT Exchange-Correlation Energy =       0.0000000000000000
    Empirical Dispersion Energy =           0.0000000000000000
    PCM Polarization Energy =               0.0000000000000000
    EFP Energy =                            0.0000000000000000
    Total Energy =                       -212.3996270113935907
    Molecular point group: c1
  Basis Set: CC-PVTZ
  Basis Set:

  -Total Gradient:
     Atom            X                  Y                   Z
    ------   -----------------  -----------------  -----------------
       1        0.001464511422     0.001502375445     0.000842127107
       2       -0.001602402548    -0.001648718656    -0.000806551659
       3       -0.001112594796    -0.000854168705    -0.001498997942
       4       -0.000011379682     0.000057703999     0.000063662725
       5        0.000121475381    -0.000029692771     0.000003033070
       6        0.001189092549     0.000960284499     0.001351746154
       7        0.000008058418    -0.000000911896     0.000024656636
       8        0.000009305292     0.000000820895    -0.000000694125
       9       -0.000000072364     0.000000567052     0.000030106356
      10       -0.000012058659    -0.000004663435    -0.000007426847
      11       -0.000022995754     0.000018531871    -0.000017899265
      12        0.000000825880     0.000004092792     0.000008195642
      13       -0.000006204466    -0.000010340855    -0.000002536932
      14        0.000003486060    -0.000001444513     0.000006809240
      15       -0.000029915363     0.000002630650    -0.000003283305
      16        0.000000868627     0.000002933629     0.000007053145

  **** Optimization is complete! (in 6 steps) ****
    Final optimized geometry and variables:
    Molecular point group: c1

    Geometry (in Angstrom), charge = 0, multiplicity = 1:

    H            2.558351600724    -1.279179330421     0.558305643436
    N            2.410661760255    -0.675513171325    -0.221264915603
    C            1.328361502384     0.260728927834     0.027113366601
    H            2.236198271170    -1.241162562773    -1.024265435437
    C           -0.080099869721    -0.317356233559    -0.072161136513
    H            1.433552396326     1.095816666439    -0.658563062902
    H            1.478198305646     0.676877512023     1.018120941384
    C           -1.174879627320     0.711677657222     0.193905368024
    H           -0.219042433038    -0.743080341200    -1.064088983136
    H           -0.176085947571    -1.142040320786     0.630703925277
    C           -2.582052097071     0.133933794943     0.083668797378
    H           -1.069484496154     1.536866564202    -0.505087322513
    H           -1.036922248439     1.134356460023     1.185493166085
    H           -2.763941703466    -0.265882887362    -0.908346452979
    H           -3.333924273683     0.890154454557     0.277990020692
    H           -2.731173340878    -0.671208667258     0.795417844033

  Mulliken Charges: (a.u.)
   Center  Symbol    Alpha    Beta     Spin     Total
       1     H     0.43026  0.43026  0.00000  0.13949
       2     N     3.69314  3.69314  0.00000 -0.38628
       3     C     3.02752  3.02752  0.00000 -0.05504
       4     H     0.43036  0.43036  0.00000  0.13929
       5     C     3.08475  3.08475  0.00000 -0.16951
       6     H     0.45379  0.45379  0.00000  0.09241
       7     H     0.45539  0.45539  0.00000  0.08923
       8     C     3.08976  3.08976  0.00000 -0.17953
       9     H     0.45980  0.45980  0.00000  0.08040
      10     H     0.45961  0.45961  0.00000  0.08078
      11     C     3.14858  3.14858  0.00000 -0.29715
      12     H     0.45430  0.45430  0.00000  0.09139
      13     H     0.45448  0.45448  0.00000  0.09104
      14     H     0.45492  0.45492  0.00000  0.09017
      15     H     0.44831  0.44831  0.00000  0.10337
      16     H     0.45503  0.45503  0.00000  0.08994

   Total alpha = 21.00000, Total beta = 21.00000, Total charge = -0.00000

*** Psi4 exiting successfully. Buy a developer a beer!
