  ==> Input File <==

--------------------------------------------------------------------------
set {
	reference rhf
	basis 6-31G*
}

set_num_threads( 4 )
memory 2 gb

molecule MOL {
0 1

H	 1.257160	 -1.344984	 1.880582
O	 0.578748	 -0.782455	 1.535607
C	 1.135793	 0.118896	 0.612333
C	 0.031547	 1.023609	 0.088541
H	 1.584370	 -0.418540	 -0.221233
H	 1.923257	 0.705906	 1.079689
C	 -1.134819	 0.293262	 -0.585751
H	 0.474374	 1.714721	 -0.623187
H	 -0.338529	 1.620940	 0.920081
C	 -1.917817	 -0.639439	 0.339494
H	 -0.758119	 -0.268455	 -1.433105
H	 -1.813832	 1.041889	 -0.986690
H	 -2.777680	 -1.057197	 -0.174994
H	 -1.310268	 -1.471279	 0.680599
H	 -2.283753	 -0.111424	 1.216626

	symmetry c1
}
set optking {
	frozen_dihedral = ("
		2 3 4 8
	")
}

ee = optimize('scf')
oeprop('DIPOLE', 'QUADRUPOLE', 'MULLIKEN_CHARGES')
f=open( 'psi4out.xyz', 'w' )
f.write( "15  " )
f.write( str(ee) + "\n" )
f.write( MOL.save_string_xyz() )
f.close()
--------------------------------------------------------------------------

    Molecular point group: c1
  Charge       = 0
  Multiplicity = 1
  Basis Set: 6-31G*
  Basis Set:
  @DF-RHF Final Energy:  -232.13876555570354
    Total Energy =                       -232.1387655557037419
    Molecular point group: c1
  Basis Set: 6-31G*
  Basis Set:
  Basis Set: 6-31G*
  Basis Set:
  @DF-RHF Final Energy:  -232.14129338057901
    Total Energy =                       -232.1412933805790431
  Basis Set: 6-31G*
  Basis Set:
  Basis Set: 6-31G*
  Basis Set:
  @DF-RHF Final Energy:  -232.14191786402085
    Total Energy =                       -232.1419178640207974
  Basis Set: 6-31G*
  Basis Set:
  Basis Set: 6-31G*
  Basis Set:
  @DF-RHF Final Energy:  -232.14210709608938
    Total Energy =                       -232.1421070960894326
  Basis Set: 6-31G*
  Basis Set:
  Basis Set: 6-31G*
  Basis Set:
  @DF-RHF Final Energy:  -232.14212866646676
    Total Energy =                       -232.1421286664670447
  Basis Set: 6-31G*
  Basis Set:
  Basis Set: 6-31G*
  Basis Set:
  @DF-RHF Final Energy:  -232.14213006611340
    Total Energy =                       -232.1421300661135660
  Basis Set: 6-31G*
  Basis Set:
  Charge       = 0
  Multiplicity = 1
  Basis Set: 6-31G*
  Basis Set:

    Orbital Energies (a.u.)
    -----------------------

    Doubly Occupied:

       1A    -20.554698     2A    -11.269213     3A    -11.213611
       4A    -11.210274     5A    -11.193052     6A     -1.361589
       7A     -1.060830     8A     -0.970208     9A     -0.859325
      10A     -0.778646    11A     -0.705070    12A     -0.645338
      13A     -0.601949    14A     -0.581489    15A     -0.546222
      16A     -0.536301    17A     -0.509215    18A     -0.468930
      19A     -0.465173    20A     -0.449030    21A     -0.429516

  @DF-RHF Final Energy:  -232.14213072789659

   => Energetics <=

    Nuclear Repulsion Energy =            192.3805750005121240
    One-Electron Energy =                -696.2260518165904841
    Two-Electron Energy =                 271.7033460881816609
    DFT Exchange-Correlation Energy =       0.0000000000000000
    Empirical Dispersion Energy =           0.0000000000000000
    PCM Polarization Energy =               0.0000000000000000
    EFP Energy =                            0.0000000000000000
    Total Energy =                       -232.1421307278966992
    Molecular point group: c1
  Basis Set: 6-31G*
  Basis Set:

  -Total Gradient:
     Atom            X                  Y                   Z
    ------   -----------------  -----------------  -----------------
       1        0.000002542915     0.000004340227    -0.000003629777
       2       -0.000186207415    -0.000827649590    -0.001106157282
       3        0.000228182239     0.000903310919     0.001197906743
       4        0.000235313514     0.000973364570     0.001307640652
       5       -0.000011072686    -0.000007507486     0.000001050337
       6        0.000007321737    -0.000005732886     0.000007528680
       7       -0.000005506484    -0.000007710041    -0.000009215652
       8       -0.000242054317    -0.001047637971    -0.001379265829
       9        0.000002709216    -0.000002125404     0.000004347605
      10       -0.000013780125     0.000067159507    -0.000018116372
      11        0.000000709241     0.000002365095     0.000012355436
      12       -0.000032602042    -0.000028258768     0.000001869264
      13       -0.000016377476    -0.000012310354    -0.000009978763
      14        0.000024132985    -0.000013129567    -0.000009351210
      15        0.000006688696     0.000001521751     0.000003016169

  **** Optimization is complete! (in 7 steps) ****
    Final optimized geometry and variables:
    Molecular point group: c1

    Geometry (in Angstrom), charge = 0, multiplicity = 1:

    H            1.764759672105    -1.343931551636     1.271760065743
    O            1.008637152115    -0.832410612209     1.021453670735
    C            1.407558981879     0.204347991088     0.161585090358
    C            0.204488778167     1.036300668949    -0.254906819835
    H            1.884699177551    -0.207731953312    -0.726972326132
    H            2.134980910117     0.847363696324     0.654145987513
    C           -0.903305645393     0.271927983775    -0.997094965792
    H            0.583558598598     1.814313272312    -0.914505102988
    H           -0.208055827756     1.532966704879     0.619316973821
    C           -1.873404083483    -0.500202744458    -0.101149045009
    H           -0.449389371620    -0.407532318347    -1.715818583464
    H           -1.473757876407     0.989655755244    -1.581818994858
    H           -2.650917946332    -0.968234894774    -0.698670122282
    H           -1.366223640049    -1.268688776769     0.465182099521
    H           -2.360026712945     0.168617963875     0.603938132739

  Mulliken Charges: (a.u.)
   Center  Symbol    Alpha    Beta     Spin     Total
       1     H     0.28046  0.28046  0.00000  0.43909
       2     O     4.36848  4.36848  0.00000 -0.73697
       3     C     2.99481  2.99481  0.00000  0.01037
       4     C     3.16227  3.16227  0.00000 -0.32454
       5     H     0.43283  0.43283  0.00000  0.13433
       6     H     0.43006  0.43006  0.00000  0.13988
       7     C     3.15178  3.15178  0.00000 -0.30356
       8     H     0.42247  0.42247  0.00000  0.15507
       9     H     0.41596  0.41596  0.00000  0.16808
      10     C     3.23989  3.23989  0.00000 -0.47978
      11     H     0.42430  0.42430  0.00000  0.15140
      12     H     0.42301  0.42301  0.00000  0.15399
      13     H     0.42612  0.42612  0.00000  0.14777
      14     H     0.40162  0.40162  0.00000  0.19677
      15     H     0.42595  0.42595  0.00000  0.14810

   Total alpha = 21.00000, Total beta = 21.00000, Total charge =  0.00000
