  ==> Input File <==

--------------------------------------------------------------------------
set {
	reference rhf
	basis 6-31G*
}

set_num_threads( 1 )
memory 2 gb

molecule MOL {
0 1

H	 -2.812782	 0.051825	 0.708381
C	 -2.530163	 0.917018	 0.111968
O	 -1.155080	 0.966623	 -0.093029
H	 -3.002010	 0.842700	 -0.858073
H	 -2.893433	 1.814079	 0.611711
C	 -0.407488	 1.070910	 1.077219
C	 1.063144	 1.005668	 0.737823
H	 -0.618280	 2.016945	 1.577499
H	 -0.652557	 0.265155	 1.766207
O	 1.392611	 -0.295398	 0.366430
H	 1.276314	 1.704201	 -0.068786
H	 1.645760	 1.309365	 1.608466
C	 2.706965	 -0.449871	 -0.062409
H	 2.756559	 -0.644779	 -1.131878
H	 3.305899	 0.433456	 0.155466
H	 3.125548	 -1.294566	 0.467107

	symmetry c1
}
set optking {
	frozen_dihedral = ("
		3 6 7 11,
		2 3 6 7
	")
}

ee = energy('scf')
oeprop('DIPOLE', 'QUADRUPOLE', 'MULLIKEN_CHARGES')
f=open( 'psi4out.xyz', 'w' )
f.write( "16  " )
f.write( str(ee) + "\n" )
f.write( MOL.save_string_xyz() )
f.close()
--------------------------------------------------------------------------

    Molecular point group: c1

    Geometry (in Angstrom), charge = 0, multiplicity = 1:

       Center              X                  Y                   Z               Mass
    ------------   -----------------  -----------------  -----------------  -----------------
           H         -2.989720127543    -0.478996994195     0.357289021088     1.007825032070
           C         -2.707101127543     0.386196005805    -0.239123978912    12.000000000000
           O         -1.332018127543     0.435801005805    -0.444120978912    15.994914619560
           H         -3.178948127543     0.311878005805    -1.209164978912     1.007825032070
           H         -3.070371127543     1.283257005805     0.260619021088     1.007825032070
           C         -0.584426127543     0.540088005805     0.726127021088    12.000000000000
           C          0.886205872457     0.474846005805     0.386731021088    12.000000000000
           H         -0.795218127543     1.486123005805     1.226407021088     1.007825032070
           H         -0.829495127543    -0.265666994195     1.415115021088     1.007825032070
           O          1.215672872457    -0.826219994195     0.015338021088    15.994914619560
           H          1.099375872457     1.173379005805    -0.419877978912     1.007825032070
           H          1.468821872457     0.778543005805     1.257374021088     1.007825032070
           C          2.530026872457    -0.980692994195    -0.413500978912    12.000000000000
           H          2.579620872457    -1.175600994195    -1.482969978912     1.007825032070
           H          3.128960872457    -0.097365994195    -0.195625978912     1.007825032070
           H          2.948609872457    -1.825387994195     0.116015021088     1.007825032070

  Charge       = 0
  Multiplicity = 1
  Basis Set: 6-31G*
  Basis Set:

    Orbital Energies (a.u.)
    -----------------------

    Doubly Occupied:

       1A    -20.553365     2A    -20.550567     3A    -11.269326
       4A    -11.268199     5A    -11.263355     6A    -11.262525
       7A     -1.387603     8A     -1.369951     9A     -1.030384
      10A     -0.935444    11A     -0.892087    12A     -0.824776
      13A     -0.682682    14A     -0.679649    15A     -0.657600
      16A     -0.633514    17A     -0.629468    18A     -0.596045
      19A     -0.552899    20A     -0.538289    21A     -0.506444
      22A     -0.478188    23A     -0.463417    24A     -0.417420
      25A     -0.407344

  @DF-RHF Final Energy:  -306.97369653624492

   => Energetics <=

    Nuclear Repulsion Energy =            258.8597273821374074
    One-Electron Energy =                -931.9656793457802451
    Two-Electron Energy =                 366.1322554273978653
    DFT Exchange-Correlation Energy =       0.0000000000000000
    Empirical Dispersion Energy =           0.0000000000000000
    PCM Polarization Energy =               0.0000000000000000
    EFP Energy =                            0.0000000000000000
    Total Energy =                       -306.9736965362449723

  Mulliken Charges: (a.u.)
   Center  Symbol    Alpha    Beta     Spin     Total
       1     H     0.42808  0.42808  0.00000  0.14385
       2     C     3.07946  3.07946  0.00000 -0.15891
       3     O     4.30087  4.30087  0.00000 -0.60173
       4     H     0.41135  0.41135  0.00000  0.17731
       5     H     0.43194  0.43194  0.00000  0.13612
       6     C     2.99347  2.99347  0.00000  0.01305
       7     C     2.99540  2.99540  0.00000  0.00920
       8     H     0.43245  0.43245  0.00000  0.13510
       9     H     0.42283  0.42283  0.00000  0.15434
      10     O     4.30262  4.30262  0.00000 -0.60524
      11     H     0.42218  0.42218  0.00000  0.15564
      12     H     0.43184  0.43184  0.00000  0.13631
      13     C     3.07688  3.07688  0.00000 -0.15376
      14     H     0.42090  0.42090  0.00000  0.15821
      15     H     0.43109  0.43109  0.00000  0.13782
      16     H     0.41865  0.41865  0.00000  0.16270

   Total alpha = 25.00000, Total beta = 25.00000, Total charge =  0.00000
