                              Psi4 1.0.54 Driver

  ==> Input File <==

--------------------------------------------------------------------------
set {
	reference rhf
	basis cc-pvtz
}

set_num_threads( 4 )
memory 2 gb

molecule MOL {
0 1

H	 -3.144994	 -1.202467	 -0.018751
O	 -2.321472	 -0.864941	 -0.318626
C	 -2.021813	 0.336996	 0.342658
C	 -0.669613	 0.837286	 -0.127252
H	 -2.780861	 1.084746	 0.127159
H	 -2.006390	 0.184138	 1.420053
C	 0.490865	 -0.082543	 0.241244
H	 -0.708709	 0.967192	 -1.204587
H	 -0.507562	 1.822272	 0.303070
C	 1.794631	 0.670772	 0.488871
H	 0.635849	 -0.808115	 -0.550956
H	 0.229274	 -0.647955	 1.133433
C	 2.953119	 -0.247040	 0.864784
H	 2.057237	 1.233965	 -0.402507
H	 1.645391	 1.403152	 1.278198
H	 3.149967	 -0.968764	 0.079112
H	 3.863818	 0.316861	 1.031956
H	 2.735617	 -0.800262	 1.772575

	symmetry c1
}
set optking {
	frozen_dihedral = ("
		10 7 4 8
	")
}

ee,wfn = optimize('scf', return_wfn=True)
oeprop( wfn, 'DIPOLE', 'QUADRUPOLE', 'MULLIKEN_CHARGES')
f=open( 'psi4out.xyz', 'w' )
f.write( "18  " )
f.write( str(ee) + "\n" )
f.write( MOL.save_string_xyz() )
f.close()
--------------------------------------------------------------------------

    Molecular point group: c1
  Charge       = 0
  Multiplicity = 1
  Basis Set: CC-PVTZ
  Basis Set:
  @DF-RHF Final Energy:  -271.28400494179152
    Total Energy =                       -271.2840049417915793
    Molecular point group: c1
  Basis Set: CC-PVTZ
  Basis Set:
  Basis Set: CC-PVTZ
  Basis Set:
  @DF-RHF Final Energy:  -271.28418986475242
    Total Energy =                       -271.2841898647525340
  Basis Set: CC-PVTZ
  Basis Set:
  Basis Set: CC-PVTZ
  Basis Set:
  @DF-RHF Final Energy:  -271.28428146431747
    Total Energy =                       -271.2842814643173597
  Basis Set: CC-PVTZ
  Basis Set:
  Basis Set: CC-PVTZ
  Basis Set:
  @DF-RHF Final Energy:  -271.28428309689582
    Total Energy =                       -271.2842830968959902
  Basis Set: CC-PVTZ
  Basis Set:
  Charge       = 0
  Multiplicity = 1
  Basis Set: CC-PVTZ
  Basis Set:

    Orbital Energies (a.u.)
    -----------------------

    Doubly Occupied:

       1A    -20.546010     2A    -11.265585     3A    -11.210297
       4A    -11.209887     5A    -11.205500     6A    -11.203105
       7A     -1.363984     8A     -1.075813     9A     -1.010199
      10A     -0.914156    11A     -0.819558    12A     -0.784671
      13A     -0.706262    14A     -0.650106    15A     -0.621954
      16A     -0.578477    17A     -0.574537    18A     -0.559658
      19A     -0.523883    20A     -0.507020    21A     -0.486074
      22A     -0.468082    23A     -0.458591    24A     -0.449187
      25A     -0.431414

  @DF-RHF Final Energy:  -271.28428327630093

   => Energetics <=

    Nuclear Repulsion Energy =            249.3231900860326675
    One-Electron Energy =                -861.9669202207196577
    Two-Electron Energy =                 341.3594468583861499
    DFT Exchange-Correlation Energy =       0.0000000000000000
    Empirical Dispersion Energy =           0.0000000000000000
    PCM Polarization Energy =               0.0000000000000000
    EFP Energy =                            0.0000000000000000
    Total Energy =                       -271.2842832763008118
    Molecular point group: c1
  Basis Set: CC-PVTZ
  Basis Set:

  -Total Gradient:
     Atom            X                  Y                   Z
    ------   -----------------  -----------------  -----------------
       1        0.000001723648     0.000003773095     0.000000402083
       2       -0.000005944495    -0.000035674748    -0.000032565283
       3       -0.000007881173     0.000044258890     0.000049378211
       4        0.002667955204     0.003894339793     0.001350073675
       5        0.000009684347    -0.000011999394    -0.000000040470
       6        0.000006477653     0.000007080645    -0.000015825891
       7        0.000358615940    -0.001138719708    -0.003838380914
       8       -0.002366543455    -0.003051745341    -0.000232829393
       9        0.000004013059    -0.000010274181    -0.000004046149
      10       -0.000662737785     0.000300105306     0.002716270447
      11       -0.000001209661     0.000009538817    -0.000001243219
      12       -0.000001624653     0.000001452313     0.000008903596
      13        0.000006190558    -0.000005476988    -0.000002611360
      14       -0.000004717612    -0.000002507599     0.000005695780
      15       -0.000005271906    -0.000005832645    -0.000004061340
      16        0.000000606968     0.000002357115     0.000004265380
      17        0.000000215428    -0.000001904924    -0.000000892452
      18        0.000000447928     0.000001229552    -0.000002492698

  **** Optimization is complete! (in 5 steps) ****
    Final optimized geometry and variables:
    Molecular point group: c1

    Geometry (in Angstrom), charge = 0, multiplicity = 1:

    H           -3.092254903037    -1.313353147610    -0.264416263566
    O           -2.270182885987    -0.962534663742    -0.552593889996
    C           -2.020885983368     0.267577204900     0.076550972384
    C           -0.663551133711     0.777485930187    -0.368417490714
    H           -2.788813760362     0.990379572157    -0.188223753276
    H           -2.036002324887     0.150852904526     1.158432975866
    C            0.494462424794    -0.151039708107     0.016711926378
    H           -0.703320476965     0.891440429375    -1.446864714770
    H           -0.517964880158     1.762984300231     0.063266084839
    C            1.807606421895     0.590768233244     0.253089668476
    H            0.625883265487    -0.908149510794    -0.747144241960
    H            0.235684836008    -0.687414517904     0.926242062062
    C            2.967549455900    -0.338677993971     0.593021194369
    H            2.060759428151     1.172878040783    -0.629713477930
    H            1.670664702705     1.306669417002     1.059014214632
    H            3.155591326002    -1.039889837443    -0.213052279384
    H            3.881089179991     0.218664873189     0.766605605138
    H            2.756823946626    -0.915517991834     1.487641326697

  Mulliken Charges: (a.u.)
   Center  Symbol    Alpha    Beta     Spin     Total
       1     H     0.39622  0.39622  0.00000  0.20757
       2     O     4.19921  4.19921  0.00000 -0.39843
       3     C     2.97213  2.97213  0.00000  0.05574
       4     C     3.09385  3.09385  0.00000 -0.18769
       5     H     0.46616  0.46616  0.00000  0.06768
       6     H     0.47495  0.47495  0.00000  0.05009
       7     C     3.08323  3.08323  0.00000 -0.16647
       8     H     0.45095  0.45095  0.00000  0.09811
       9     H     0.45411  0.45411  0.00000  0.09178
      10     C     3.08462  3.08462  0.00000 -0.16925
      11     H     0.44625  0.44625  0.00000  0.10751
      12     H     0.45723  0.45723  0.00000  0.08553
      13     C     3.14979  3.14979  0.00000 -0.29959
      14     H     0.45487  0.45487  0.00000  0.09026
      15     H     0.45690  0.45690  0.00000  0.08619
      16     H     0.45447  0.45447  0.00000  0.09105
      17     H     0.44945  0.44945  0.00000  0.10109
      18     H     0.45560  0.45560  0.00000  0.08880

   Total alpha = 25.00000, Total beta = 25.00000, Total charge =  0.00000

*** Psi4 exiting successfully. Buy a developer a beer!
