  ==> Input File <==

--------------------------------------------------------------------------
set {
	reference rhf
	basis 6-31G*
}

set_num_threads( 1 )
memory 2 gb

molecule MOL {
0 1

O	 2.495903	 0.113412	 -0.885743
C	 1.705091	 0.115954	 0.001797
C	 0.381791	 -0.609817	 0.001258
O	 1.892664	 0.772607	 1.139672
C	 -0.823008	 0.326187	 0.001381
H	 0.371250	 -1.265087	 -0.865474
H	 0.370908	 -1.265746	 0.867490
C	 -2.149452	 -0.435131	 -0.000098
H	 -0.770201	 0.977095	 -0.865636
H	 -0.771220	 0.975655	 0.869608
C	 -3.368779	 0.488503	 -0.000883
H	 -2.193746	 -1.087250	 -0.871175
H	 -2.195311	 -1.087803	 0.870418
C	 -4.693822	 -0.272754	 -0.001129
H	 -3.325798	 1.139422	 -0.871284
H	 -3.326423	 1.139959	 0.869145
H	 -4.781274	 -0.907928	 -0.878124
H	 -5.538651	 0.408946	 -0.001420
H	 -4.781694	 -0.907783	 0.875984
C	 3.101923	 1.497342	 1.271602
H	 3.952143	 0.834610	 1.197838
H	 3.067273	 1.953923	 2.248439
H	 3.175722	 2.256176	 0.505945

	symmetry c1
}
set optking {
	frozen_dihedral = ("
		15 11 8 12,
		9 5 8 12,
		9 5 3 6,
		1 2 4 20
	")
}

ee = energy('scf')
oeprop('DIPOLE', 'QUADRUPOLE', 'MULLIKEN_CHARGES')
f=open( 'psi4out.xyz', 'w' )
f.write( "23  " )
f.write( str(ee) + "\n" )
f.write( MOL.save_string_xyz() )
f.close()
--------------------------------------------------------------------------

    Molecular point group: c1

    Geometry (in Angstrom), charge = 0, multiplicity = 1:

       Center              X                  Y                   Z               Mass
    ------------   -----------------  -----------------  -----------------  -----------------
           O          2.625330100709    -0.122439663630    -1.065078100076    15.994914619560
           C          1.834518100709    -0.119897663630    -0.177538100076    12.000000000000
           C          0.511218100709    -0.845668663630    -0.178077100076    12.000000000000
           O          2.022091100709     0.536755336370     0.960336899924    15.994914619560
           C         -0.693580899291     0.090335336370    -0.177954100076    12.000000000000
           H          0.500677100709    -1.500938663630    -1.044809100076     1.007825032070
           H          0.500335100709    -1.501597663630     0.688154899924     1.007825032070
           C         -2.020024899291    -0.670982663630    -0.179433100076    12.000000000000
           H         -0.640773899291     0.741243336370    -1.044971100076     1.007825032070
           H         -0.641792899291     0.739803336370     0.690272899924     1.007825032070
           C         -3.239351899291     0.252651336370    -0.180218100076    12.000000000000
           H         -2.064318899291    -1.323101663630    -1.050510100076     1.007825032070
           H         -2.065883899291    -1.323654663630     0.691082899924     1.007825032070
           C         -4.564394899291    -0.508605663630    -0.180464100076    12.000000000000
           H         -3.196370899291     0.903570336370    -1.050619100076     1.007825032070
           H         -3.196995899291     0.904107336370     0.689809899924     1.007825032070
           H         -4.651846899291    -1.143779663630    -1.057459100076     1.007825032070
           H         -5.409223899291     0.173094336370    -0.180755100076     1.007825032070
           H         -4.652266899291    -1.143634663630     0.696648899924     1.007825032070
           C          3.231350100709     1.261490336370     1.092266899924    12.000000000000
           H          4.081570100709     0.598758336370     1.018502899924     1.007825032070
           H          3.196700100709     1.718071336370     2.069103899924     1.007825032070
           H          3.305149100709     2.020324336370     0.326609899924     1.007825032070

  Charge       = 0
  Multiplicity = 1
  Basis Set: 6-31G*
  Basis Set:

    Orbital Energies (a.u.)
    -----------------------

    Doubly Occupied:

       1A    -20.603975     2A    -20.544039     3A    -11.370934
       4A    -11.280721     5A    -11.233758     6A    -11.228233
       7A    -11.222051     8A    -11.220064     9A    -11.212230
      10A     -1.468832    11A     -1.361503    12A     -1.097843
      13A     -1.046041    14A     -0.984489    15A     -0.934583
      16A     -0.848283    17A     -0.799175    18A     -0.773417
      19A     -0.693473    20A     -0.680146    21A     -0.672822
      22A     -0.653039    23A     -0.607320    24A     -0.593339
      25A     -0.580526    26A     -0.571294    27A     -0.543389
      28A     -0.531738    29A     -0.523867    30A     -0.508044
      31A     -0.490043    32A     -0.477919    33A     -0.470511
      34A     -0.468936    35A     -0.454067    36A     -0.427008

  @DF-RHF Final Energy:  -422.97472189371604

   => Energetics <=

    Nuclear Repulsion Energy =            454.8516992050309682
    One-Electron Energy =               -1477.2975803438239382
    Two-Electron Energy =                 599.4711592450771604
    DFT Exchange-Correlation Energy =       0.0000000000000000
    Empirical Dispersion Energy =           0.0000000000000000
    PCM Polarization Energy =               0.0000000000000000
    EFP Energy =                            0.0000000000000000
    Total Energy =                       -422.9747218937158095

  Mulliken Charges: (a.u.)
   Center  Symbol    Alpha    Beta     Spin     Total
       1     O     4.28488  4.28488  0.00000 -0.56976
       2     C     2.61657  2.61657  0.00000  0.76685
       3     C     3.19598  3.19598  0.00000 -0.39196
       4     O     4.30200  4.30200  0.00000 -0.60400
       5     C     3.16401  3.16401  0.00000 -0.32803
       6     H     0.39999  0.39999  0.00000  0.20002
       7     H     0.40476  0.40476  0.00000  0.19048
       8     C     3.15259  3.15259  0.00000 -0.30517
       9     H     0.41343  0.41343  0.00000  0.17314
      10     H     0.40837  0.40837  0.00000  0.18326
      11     C     3.15239  3.15239  0.00000 -0.30478
      12     H     0.42096  0.42096  0.00000  0.15808
      13     H     0.42168  0.42168  0.00000  0.15663
      14     C     3.23987  3.23987  0.00000 -0.47975
      15     H     0.42141  0.42141  0.00000  0.15717
      16     H     0.42174  0.42174  0.00000  0.15651
      17     H     0.42090  0.42090  0.00000  0.15820
      18     H     0.41813  0.41813  0.00000  0.16374
      19     H     0.42128  0.42128  0.00000  0.15744
      20     C     3.09237  3.09237  0.00000 -0.18474
      21     H     0.40877  0.40877  0.00000  0.18247
      22     H     0.40888  0.40888  0.00000  0.18224
      23     H     0.40903  0.40903  0.00000  0.18194

   Total alpha = 36.00000, Total beta = 36.00000, Total charge = -0.00000
