  ==> Input File <==

--------------------------------------------------------------------------
set {
	reference rhf
	basis 6-31G*
}

set_num_threads( 4 )
memory 2 gb

molecule MOL {
0 1

H	 -0.815918	 1.866454	 -0.896234
C	 -0.116935	 1.055055	 -1.104415
N	 0.538815	 0.649616	 0.000000
O	 0.020854	 0.605471	 -2.203550
C	 1.521968	 -0.411503	 0.000000
H	 0.330514	 1.108938	 0.856690
H	 2.150599	 -0.357004	 -0.881901
H	 0.999455	 -1.354525	 0.000000
H	 2.150599	 -0.357004	 0.881901

	symmetry c1
}
set optking {
	frozen_dihedral = ("
		6 3 5 7
	")
}

ee = optimize('scf')
oeprop('DIPOLE', 'QUADRUPOLE', 'MULLIKEN_CHARGES')
f=open( 'psi4out.xyz', 'w' )
f.write( "9  " )
f.write( str(ee) + "\n" )
f.write( MOL.save_string_xyz() )
f.close()
--------------------------------------------------------------------------

    Molecular point group: c1
  Charge       = 0
  Multiplicity = 1
  Basis Set: 6-31G*
  Basis Set:
  @DF-RHF Final Energy:  -207.96022726052468
    Total Energy =                       -207.9602272605246753
    Molecular point group: c1
  Basis Set: 6-31G*
  Basis Set:
  Basis Set: 6-31G*
  Basis Set:
  @DF-RHF Final Energy:  -207.96089461333008
    Total Energy =                       -207.9608946133300549
  Basis Set: 6-31G*
  Basis Set:
  Basis Set: 6-31G*
  Basis Set:
  @DF-RHF Final Energy:  -207.96101519941377
    Total Energy =                       -207.9610151994137652
  Basis Set: 6-31G*
  Basis Set:
  Basis Set: 6-31G*
  Basis Set:
  @DF-RHF Final Energy:  -207.96090508321885
    Total Energy =                       -207.9609050832187620
  Basis Set: 6-31G*
  Basis Set:
  Basis Set: 6-31G*
  Basis Set:
  @DF-RHF Final Energy:  -207.96104510913614
    Total Energy =                       -207.9610451091359948
  Basis Set: 6-31G*
  Basis Set:
  Basis Set: 6-31G*
  Basis Set:
  @DF-RHF Final Energy:  -207.96105875985523
    Total Energy =                       -207.9610587598552911
  Basis Set: 6-31G*
  Basis Set:
  Basis Set: 6-31G*
  Basis Set:
  @DF-RHF Final Energy:  -207.96106410752355
    Total Energy =                       -207.9610641075235833
  Basis Set: 6-31G*
  Basis Set:
  Charge       = 0
  Multiplicity = 1
  Basis Set: 6-31G*
  Basis Set:

    Orbital Energies (a.u.)
    -----------------------

    Doubly Occupied:

       1A    -20.526069     2A    -15.590393     3A    -11.342869
       4A    -11.261162     5A     -1.389367     6A     -1.235975
       7A     -0.967814     8A     -0.807917     9A     -0.746576
      10A     -0.641087    11A     -0.626761    12A     -0.592512
      13A     -0.557671    14A     -0.532895    15A     -0.423833
      16A     -0.391228

  @DF-RHF Final Energy:  -207.96106415702758

   => Energetics <=

    Nuclear Repulsion Energy =            122.6834391394540376
    One-Electron Energy =                -526.0207448443329667
    Two-Electron Energy =                 195.3762415478512935
    DFT Exchange-Correlation Energy =       0.0000000000000000
    Empirical Dispersion Energy =           0.0000000000000000
    PCM Polarization Energy =               0.0000000000000000
    EFP Energy =                            0.0000000000000000
    Total Energy =                       -207.9610641570276357
    Molecular point group: c1
  Basis Set: 6-31G*
  Basis Set:

  -Total Gradient:
     Atom            X                  Y                   Z
    ------   -----------------  -----------------  -----------------
       1       -0.000002700684     0.000003561445    -0.000005351185
       2       -0.000010402050     0.000022230218     0.000044699301
       3       -0.000069179716    -0.000032396425    -0.000013529664
       4        0.000014546779    -0.000015517285    -0.000004698442
       5        0.000000120570    -0.000033880690    -0.000030886625
       6        0.000036418650     0.000036598073    -0.000011826810
       7        0.000031308754     0.000019904499     0.000023106412
       8       -0.000000706458     0.000003436909     0.000000268096
       9        0.000000594156    -0.000003936744    -0.000001781080

  **** Optimization is complete! (in 8 steps) ****
    Final optimized geometry and variables:
    Molecular point group: c1

    Geometry (in Angstrom), charge = 0, multiplicity = 1:

    H           -1.313495986171     1.413289640080    -0.095480316651
    C           -0.619696925310     0.591733288982    -0.280751396030
    N            0.071352795017     0.232931763030     0.816735320501
    O           -0.500142369886     0.090086628695    -1.359368108352
    C            1.009847461993    -0.869102807747     0.804070925459
    H           -0.158099053742     0.665247915208     1.681262641574
    H            1.663967808610    -0.783162954362    -0.051702615811
    H            0.503623503270    -1.826776015387     0.754248457112
    H            1.604769754766    -0.832182919336     1.706747579151

  Mulliken Charges: (a.u.)
   Center  Symbol    Alpha    Beta     Spin     Total
       1     H     0.42693  0.42693  0.00000  0.14614
       2     C     2.74722  2.74722  0.00000  0.50555
       3     N     3.87467  3.87467  0.00000 -0.74935
       4     O     4.28304  4.28304  0.00000 -0.56608
       5     C     3.13738  3.13738  0.00000 -0.27475
       6     H     0.30813  0.30813  0.00000  0.38375
       7     H     0.39778  0.39778  0.00000  0.20444
       8     H     0.40931  0.40931  0.00000  0.18138
       9     H     0.41554  0.41554  0.00000  0.16892

   Total alpha = 16.00000, Total beta = 16.00000, Total charge =  0.00000
