  ==> Input File <==

--------------------------------------------------------------------------
set {
	reference rhf
	basis 6-31G*
}

set_num_threads( 4 )
memory 2 gb

molecule MOL {
0 1

H	 -3.269016	 -0.876744	 0.468090
C	 -2.809304	 0.000122	 0.025886
N	 -1.391456	 0.000019	 0.300661
H	 -3.037557	 -0.000063	 -1.044252
H	 -3.269223	 0.876956	 0.468000
C	 -0.895738	 -1.320875	 0.634262
C	 -1.029410	 0.959145	 1.325750
H	 -1.362690	 -1.707253	 1.545402
H	 -1.141393	 -2.000539	 -0.175227
C	 0.612781	 -1.289921	 0.823943
H	 -1.372582	 1.942330	 1.020565
H	 -1.505209	 0.723698	 2.282667
C	 0.479110	 0.990100	 1.515430
H	 0.955953	 -2.273105	 1.129126
H	 1.088580	 -1.054473	 -0.132973
N	 0.974827	 -0.330795	 1.849032
H	 0.724765	 1.669764	 2.324920
H	 0.946061	 1.376478	 0.604291
C	 2.392675	 -0.330898	 2.123808
H	 2.707441	 -1.322693	 2.428829
H	 2.609437	 0.352909	 2.936981
H	 2.995667	 -0.033893	 1.260392

	symmetry c1
}
set optking {
	frozen_dihedral = ("
		6 3 2 4
	")
}

ee = optimize('scf')
oeprop('DIPOLE', 'QUADRUPOLE', 'MULLIKEN_CHARGES')
f=open( 'psi4out.xyz', 'w' )
f.write( "22  " )
f.write( str(ee) + "\n" )
f.write( MOL.save_string_xyz() )
f.close()
--------------------------------------------------------------------------

    Molecular point group: c1
  Charge       = 0
  Multiplicity = 1
  Basis Set: 6-31G*
  Basis Set:
  @DF-RHF Final Energy:  -344.22462041012210
    Total Energy =                       -344.2246204101219291
    Molecular point group: c1
  Basis Set: 6-31G*
  Basis Set:
  Basis Set: 6-31G*
  Basis Set:
  @DF-RHF Final Energy:  -344.22531188088050
    Total Energy =                       -344.2253118808803265
  Basis Set: 6-31G*
  Basis Set:
  Basis Set: 6-31G*
  Basis Set:
  @DF-RHF Final Energy:  -344.22544577674529
    Total Energy =                       -344.2254457767454596
  Basis Set: 6-31G*
  Basis Set:
  Basis Set: 6-31G*
  Basis Set:
  @DF-RHF Final Energy:  -344.22544893737347
    Total Energy =                       -344.2254489373733577
  Basis Set: 6-31G*
  Basis Set:
  Charge       = 0
  Multiplicity = 1
  Basis Set: 6-31G*
  Basis Set:

    Orbital Energies (a.u.)
    -----------------------

    Doubly Occupied:

       1A    -15.541300     2A    -15.540164     3A    -11.238443
       4A    -11.238314     5A    -11.237550     6A    -11.237517
       7A    -11.235544     8A    -11.235512     9A     -1.253244
      10A     -1.201600    11A     -1.023857    12A     -0.990730
      13A     -0.911726    14A     -0.865804    15A     -0.835640
      16A     -0.754950    17A     -0.664548    18A     -0.634473
      19A     -0.629083    20A     -0.623923    21A     -0.619695
      22A     -0.579954    23A     -0.549679    24A     -0.549319
      25A     -0.541343    26A     -0.519976    27A     -0.497118
      28A     -0.487286    29A     -0.463290    30A     -0.454597
      31A     -0.348828    32A     -0.342993

  @DF-RHF Final Energy:  -344.22544932524374

   => Energetics <=

    Nuclear Repulsion Energy =            420.9821009879126450
    One-Electron Energy =               -1300.7191034949114510
    Two-Electron Energy =                 535.5115531817550618
    DFT Exchange-Correlation Energy =       0.0000000000000000
    Empirical Dispersion Energy =           0.0000000000000000
    PCM Polarization Energy =               0.0000000000000000
    EFP Energy =                            0.0000000000000000
    Total Energy =                       -344.2254493252437442
    Molecular point group: c1
  Basis Set: 6-31G*
  Basis Set:

  -Total Gradient:
     Atom            X                  Y                   Z
    ------   -----------------  -----------------  -----------------
       1        0.000007487588     0.000007338543     0.000007338547
       2       -0.000184010938    -0.005250673871     0.001141877922
       3        0.000875293025     0.000367634484    -0.004279898906
       4       -0.000025343892     0.004318060477     0.000024152321
       5       -0.000007123755     0.000006247202     0.000014027471
       6       -0.000670124024     0.000596717944     0.003111841602
       7       -0.000014241707    -0.000030359498    -0.000050835159
       8       -0.000006600964    -0.000002819042     0.000005943367
       9        0.000001760346    -0.000005358067     0.000004346449
      10        0.000012742071    -0.000025501550     0.000001648482
      11        0.000001008039    -0.000001872872     0.000005196356
      12       -0.000005760780    -0.000000932863     0.000004799727
      13        0.000020002811     0.000020543646    -0.000001675715
      14        0.000005194467    -0.000001602185     0.000002128755
      15       -0.000004988425    -0.000000976381    -0.000000424114
      16       -0.000008835699    -0.000000902775     0.000002581703
      17        0.000002799519     0.000000158339     0.000002550745
      18       -0.000001671367     0.000000232756     0.000000185985
      19       -0.000001008300     0.000003989521     0.000004382144
      20        0.000000812801     0.000000594189    -0.000000446641
      21        0.000003344319    -0.000000158781     0.000000027486
      22       -0.000000735129    -0.000000359218     0.000000251475

  **** Optimization is complete! (in 5 steps) ****
    Final optimized geometry and variables:
    Molecular point group: c1

    Geometry (in Angstrom), charge = 0, multiplicity = 1:

    H           -3.127886512203    -0.693321212876    -0.630376992145
    C           -2.611023838893     0.159084324395    -1.067434268909
    N           -1.187978154849     0.166777483480    -0.765803799282
    H           -2.776590442882     0.163470145290    -2.140476334483
    H           -3.082426720532     1.054779960259    -0.678239791664
    C           -0.687450855118    -1.152856006601    -0.430127948544
    C           -0.823228802515     1.119855881654     0.267289137110
    H           -1.149788682966    -1.534620155885     0.484869934553
    H           -0.937709467678    -1.837033675319    -1.234826918533
    C            0.821956268322    -1.123906331510    -0.251117593302
    H           -1.165650339206     2.105275248985    -0.029283724659
    H           -1.289657399115     0.879307234336     1.227319456116
    C            0.686681831738     1.153982983027     0.444854047811
    H            1.166247627166    -2.107518501606     0.051917083525
    H            1.291429574251    -0.888964111737    -1.211246449476
    N            1.190969423971    -0.165274281268     0.771802688402
    H            0.936790047061     1.833302215687     1.253445804653
    H            1.143818527264     1.543781172812    -0.469851399586
    C            2.611268048049    -0.160451934829     1.032523335681
    H            2.933153491929    -1.151610915516     1.332322413491
    H            2.833460783180     0.522531437626     1.844958699910
    H            3.204648492483     0.140828340322     0.163903109943

  Mulliken Charges: (a.u.)
   Center  Symbol    Alpha    Beta     Spin     Total
       1     H     0.42628  0.42628  0.00000  0.14743
       2     C     3.14035  3.14035  0.00000 -0.28070
       3     N     3.78890  3.78890  0.00000 -0.57780
       4     H     0.41553  0.41553  0.00000  0.16895
       5     H     0.42052  0.42052  0.00000  0.15896
       6     C     3.05859  3.05859  0.00000 -0.11718
       7     C     3.05791  3.05791  0.00000 -0.11582
       8     H     0.42818  0.42818  0.00000  0.14364
       9     H     0.41724  0.41724  0.00000  0.16552
      10     C     3.05589  3.05589  0.00000 -0.11178
      11     H     0.41752  0.41752  0.00000  0.16497
      12     H     0.42868  0.42868  0.00000  0.14265
      13     C     3.05632  3.05632  0.00000 -0.11264
      14     H     0.41825  0.41825  0.00000  0.16350
      15     H     0.42854  0.42854  0.00000  0.14293
      16     N     3.78706  3.78706  0.00000 -0.57411
      17     H     0.41827  0.41827  0.00000  0.16347
      18     H     0.42853  0.42853  0.00000  0.14293
      19     C     3.14020  3.14020  0.00000 -0.28040
      20     H     0.41689  0.41689  0.00000  0.16622
      21     H     0.41689  0.41689  0.00000  0.16622
      22     H     0.43348  0.43348  0.00000  0.13305

   Total alpha = 32.00000, Total beta = 32.00000, Total charge =  0.00000
