  ==> Input File <==

--------------------------------------------------------------------------
set {
	reference rhf
	basis 6-31G*
}

set_num_threads( 4 )
memory 2 gb

molecule MOL {
0 1

H	 0.656479	 4.613011	 1.128543
N	 -0.153534	 4.031177	 1.034244
C	 0.214576	 2.708977	 0.548641
H	 -0.763240	 4.487399	 0.382363
C	 -1.006197	 1.796289	 0.498949
H	 0.943491	 2.295488	 1.238979
H	 0.691489	 2.730279	 -0.434466
C	 -0.679275	 0.379305	 0.025956
H	 -1.453762	 1.768011	 1.488252
H	 -1.751423	 2.234620	 -0.164256
C	 -1.903357	 -0.536963	 -0.023547
H	 0.067661	 -0.058235	 0.686633
H	 -0.224067	 0.420898	 -0.962428
C	 -3.225172	 0.228290	 0.028445
H	 -1.867824	 -1.134999	 -0.931459
H	 -1.860449	 -1.239604	 0.805977
H	 -3.313397	 0.915643	 -0.808262
H	 -4.073500	 -0.448134	 -0.008893
H	 -3.306061	 0.809945	 0.942516

	symmetry c1
}
set optking {
	frozen_dihedral = ("
		12 8 11 15
	")
}

ee = optimize('scf')
oeprop('DIPOLE', 'QUADRUPOLE', 'MULLIKEN_CHARGES')
f=open( 'psi4out.xyz', 'w' )
f.write( "19  " )
f.write( str(ee) + "\n" )
f.write( MOL.save_string_xyz() )
f.close()
--------------------------------------------------------------------------

    Molecular point group: c1
  Charge       = 0
  Multiplicity = 1
  Basis Set: 6-31G*
  Basis Set:
  @DF-RHF Final Energy:  -251.33961690787484
    Total Energy =                       -251.3396169078746993
    Molecular point group: c1
  Basis Set: 6-31G*
  Basis Set:
  Basis Set: 6-31G*
  Basis Set:
  @DF-RHF Final Energy:  -251.33989113979982
    Total Energy =                       -251.3398911397998745
  Basis Set: 6-31G*
  Basis Set:
  Basis Set: 6-31G*
  Basis Set:
  @DF-RHF Final Energy:  -251.34284372273530
    Total Energy =                       -251.3428437227352674
  Basis Set: 6-31G*
  Basis Set:
  Basis Set: 6-31G*
  Basis Set:
  @DF-RHF Final Energy:  -251.34318281515215
    Total Energy =                       -251.3431828151519767
  Basis Set: 6-31G*
  Basis Set:
  Basis Set: 6-31G*
  Basis Set:
  @DF-RHF Final Energy:  -251.34321546695830
    Total Energy =                       -251.3432154669578722
  Basis Set: 6-31G*
  Basis Set:
  Basis Set: 6-31G*
  Basis Set:
  @DF-RHF Final Energy:  -251.34321991462281
    Total Energy =                       -251.3432199146227504
  Basis Set: 6-31G*
  Basis Set:
  Charge       = 0
  Multiplicity = 1
  Basis Set: 6-31G*
  Basis Set:

    Orbital Energies (a.u.)
    -----------------------

    Doubly Occupied:

       1A    -15.532279     2A    -11.239411     3A    -11.214660
       4A    -11.213302     5A    -11.208683     6A    -11.206092
       7A     -1.176374     8A     -1.068816     9A     -0.993942
      10A     -0.903870    11A     -0.826218    12A     -0.770022
      13A     -0.665089    14A     -0.636615    15A     -0.614482
      16A     -0.599990    17A     -0.569774    18A     -0.539882
      19A     -0.523148    20A     -0.506303    21A     -0.488359
      22A     -0.456053    23A     -0.451029    24A     -0.449084
      25A     -0.380835

  @DF-RHF Final Energy:  -251.34321938236172

   => Energetics <=

    Nuclear Repulsion Energy =            249.5204341782529696
    One-Electron Energy =                -833.2586778696444298
    Two-Electron Energy =                 332.3950243090293952
    DFT Exchange-Correlation Energy =       0.0000000000000000
    Empirical Dispersion Energy =           0.0000000000000000
    PCM Polarization Energy =               0.0000000000000000
    EFP Energy =                            0.0000000000000000
    Total Energy =                       -251.3432193823621219
    Molecular point group: c1
  Basis Set: 6-31G*
  Basis Set:

  -Total Gradient:
     Atom            X                  Y                   Z
    ------   -----------------  -----------------  -----------------
       1        0.000002427099    -0.000001876924    -0.000007801224
       2       -0.000019931608    -0.000006232364    -0.000026227519
       3       -0.000009776714    -0.000009964013    -0.000025170152
       4       -0.000002665000     0.000013123095     0.000002997809
       5       -0.000011439951     0.000037298392     0.000145912976
       6       -0.000009266882     0.000004945794     0.000005769597
       7        0.000028952397    -0.000001423010    -0.000008464568
       8        0.001987970035    -0.002384231119    -0.005572193545
       9        0.000061479297     0.000011815353     0.000014818150
      10       -0.000079131687    -0.000034103111    -0.000012985208
      11        0.003029241567    -0.003825691872     0.004022022429
      12       -0.002198186855     0.002520879454     0.004029720500
      13        0.000008229867    -0.000013409644    -0.000000668176
      14       -0.000026736143     0.000072740389     0.000033278593
      15       -0.002799058895     0.003582696505    -0.002573573935
      16        0.000027856433     0.000025999510     0.000021139206
      17        0.000027871397     0.000036446174    -0.000016889877
      18        0.000012342952    -0.000002758507    -0.000016007469
      19       -0.000030177311    -0.000026254100    -0.000015677586

  **** Optimization is complete! (in 7 steps) ****
    Final optimized geometry and variables:
    Molecular point group: c1

    Geometry (in Angstrom), charge = 0, multiplicity = 1:

    H            1.905698090189     3.119275358079     0.772326426075
    N            1.071269099672     2.570637417534     0.692833428546
    C            1.376091675985     1.237905734841     0.192013629335
    H            0.466190308812     3.054885071387     0.057042061621
    C            0.118179108464     0.375264106540     0.163797369772
    H            2.103614173899     0.792180465984     0.863580544249
    H            1.832071975221     1.247111844399    -0.801272278570
    C            0.403310459006    -1.047199938180    -0.333482117896
    H           -0.299418264124     0.354277486272     1.165694022196
    H           -0.621727974495     0.857215723899    -0.471077177860
    C           -0.804058583893    -2.020043552818    -0.357607056533
    H            1.159397758606    -1.459372567012     0.330122400815
    H            0.846420745460    -0.989735708727    -1.323891807607
    C           -2.195511157998    -1.376632274056    -0.364611669158
    H           -0.740013942296    -2.622773975025    -1.259067844099
    H           -0.741943230243    -2.700701931476     0.485603518298
    H           -2.330610220696    -0.724101439816    -1.222083228557
    H           -2.958288805625    -2.147558596124    -0.419608832283
    H           -2.384790454905    -0.793307936842     0.529630337565

  Mulliken Charges: (a.u.)
   Center  Symbol    Alpha    Beta     Spin     Total
       1     H     0.33253  0.33253  0.00000  0.33493
       2     N     3.92200  3.92200  0.00000 -0.84399
       3     C     3.05987  3.05987  0.00000 -0.11974
       4     H     0.33540  0.33540  0.00000  0.32921
       5     C     3.15457  3.15457  0.00000 -0.30914
       6     H     0.42117  0.42117  0.00000  0.15766
       7     H     0.43501  0.43501  0.00000  0.12998
       8     C     3.15941  3.15941  0.00000 -0.31881
       9     H     0.41291  0.41291  0.00000  0.17418
      10     H     0.42560  0.42560  0.00000  0.14881
      11     C     3.15323  3.15323  0.00000 -0.30647
      12     H     0.42127  0.42127  0.00000  0.15746
      13     H     0.42241  0.42241  0.00000  0.15518
      14     C     3.24274  3.24274  0.00000 -0.48549
      15     H     0.42108  0.42108  0.00000  0.15785
      16     H     0.42015  0.42015  0.00000  0.15970
      17     H     0.42251  0.42251  0.00000  0.15498
      18     H     0.41985  0.41985  0.00000  0.16029
      19     H     0.41830  0.41830  0.00000  0.16341

   Total alpha = 25.00000, Total beta = 25.00000, Total charge =  0.00000
