                              Psi4 1.0.54 Driver

  ==> Input File <==

--------------------------------------------------------------------------
set {
	reference rhf
	basis cc-pvtz
}

set_num_threads( 4 )
memory 2 gb

molecule MOL {
0 1

O	 -3.662935	 -0.411467	 -0.332425
C	 -2.664672	 0.129869	 0.003507
C	 -2.609082	 1.552864	 0.489594
O	 -1.481217	 -0.452708	 0.001092
H	 -3.258279	 1.648346	 1.349540
H	 -1.606081	 1.850967	 0.749907
H	 -2.996304	 2.197234	 -0.288172
C	 -0.332055	 0.384012	 -0.000250
C	 0.892252	 -0.506059	 -0.000295
H	 -0.360822	 1.020205	 -0.874146
H	 -0.359817	 1.021310	 0.872861
C	 2.188199	 0.299473	 -0.001416
H	 0.857046	 -1.152781	 -0.871031
H	 0.857910	 -1.151798	 0.871202
C	 3.437151	 -0.577593	 -0.000991
H	 2.209565	 0.950707	 -0.871712
H	 2.210062	 0.952234	 0.867721
C	 4.732399	 0.226982	 -0.000914
H	 3.417321	 -1.229122	 -0.869998
H	 3.416993	 -1.228707	 0.868337
H	 4.797903	 0.863451	 -0.876963
H	 5.598517	 -0.424436	 -0.000420
H	 4.797415	 0.864118	 0.874691

	symmetry c1
}
set optking {
	frozen_dihedral = ("
		1 2 4 8
	")
}

ee,wfn = optimize('scf', return_wfn=True)
oeprop( wfn, 'DIPOLE', 'QUADRUPOLE', 'MULLIKEN_CHARGES')
f=open( 'psi4out.xyz', 'w' )
f.write( "23  " )
f.write( str(ee) + "\n" )
f.write( MOL.save_string_xyz() )
f.close()
--------------------------------------------------------------------------

    Molecular point group: c1
  Charge       = 0
  Multiplicity = 1
  Basis Set: CC-PVTZ
  Basis Set:
  @DF-RHF Final Energy:  -423.10281155517026
    Total Energy =                       -423.1028115551698647
    Molecular point group: c1
  Basis Set: CC-PVTZ
  Basis Set:
  Basis Set: CC-PVTZ
  Basis Set:
  @DF-RHF Final Energy:  -423.05258119033994
    Total Energy =                       -423.0525811903402200
  Basis Set: CC-PVTZ
  Basis Set:
  Basis Set: CC-PVTZ
  Basis Set:
  @DF-RHF Final Energy:  -423.11079700775451
    Total Energy =                       -423.1107970077545133
  Basis Set: CC-PVTZ
  Basis Set:
  Basis Set: CC-PVTZ
  Basis Set:
  @DF-RHF Final Energy:  -423.11699583357938
    Total Energy =                       -423.1169958335798356
  Basis Set: CC-PVTZ
  Basis Set:
  @DF-RHF Final Energy:  -423.11866903505478
    Total Energy =                       -423.1186690350552908
  @DF-RHF Final Energy:  -423.11786628221984
    Total Energy =                       -423.1178662822198930
  @DF-RHF Final Energy:  -423.11909425190964
    Total Energy =                       -423.1190942519102691
  @DF-RHF Final Energy:  -423.11897218908319
    Total Energy =                       -423.1189721890834790
  @DF-RHF Final Energy:  -423.11951426033886
    Total Energy =                       -423.1195142603387467
  @DF-RHF Final Energy:  -423.11959204427421
    Total Energy =                       -423.1195920442740999
  @DF-RHF Final Energy:  -423.12003136459754
    Total Energy =                       -423.1200313645977076
  @DF-RHF Final Energy:  -423.11904851955188
    Total Energy =                       -423.1190485195517113
  @DF-RHF Final Energy:  -423.11910280332597
    Total Energy =                       -423.1191028033259727
  @DF-RHF Final Energy:  -423.12071074383164
    Total Energy =                       -423.1207107438315234
  @DF-RHF Final Energy:  -423.12099344198538
    Total Energy =                       -423.1209934419853198
  @DF-RHF Final Energy:  -423.12122319491567
    Total Energy =                       -423.1212231949157285
  @DF-RHF Final Energy:  -423.12104211428169
    Total Energy =                       -423.1210421142814084
  Basis Set: CC-PVTZ
  Basis Set:
  @DF-RHF Final Energy:  -423.12147619116632
    Total Energy =                       -423.1214761911664937
  Basis Set: CC-PVTZ
  Basis Set:
  Basis Set: CC-PVTZ
  Basis Set:
  @DF-RHF Final Energy:  -423.12149390777074
    Total Energy =                       -423.1214939077705139
  Basis Set: CC-PVTZ
  Basis Set:
  Basis Set: CC-PVTZ
  Basis Set:
  @DF-RHF Final Energy:  -423.12149636759773
    Total Energy =                       -423.1214963675976151
  Basis Set: CC-PVTZ
  Basis Set:
  Charge       = 0
  Multiplicity = 1
  Basis Set: CC-PVTZ
  Basis Set:

    Orbital Energies (a.u.)
    -----------------------

    Doubly Occupied:

       1A    -20.590817     2A    -20.527792     3A    -11.367595
       4A    -11.294045     5A    -11.239533     6A    -11.227404
       7A    -11.226783     8A    -11.223099     9A    -11.214317
      10A     -1.464189    11A     -1.366704    12A     -1.098966
      13A     -1.037509    14A     -1.015785    15A     -0.944153
      16A     -0.848901    17A     -0.807997    18A     -0.779867
      19A     -0.701610    20A     -0.697184    21A     -0.662842
      22A     -0.651748    23A     -0.612345    24A     -0.596594
      25A     -0.582788    26A     -0.574355    27A     -0.569763
      28A     -0.543011    29A     -0.531034    30A     -0.506129
      31A     -0.499755    32A     -0.482747    33A     -0.476012
      34A     -0.474697    35A     -0.447893    36A     -0.432963

  @DF-RHF Final Energy:  -423.12149647330415

   => Energetics <=

    Nuclear Repulsion Energy =            450.4314194677163528
    One-Electron Energy =               -1468.4679833551658703
    Two-Electron Energy =                 594.9150674141451418
    DFT Exchange-Correlation Energy =       0.0000000000000000
    Empirical Dispersion Energy =           0.0000000000000000
    PCM Polarization Energy =               0.0000000000000000
    EFP Energy =                            0.0000000000000000
    Total Energy =                       -423.1214964733044326
    Molecular point group: c1
  Basis Set: CC-PVTZ
  Basis Set:

  -Total Gradient:
     Atom            X                  Y                   Z
    ------   -----------------  -----------------  -----------------
       1        0.000199148142     0.000945028308    -0.001941577211
       2       -0.000309082242    -0.001228045292     0.001713523432
       3        0.000011114927     0.000024530467     0.000011146761
       4        0.000149395499     0.000052679120     0.002085755387
       5       -0.000011948191     0.000006319633     0.000005263832
       6       -0.000011199559    -0.000007855511    -0.000003331484
       7       -0.000012091720    -0.000005201177    -0.000008276484
       8       -0.000019015942     0.000193373729    -0.001860708824
       9       -0.000011814953     0.000012603869     0.000004713705
      10       -0.000002984379     0.000014463319    -0.000004410824
      11        0.000007275424     0.000000163060    -0.000000478902
      12        0.000018556185    -0.000008894161    -0.000004996531
      13       -0.000000160251    -0.000002715012    -0.000003836782
      14        0.000003532764    -0.000009043144     0.000003437478
      15       -0.000014585528     0.000005815540     0.000000423222
      16       -0.000000897454     0.000002379750    -0.000003438480
      17        0.000001294815     0.000005101137     0.000004016354
      18        0.000007492873     0.000000601677     0.000002296193
      19       -0.000001458077    -0.000003154945    -0.000005198172
      20        0.000000293304    -0.000004914567     0.000002113692
      21       -0.000000958271     0.000003187116    -0.000002715939
      22       -0.000003358657    -0.000001613404     0.000000948413
      23        0.000001451285     0.000005190488     0.000005331164

  **** Optimization is complete! (in 21 steps) ****
    Final optimized geometry and variables:
    Molecular point group: c1

    Geometry (in Angstrom), charge = 0, multiplicity = 1:

    O           -3.565638915913    -0.861208078344    -0.373576828871
    C           -2.715926715170    -0.162161152159     0.049492930552
    C           -3.004247325892     1.172834958352     0.691260206829
    O           -1.448132254374    -0.560270263516    -0.012683822844
    H           -4.072112533138     1.311340798333     0.714074054342
    H           -2.610654276386     1.202371018619     1.699540640991
    H           -2.549280800819     1.980444714490     0.132276685953
    C           -0.358338047154     0.334346661831     0.076687912419
    C            0.914049795275    -0.468550612245    -0.098308942471
    H           -0.438762069316     1.087309300236    -0.699396360230
    H           -0.357769094336     0.835166318715     1.037551284785
    C            2.164342769251     0.402654744315    -0.024210428559
    H            0.870467466647    -0.981485214426    -1.052644612129
    H            0.946524082083    -1.235641024227     0.667951331695
    C            3.455401022735    -0.392084513137    -0.199615095460
    H            2.115396414884     1.175326721213    -0.787994184545
    H            2.191944777409     0.920211040736     0.931973317971
    C            4.706284970636     0.476625211945    -0.125825283829
    H            3.430205435537    -0.908541934559    -1.154770792490
    H            3.506430037572    -1.164089303384     0.562767067928
    H            4.700915112572     1.237739933950    -0.898956075982
    H            5.603365337407    -0.117617869022    -0.253896916425
    H            4.777629292422     0.980429230135     0.832410868553

  Mulliken Charges: (a.u.)
   Center  Symbol    Alpha    Beta     Spin     Total
       1     O     4.18043  4.18043  0.00000 -0.36085
       2     C     2.82166  2.82166  0.00000  0.35668
       3     C     3.16781  3.16781  0.00000 -0.33562
       4     O     4.12826  4.12826  0.00000 -0.25652
       5     H     0.42603  0.42603  0.00000  0.14794
       6     H     0.44466  0.44466  0.00000  0.11068
       7     H     0.44747  0.44747  0.00000  0.10506
       8     C     2.98482  2.98482  0.00000  0.03036
       9     C     3.08147  3.08147  0.00000 -0.16295
      10     H     0.45988  0.45988  0.00000  0.08024
      11     H     0.46172  0.46172  0.00000  0.07655
      12     C     3.09929  3.09929  0.00000 -0.19858
      13     H     0.44503  0.44503  0.00000  0.10994
      14     H     0.44698  0.44698  0.00000  0.10605
      15     C     3.08591  3.08591  0.00000 -0.17182
      16     H     0.45398  0.45398  0.00000  0.09204
      17     H     0.45461  0.45461  0.00000  0.09078
      18     C     3.14942  3.14942  0.00000 -0.29884
      19     H     0.45179  0.45179  0.00000  0.09643
      20     H     0.45227  0.45227  0.00000  0.09547
      21     H     0.45478  0.45478  0.00000  0.09043
      22     H     0.44670  0.44670  0.00000  0.10659
      23     H     0.45503  0.45503  0.00000  0.08993

   Total alpha = 36.00000, Total beta = 36.00000, Total charge = -0.00000

*** Psi4 exiting successfully. Buy a developer a beer!
