  ==> Input File <==

--------------------------------------------------------------------------
set {
	reference rhf
	basis cc-pvtz
}

set_num_threads( 4 )
memory 2 gb

molecule MOL {
0 1

H	 -2.816458	 -0.841657	 -0.064679
N	 -1.878861	 -0.711874	 0.250184
C	 -1.341419	 0.551458	 -0.220231
H	 -1.333674	 -1.468530	 -0.105118
C	 0.082190	 0.731516	 0.254705
H	 -1.357065	 0.652078	 -1.304747
H	 -1.939897	 1.357530	 0.189797
O	 0.881195	 -0.248324	 -0.336237
H	 0.440901	 1.722476	 -0.020063
H	 0.119896	 0.643586	 1.338114
C	 0.651740	 -1.536708	 0.129207
H	 1.323209	 -2.203199	 -0.392620
H	 0.843646	 -1.613739	 1.197351
H	 -0.371819	 -1.851614	 -0.059802

	symmetry c1
}
set optking {
	frozen_dihedral = ("
		11 8 5 3
	")
}

ee = optimize('scf')
oeprop('DIPOLE', 'QUADRUPOLE', 'MULLIKEN_CHARGES')
f=open( 'psi4out.xyz', 'w' )
f.write( "14  " )
f.write( str(ee) + "\n" )
f.write( MOL.save_string_xyz() )
f.close()
--------------------------------------------------------------------------

    Molecular point group: c1
  Charge       = 0
  Multiplicity = 1
  Basis Set: CC-PVTZ
  Basis Set:
  @DF-RHF Final Energy:  -248.16814816473422
    Total Energy =                       -248.1681481647341911
    Molecular point group: c1
  Basis Set: CC-PVTZ
  Basis Set:
  Basis Set: CC-PVTZ
  Basis Set:
  @DF-RHF Final Energy:  -248.20445175007856
    Total Energy =                       -248.2044517500787606
  Basis Set: CC-PVTZ
  Basis Set:
  Basis Set: CC-PVTZ
  Basis Set:
  @DF-RHF Final Energy:  -248.21469039031675
    Total Energy =                       -248.2146903903167185
  Basis Set: CC-PVTZ
  Basis Set:
  Basis Set: CC-PVTZ
  Basis Set:
  @DF-RHF Final Energy:  -248.21710919034803
    Total Energy =                       -248.2171091903479692
  Basis Set: CC-PVTZ
  Basis Set:
  @DF-RHF Final Energy:  -248.21789537495010
    Total Energy =                       -248.2178953749499897
  @DF-RHF Final Energy:  -248.21826162025010
    Total Energy =                       -248.2182616202503027
  Basis Set: CC-PVTZ
  Basis Set:
  @DF-RHF Final Energy:  -248.21845415108467
    Total Energy =                       -248.2184541510847566
  Basis Set: CC-PVTZ
  Basis Set:
  Basis Set: CC-PVTZ
  Basis Set:
  @DF-RHF Final Energy:  -248.21848000189391
    Total Energy =                       -248.2184800018938517
  Basis Set: CC-PVTZ
  Basis Set:
  Basis Set: CC-PVTZ
  Basis Set:
  @DF-RHF Final Energy:  -248.21848229225293
    Total Energy =                       -248.2184822922528156
  Basis Set: CC-PVTZ
  Basis Set:
  Charge       = 0
  Multiplicity = 1
  Basis Set: CC-PVTZ
  Basis Set:

    Orbital Energies (a.u.)
    -----------------------

    Doubly Occupied:

       1A    -20.545307     2A    -15.533589     3A    -11.262117
       4A    -11.261719     5A    -11.244114     6A     -1.376981
       7A     -1.182317     8A     -1.002104     9A     -0.914234
      10A     -0.811982    11A     -0.689877    12A     -0.671811
      13A     -0.642754    14A     -0.622585    15A     -0.599834
      16A     -0.546127    17A     -0.538385    18A     -0.508506
      19A     -0.461995    20A     -0.416940    21A     -0.388197

  @DF-RHF Final Energy:  -248.21848314501145

   => Energetics <=

    Nuclear Repulsion Energy =            196.4995409046118482
    One-Electron Energy =                -726.9930982705873248
    Two-Electron Energy =                 282.2750742209637451
    DFT Exchange-Correlation Energy =       0.0000000000000000
    Empirical Dispersion Energy =           0.0000000000000000
    PCM Polarization Energy =               0.0000000000000000
    EFP Energy =                            0.0000000000000000
    Total Energy =                       -248.2184831450117031
    Molecular point group: c1
  Basis Set: CC-PVTZ
  Basis Set:

  -Total Gradient:
     Atom            X                  Y                   Z
    ------   -----------------  -----------------  -----------------
       1        0.000003529760     0.000001414758    -0.000008017337
       2       -0.000062361292    -0.000000221623     0.000023475685
       3       -0.000266558098    -0.000824448193     0.000857120564
       4        0.000027932358    -0.000004958756     0.000012954455
       5        0.000008871048     0.001123394945    -0.001790873658
       6        0.000006733227     0.000007478921     0.000003151512
       7       -0.000000526820    -0.000002737810    -0.000003312507
       8        0.001109377350    -0.000146606444     0.002003268322
       9       -0.000004219277     0.000003828727     0.000011627624
      10       -0.000002589126    -0.000000900507    -0.000015166791
      11       -0.000739705135    -0.000125316548    -0.001060896926
      12       -0.000011418352     0.000000976727    -0.000000195951
      13       -0.000001275394    -0.000003128088     0.000005806745
      14       -0.000067790245    -0.000028776108    -0.000038941739

  **** Optimization is complete! (in 10 steps) ****
    Final optimized geometry and variables:
    Molecular point group: c1

    Geometry (in Angstrom), charge = 0, multiplicity = 1:

    H           -2.784124954683    -0.163341185178     0.210151385264
    N           -1.805661153890    -0.291344068707     0.354757935889
    C           -1.050801754356     0.781228623982    -0.278640236168
    H           -1.571689536296    -1.184672734102    -0.019076827643
    C            0.376345758120     0.916171563708     0.236856016113
    H           -1.021920711107     0.708548912472    -1.364971400047
    H           -1.555220679225     1.710424985653    -0.037623822174
    O            1.312430314293     0.039321797266    -0.317732172029
    H            0.736945184482     1.904987518103    -0.014599910737
    H            0.368032504347     0.822008478786     1.320326219388
    C            1.217121334332    -1.306379260441     0.017788595113
    H            2.170058143866    -1.765541244946    -0.205394324932
    H            1.000184777076    -1.444387391678     1.073219719719
    H            0.455579101276    -1.819875450117    -0.562810122560

  Mulliken Charges: (a.u.)
   Center  Symbol    Alpha    Beta     Spin     Total
       1     H     0.42787  0.42787  0.00000  0.14427
       2     N     3.69170  3.69170  0.00000 -0.38341
       3     C     3.04022  3.04022  0.00000 -0.08044
       4     H     0.42817  0.42817  0.00000  0.14365
       5     C     2.97843  2.97843  0.00000  0.04313
       6     H     0.46010  0.46010  0.00000  0.07981
       7     H     0.45520  0.45520  0.00000  0.08961
       8     O     4.17919  4.17919  0.00000 -0.35838
       9     H     0.45060  0.45060  0.00000  0.09879
      10     H     0.46667  0.46667  0.00000  0.06666
      11     C     3.03522  3.03522  0.00000 -0.07043
      12     H     0.44416  0.44416  0.00000  0.11168
      13     H     0.46551  0.46551  0.00000  0.06897
      14     H     0.47696  0.47696  0.00000  0.04607

   Total alpha = 21.00000, Total beta = 21.00000, Total charge = -0.00000
