  ==> Input File <==

--------------------------------------------------------------------------
set {
	reference rhf
	basis 6-31G*
}

set_num_threads( 1 )
memory 2 gb

molecule MOL {
0 1

H	 -4.241458	 -2.034890	 -0.072439
C	 -3.450186	 -1.376927	 0.230273
C	 -2.220574	 -1.604914	 -0.169824
H	 -3.690311	 -0.540663	 0.859489
O	 -1.180634	 -0.819263	 0.215062
H	 -1.960425	 -2.432532	 -0.805879
C	 0.051604	 -1.018856	 -0.387932
C	 1.043764	 0.054862	 -0.001873
H	 -0.017620	 -1.041351	 -1.469781
H	 0.437898	 -1.966374	 -0.042284
F	 2.212596	 -0.199467	 -0.571921
F	 0.652529	 1.252447	 -0.405055
F	 1.230877	 0.110694	 1.300533

	symmetry c1
}
set optking {
	frozen_dihedral = ("
		11 8 7 9,
		6 3 2 1,
		6 3 5 7
	")
}

ee = energy('scf')
oeprop('DIPOLE', 'QUADRUPOLE', 'MULLIKEN_CHARGES')
f=open( 'psi4out.xyz', 'w' )
f.write( "13  " )
f.write( str(ee) + "\n" )
f.write( MOL.save_string_xyz() )
f.close()
--------------------------------------------------------------------------

    Molecular point group: c1

    Geometry (in Angstrom), charge = 0, multiplicity = 1:

       Center              X                  Y                   Z               Mass
    ------------   -----------------  -----------------  -----------------  -----------------
           H         -4.197679428795    -1.666525925510    -0.104906220133     1.007825032070
           C         -3.406407428795    -1.008562925510     0.197805779867    12.000000000000
           C         -2.176795428795    -1.236549925510    -0.202291220133    12.000000000000
           H         -3.646532428795    -0.172298925510     0.827021779867     1.007825032070
           O         -1.136855428795    -0.450898925510     0.182594779867    15.994914619560
           H         -1.916646428795    -2.064167925510    -0.838346220133     1.007825032070
           C          0.095382571205    -0.650491925510    -0.420399220133    12.000000000000
           C          1.087542571205     0.423226074490    -0.034340220133    12.000000000000
           H          0.026158571205    -0.672986925510    -1.502248220133     1.007825032070
           H          0.481676571205    -1.598009925510    -0.074751220133     1.007825032070
           F          2.256374571205     0.168897074490    -0.604388220133    18.998403224000
           F          0.696307571205     1.620811074490    -0.437522220133    18.998403224000
           F          1.274655571205     0.479058074490     1.268065779867    18.998403224000

  Charge       = 0
  Multiplicity = 1
  Basis Set: 6-31G*
  Basis Set:

    Orbital Energies (a.u.)
    -----------------------

    Doubly Occupied:

       1A    -26.345760     2A    -26.340177     3A    -26.338015
       4A    -20.604744     5A    -11.507204     6A    -11.318547
       7A    -11.303259     8A    -11.220005     9A     -1.740266
      10A     -1.639475    11A     -1.635019    12A     -1.436210
      13A     -1.087049    14A     -1.016526    15A     -0.923191
      16A     -0.836834    17A     -0.829638    18A     -0.807054
      19A     -0.799056    20A     -0.718912    21A     -0.714920
      22A     -0.697560    23A     -0.680785    24A     -0.658491
      25A     -0.650698    26A     -0.646528    27A     -0.640968
      28A     -0.575431    29A     -0.559500    30A     -0.527488
      31A     -0.510692    32A     -0.353946

  @DF-RHF Final Energy:  -527.53304928944590

   => Energetics <=

    Nuclear Repulsion Energy =            404.7935348015275281
    One-Electron Energy =               -1533.3252123557595041
    Two-Electron Energy =                 600.9986282647878397
    DFT Exchange-Correlation Energy =       0.0000000000000000
    Empirical Dispersion Energy =           0.0000000000000000
    PCM Polarization Energy =               0.0000000000000000
    EFP Energy =                            0.0000000000000000
    Total Energy =                       -527.5330492894440795

  Mulliken Charges: (a.u.)
   Center  Symbol    Alpha    Beta     Spin     Total
       1     H     0.40686  0.40686  0.00000  0.18629
       2     C     3.23330  3.23330  0.00000 -0.46661
       3     C     2.89481  2.89481  0.00000  0.21039
       4     H     0.40000  0.40000  0.00000  0.20000
       5     O     4.30660  4.30660  0.00000 -0.61319
       6     H     0.40883  0.40883  0.00000  0.18234
       7     C     3.05069  3.05069  0.00000 -0.10137
       8     C     2.45038  2.45038  0.00000  1.09923
       9     H     0.40601  0.40601  0.00000  0.18799
      10     H     0.40656  0.40656  0.00000  0.18689
      11     F     4.68364  4.68364  0.00000 -0.36729
      12     F     4.67748  4.67748  0.00000 -0.35497
      13     F     4.67484  4.67484  0.00000 -0.34969

   Total alpha = 32.00000, Total beta = 32.00000, Total charge =  0.00000
