                              Psi4 1.0.54 Driver

  ==> Input File <==

--------------------------------------------------------------------------
set {
	reference rhf
	basis cc-pvtz
}

set_num_threads( 4 )
memory 2 gb

molecule MOL {
0 1

O	 1.335647	 -2.750362	 -0.363011
C	 0.419462	 -2.021218	 -0.193203
C	 -1.022391	 -2.440895	 -0.169010
O	 0.550743	 -0.719877	 0.000412
H	 -1.461327	 -2.176783	 0.784398
H	 -1.091800	 -3.504503	 -0.328554
H	 -1.567350	 -1.911355	 -0.939752
C	 1.863204	 -0.194033	 0.000410
H	 2.031502	 0.409177	 -0.879273
H	 2.524488	 -1.045142	 0.000793
H	 2.031291	 0.409823	 0.879686

	symmetry c1
}
set optking {
	frozen_dihedral = ("
		2 4 8 9
	")
}

ee,wfn = optimize('scf', return_wfn=True)
oeprop( wfn, 'DIPOLE', 'QUADRUPOLE', 'MULLIKEN_CHARGES')
f=open( 'psi4out.xyz', 'w' )
f.write( "11  " )
f.write( str(ee) + "\n" )
f.write( MOL.save_string_xyz() )
f.close()
--------------------------------------------------------------------------

    Molecular point group: c1
  Charge       = 0
  Multiplicity = 1
  Basis Set: CC-PVTZ
  Basis Set:
  @DF-RHF Final Energy:  -266.93533315392972
    Total Energy =                       -266.9353331539297187
    Molecular point group: c1
  Basis Set: CC-PVTZ
  Basis Set:
  Basis Set: CC-PVTZ
  Basis Set:
  @DF-RHF Final Energy:  -266.93635353795497
    Total Energy =                       -266.9363535379549148
  Basis Set: CC-PVTZ
  Basis Set:
  Basis Set: CC-PVTZ
  Basis Set:
  @DF-RHF Final Energy:  -266.93729327830954
    Total Energy =                       -266.9372932783096530
  Basis Set: CC-PVTZ
  Basis Set:
  Basis Set: CC-PVTZ
  Basis Set:
  @DF-RHF Final Energy:  -266.93683673163969
    Total Energy =                       -266.9368367316398007
  Basis Set: CC-PVTZ
  Basis Set:
  Basis Set: CC-PVTZ
  Basis Set:
  @DF-RHF Final Energy:  -266.93731875510048
    Total Energy =                       -266.9373187551004776
  Basis Set: CC-PVTZ
  Basis Set:
  Charge       = 0
  Multiplicity = 1
  Basis Set: CC-PVTZ
  Basis Set:

    Orbital Energies (a.u.)
    -----------------------

    Doubly Occupied:

       1A    -20.597754     2A    -20.534539     3A    -11.370086
       4A    -11.278552     5A    -11.232602     6A     -1.471823
       7A     -1.368188     8A     -1.037063     9A     -0.954131
      10A     -0.779090    11A     -0.699421    12A     -0.682231
      13A     -0.681007    14A     -0.597897    15A     -0.592762
      16A     -0.561580    17A     -0.530702    18A     -0.520959
      19A     -0.458518    20A     -0.446110

  @DF-RHF Final Energy:  -266.93732260269985

   => Energetics <=

    Nuclear Repulsion Energy =            183.2700839154692574
    One-Electron Energy =                -727.6247818442175230
    Two-Electron Energy =                 277.4173753260484432
    DFT Exchange-Correlation Energy =       0.0000000000000000
    Empirical Dispersion Energy =           0.0000000000000000
    PCM Polarization Energy =               0.0000000000000000
    EFP Energy =                            0.0000000000000000
    Total Energy =                       -266.9373226026997941
    Molecular point group: c1
  Basis Set: CC-PVTZ
  Basis Set:

  -Total Gradient:
     Atom            X                  Y                   Z
    ------   -----------------  -----------------  -----------------
       1        0.000092070872    -0.000009096868     0.000005461480
       2       -0.000048965993     0.000073512230     0.000681909215
       3        0.000012239048     0.000073541954     0.000019875103
       4       -0.000141675920     0.000207533099    -0.000903302700
       5        0.000011333123    -0.000003234863    -0.000006806069
       6        0.000055875449     0.000036642963     0.000002420659
       7        0.000013830214    -0.000006537780    -0.000001282380
       8        0.000334178202    -0.000946259965    -0.000143557264
       9       -0.000306155304     0.000619782677     0.000340530948
      10        0.000037244595    -0.000014805491     0.000003242992
      11       -0.000059974284    -0.000031077955     0.000001508016

  **** Optimization is complete! (in 6 steps) ****
    Final optimized geometry and variables:
    Molecular point group: c1

    Geometry (in Angstrom), charge = 0, multiplicity = 1:

    O            0.645085934857    -1.200750464329    -0.145780008413
    C           -0.233419144593    -0.415097377367    -0.045567330561
    C           -1.695221253681    -0.760670753146    -0.062849135754
    O           -0.054575474489     0.888357000980     0.095832955508
    H           -2.156893658192    -0.430996839608     0.858790372926
    H           -1.812922672616    -1.825658608818    -0.178417741421
    H           -2.180707164482    -0.240370481695    -0.878281456306
    C            1.260090104698     1.409825337330     0.149923715858
    H            1.450296485103     1.964744427573    -0.757708707655
    H            1.984338186300     0.621645309526     0.260304629891
    H            1.304373106999     2.081668090958     0.993789168396

  Mulliken Charges: (a.u.)
   Center  Symbol    Alpha    Beta     Spin     Total
       1     O     4.19718  4.19718  0.00000 -0.39437
       2     C     2.79807  2.79807  0.00000  0.40386
       3     C     3.13942  3.13942  0.00000 -0.27885
       4     O     4.14982  4.14982  0.00000 -0.29964
       5     H     0.44578  0.44578  0.00000  0.10843
       6     H     0.43799  0.43799  0.00000  0.12402
       7     H     0.44555  0.44555  0.00000  0.10890
       8     C     3.03697  3.03697  0.00000 -0.07394
       9     H     0.45455  0.45455  0.00000  0.09090
      10     H     0.44346  0.44346  0.00000  0.11309
      11     H     0.45120  0.45120  0.00000  0.09760

   Total alpha = 20.00000, Total beta = 20.00000, Total charge =  0.00000

*** Psi4 exiting successfully. Buy a developer a beer!
