  ==> Input File <==

--------------------------------------------------------------------------
set {
	reference rhf
	basis 6-31G*
}

set_num_threads( 1 )
memory 2 gb

molecule MOL {
0 1

O	 0.074228	 1.262779	 -0.000085
C	 0.028650	 0.075053	 -0.000277
C	 -1.233602	 -0.752807	 0.000328
O	 1.109162	 -0.694619	 -0.000298
C	 -2.501530	 0.091881	 0.000126
H	 -1.193807	 -1.406641	 -0.865785
H	 -1.193516	 -1.405779	 0.867015
H	 -2.545121	 0.729328	 -0.874513
H	 -3.377167	 -0.548497	 0.000561
H	 -2.544818	 0.730135	 0.874258
C	 2.364743	 -0.039558	 -0.000843
H	 2.470745	 0.577473	 -0.881439
H	 3.106281	 -0.823128	 -0.001660
H	 2.472025	 0.576889	 0.880040

	symmetry c1
}
set optking {
	frozen_dihedral = ("
		4 2 3 6
	")
}

ee = energy('scf')
oeprop('DIPOLE', 'QUADRUPOLE', 'MULLIKEN_CHARGES')
f=open( 'psi4out.xyz', 'w' )
f.write( "14  " )
f.write( str(ee) + "\n" )
f.write( MOL.save_string_xyz() )
f.close()
--------------------------------------------------------------------------

    Molecular point group: c1

    Geometry (in Angstrom), charge = 0, multiplicity = 1:

       Center              X                  Y                   Z               Mass
    ------------   -----------------  -----------------  -----------------  -----------------
           O          0.074227729266     1.262779094621     0.000092768744    15.994914619560
           C          0.028649729266     0.075053094621    -0.000099231256    12.000000000000
           C         -1.233602270734    -0.752806905379     0.000505768744    12.000000000000
           O          1.109161729266    -0.694618905379    -0.000120231256    15.994914619560
           C         -2.501530270734     0.091881094621     0.000303768744    12.000000000000
           H         -1.193807270734    -1.406640905379    -0.865607231256     1.007825032070
           H         -1.193516270734    -1.405778905379     0.867192768744     1.007825032070
           H         -2.545121270734     0.729328094621    -0.874335231256     1.007825032070
           H         -3.377167270734    -0.548496905379     0.000738768744     1.007825032070
           H         -2.544818270734     0.730135094621     0.874435768744     1.007825032070
           C          2.364742729266    -0.039557905379    -0.000665231256    12.000000000000
           H          2.470744729266     0.577473094621    -0.881261231256     1.007825032070
           H          3.106280729266    -0.823127905379    -0.001482231256     1.007825032070
           H          2.472024729266     0.576889094621     0.880217768744     1.007825032070

  Charge       = 0
  Multiplicity = 1
  Basis Set: 6-31G*
  Basis Set:

    Orbital Energies (a.u.)
    -----------------------

    Doubly Occupied:

       1A    -20.604551     2A    -20.546338     3A    -11.372932
       4A    -11.281500     5A    -11.238768     6A    -11.216682
       7A     -1.470251     8A     -1.363755     9A     -1.064455
      10A     -0.980349    11A     -0.878362    12A     -0.768916
      13A     -0.700782    14A     -0.682922    15A     -0.671743
      16A     -0.621281    17A     -0.602588    18A     -0.543999
      19A     -0.537441    20A     -0.522145    21A     -0.514211
      22A     -0.496385    23A     -0.457345    24A     -0.439399

  @DF-RHF Final Energy:  -305.87220303247449

   => Energetics <=

    Nuclear Repulsion Energy =            247.1378535090726132
    One-Electron Energy =                -906.8659604155975558
    Two-Electron Energy =                 353.8559038740501137
    DFT Exchange-Correlation Energy =       0.0000000000000000
    Empirical Dispersion Energy =           0.0000000000000000
    PCM Polarization Energy =               0.0000000000000000
    EFP Energy =                            0.0000000000000000
    Total Energy =                       -305.8722030324748857

  Mulliken Charges: (a.u.)
   Center  Symbol    Alpha    Beta     Spin     Total
       1     O     4.28523  4.28523  0.00000 -0.57047
       2     C     2.60831  2.60831  0.00000  0.78338
       3     C     3.20510  3.20510  0.00000 -0.41021
       4     O     4.30592  4.30592  0.00000 -0.61184
       5     C     3.23895  3.23895  0.00000 -0.47790
       6     H     0.40020  0.40020  0.00000  0.19960
       7     H     0.40018  0.40018  0.00000  0.19965
       8     H     0.40984  0.40984  0.00000  0.18032
       9     H     0.41790  0.41790  0.00000  0.16420
      10     H     0.40983  0.40983  0.00000  0.18033
      11     C     3.09232  3.09232  0.00000 -0.18463
      12     H     0.40891  0.40891  0.00000  0.18217
      13     H     0.40838  0.40838  0.00000  0.18325
      14     H     0.40892  0.40892  0.00000  0.18215

   Total alpha = 24.00000, Total beta = 24.00000, Total charge = -0.00000
