  ==> Input File <==

--------------------------------------------------------------------------
set {
	reference rhf
	basis 6-31G*
}

set_num_threads( 1 )
memory 2 gb

molecule MOL {
0 1

O	 3.073450	 1.010759	 -0.808943
C	 2.843464	 0.164689	 -0.000222
C	 1.546494	 -0.624492	 -0.000609
C	 3.840143	 -0.178504	 1.087898
C	 0.291004	 0.242674	 0.000989
H	 1.557904	 -1.283758	 -0.867573
H	 1.558622	 -1.285963	 0.864672
C	 -0.994322	 -0.586602	 0.000262
H	 0.309117	 0.896430	 -0.865270
H	 0.309661	 0.894078	 0.869017
C	 -2.259874	 0.272531	 0.000494
H	 -1.004862	 -1.240012	 -0.870939
H	 -1.005220	 -1.241071	 0.870675
C	 -3.549786	 -0.549746	 -0.000374
H	 -2.250389	 0.926680	 -0.869574
H	 -2.250838	 0.925513	 0.871430
C	 -4.809590	 0.315458	 -0.000369
H	 -3.560515	 -1.202009	 -0.871156
H	 -3.561123	 -1.202955	 0.869711
H	 -4.844746	 0.956611	 -0.876632
H	 -5.706986	 -0.295590	 -0.001609
H	 -4.845960	 0.954827	 0.877144
H	 4.125749	 -1.224437	 1.024088
H	 4.719249	 0.442559	 0.986479
H	 3.398597	 -0.024359	 2.068159

	symmetry c1
}
set optking {
	frozen_dihedral = ("
		9 5 8 12,
		15 11 8 12,
		15 11 14 18,
		9 5 3 6
	")
}

ee = energy('scf')
oeprop('DIPOLE', 'QUADRUPOLE', 'MULLIKEN_CHARGES')
f=open( 'psi4out.xyz', 'w' )
f.write( "25  " )
f.write( str(ee) + "\n" )
f.write( MOL.save_string_xyz() )
f.close()
--------------------------------------------------------------------------

    Molecular point group: c1

    Geometry (in Angstrom), charge = 0, multiplicity = 1:

       Center              X                  Y                   Z               Mass
    ------------   -----------------  -----------------  -----------------  -----------------
           O          3.082066164179     0.996614915251    -0.841946335397    15.994914619560
           C          2.852080164179     0.150544915251    -0.033225335397    12.000000000000
           C          1.555110164179    -0.638636084749    -0.033612335397    12.000000000000
           C          3.848759164179    -0.192648084749     1.054894664603    12.000000000000
           C          0.299620164179     0.228529915251    -0.032014335397    12.000000000000
           H          1.566520164179    -1.297902084749    -0.900576335397     1.007825032070
           H          1.567238164179    -1.300107084749     0.831668664603     1.007825032070
           C         -0.985705835821    -0.600746084749    -0.032741335397    12.000000000000
           H          0.317733164179     0.882285915251    -0.898273335397     1.007825032070
           H          0.318277164179     0.879933915251     0.836013664603     1.007825032070
           C         -2.251257835821     0.258386915251    -0.032509335397    12.000000000000
           H         -0.996245835821    -1.254156084749    -0.903942335397     1.007825032070
           H         -0.996603835821    -1.255215084749     0.837671664603     1.007825032070
           C         -3.541169835821    -0.563890084749    -0.033377335397    12.000000000000
           H         -2.241772835821     0.912535915251    -0.902577335397     1.007825032070
           H         -2.242221835821     0.911368915251     0.838426664603     1.007825032070
           C         -4.800973835821     0.301313915251    -0.033372335397    12.000000000000
           H         -3.551898835821    -1.216153084749    -0.904159335397     1.007825032070
           H         -3.552506835821    -1.217099084749     0.836707664603     1.007825032070
           H         -4.836129835821     0.942466915251    -0.909635335397     1.007825032070
           H         -5.698369835821    -0.309734084749    -0.034612335397     1.007825032070
           H         -4.837343835821     0.940682915251     0.844140664603     1.007825032070
           H          4.134365164179    -1.238581084749     0.991084664603     1.007825032070
           H          4.727865164179     0.428414915251     0.953475664603     1.007825032070
           H          3.407213164179    -0.038503084749     2.035155664603     1.007825032070

  Charge       = 0
  Multiplicity = 1
  Basis Set: 6-31G*
  Basis Set:

    Orbital Energies (a.u.)
    -----------------------

    Doubly Occupied:

       1A    -20.548481     2A    -11.325404     3A    -11.230379
       4A    -11.227710     5A    -11.224655     6A    -11.220329
       7A    -11.217414     8A    -11.216298     9A    -11.209953
      10A     -1.394049    11A     -1.097106    12A     -1.058322
      13A     -1.014081    14A     -0.970044    15A     -0.892831
      16A     -0.817328    17A     -0.793804    18A     -0.731279
      19A     -0.664464    20A     -0.648419    21A     -0.636090
      22A     -0.614681    23A     -0.600090    24A     -0.585951
      25A     -0.568882    26A     -0.559116    27A     -0.541808
      28A     -0.535391    29A     -0.510004    30A     -0.495352
      31A     -0.488422    32A     -0.473715    33A     -0.466708
      34A     -0.465104    35A     -0.452845    36A     -0.396275

  @DF-RHF Final Energy:  -387.13414020915781

   => Energetics <=

    Nuclear Repulsion Energy =            438.1035444292862735
    One-Electron Energy =               -1392.6898653228611238
    Two-Electron Energy =                 567.4521806844152252
    DFT Exchange-Correlation Energy =       0.0000000000000000
    Empirical Dispersion Energy =           0.0000000000000000
    PCM Polarization Energy =               0.0000000000000000
    EFP Energy =                            0.0000000000000000
    Total Energy =                       -387.1341402091595683

  Mulliken Charges: (a.u.)
   Center  Symbol    Alpha    Beta     Spin     Total
       1     O     4.26236  4.26236  0.00000 -0.52472
       2     C     2.73399  2.73399  0.00000  0.53203
       3     C     3.20564  3.20564  0.00000 -0.41128
       4     C     3.29051  3.29051  0.00000 -0.58102
       5     C     3.15518  3.15518  0.00000 -0.31037
       6     H     0.40264  0.40264  0.00000  0.19472
       7     H     0.41703  0.41703  0.00000  0.16595
       8     C     3.15340  3.15340  0.00000 -0.30680
       9     H     0.40449  0.40449  0.00000  0.19101
      10     H     0.41959  0.41959  0.00000  0.16082
      11     C     3.15138  3.15138  0.00000 -0.30277
      12     H     0.42176  0.42176  0.00000  0.15649
      13     H     0.42389  0.42389  0.00000  0.15222
      14     C     3.15177  3.15177  0.00000 -0.30355
      15     H     0.42147  0.42147  0.00000  0.15707
      16     H     0.42338  0.42338  0.00000  0.15324
      17     C     3.23945  3.23945  0.00000 -0.47889
      18     H     0.42268  0.42268  0.00000  0.15465
      19     H     0.42340  0.42340  0.00000  0.15319
      20     H     0.42098  0.42098  0.00000  0.15805
      21     H     0.41907  0.41907  0.00000  0.16186
      22     H     0.42161  0.42161  0.00000  0.15679
      23     H     0.40823  0.40823  0.00000  0.18354
      24     H     0.39764  0.39764  0.00000  0.20472
      25     H     0.40847  0.40847  0.00000  0.18306

   Total alpha = 36.00000, Total beta = 36.00000, Total charge = -0.00000
