  ==> Input File <==

--------------------------------------------------------------------------
set {
	reference rhf
	basis cc-pvtz
}

set_num_threads( 4 )
memory 2 gb

molecule MOL {
0 1

H	 1.736786	 -0.977387	 -0.884823
O	 1.583947	 -0.677544	 -0.001533
C	 0.489979	 0.078084	 0.002623
C	 -0.763662	 -0.754014	 0.000816
O	 0.539051	 1.259395	 -0.000088
C	 -2.038001	 0.074705	 -0.000833
H	 -0.712945	 -1.405886	 -0.864342
H	 -0.715137	 -1.405770	 0.866182
H	 -2.087267	 0.710831	 -0.874232
H	 -2.903419	 -0.576199	 -0.001922
H	 -2.089467	 0.710909	 0.872389

	symmetry c1
}
set optking {
	frozen_dihedral = ("
		1 2 3 5
	")
}

ee = optimize('scf')
oeprop('DIPOLE', 'QUADRUPOLE', 'MULLIKEN_CHARGES')
f=open( 'psi4out.xyz', 'w' )
f.write( "11  " )
f.write( str(ee) + "\n" )
f.write( MOL.save_string_xyz() )
f.close()
--------------------------------------------------------------------------

    Molecular point group: c1
  Charge       = 0
  Multiplicity = 1
  Basis Set: CC-PVTZ
  Basis Set:
  @DF-RHF Final Energy:  -266.93168069225703
    Total Energy =                       -266.9316806922569754
    Molecular point group: c1
  Basis Set: CC-PVTZ
  Basis Set:
  Basis Set: CC-PVTZ
  Basis Set:
  @DF-RHF Final Energy:  -266.93259240189832
    Total Energy =                       -266.9325924018983187
  Basis Set: CC-PVTZ
  Basis Set:
  Basis Set: CC-PVTZ
  Basis Set:
  @DF-RHF Final Energy:  -266.93325286417320
    Total Energy =                       -266.9332528641734257
  Basis Set: CC-PVTZ
  Basis Set:
  Basis Set: CC-PVTZ
  Basis Set:
  @DF-RHF Final Energy:  -266.93339393288989
    Total Energy =                       -266.9333939328901693
  Basis Set: CC-PVTZ
  Basis Set:
  Charge       = 0
  Multiplicity = 1
  Basis Set: CC-PVTZ
  Basis Set:

    Orbital Energies (a.u.)
    -----------------------

    Doubly Occupied:

       1A    -20.587346     2A    -20.551432     3A    -11.374976
       4A    -11.246302     5A    -11.221045     6A     -1.464405
       7A     -1.372078     8A     -1.066110     9A     -0.910862
      10A     -0.812265    11A     -0.715668    12A     -0.676217
      13A     -0.662353    14A     -0.616511    15A     -0.571426
      16A     -0.531455    17A     -0.522652    18A     -0.502190
      19A     -0.497550    20A     -0.449391

  @DF-RHF Final Energy:  -266.93339572968131

   => Energetics <=

    Nuclear Repulsion Energy =            179.3918634712180733
    One-Electron Energy =                -719.9460523285398494
    Two-Electron Energy =                 273.6207931276404679
    DFT Exchange-Correlation Energy =       0.0000000000000000
    Empirical Dispersion Energy =           0.0000000000000000
    PCM Polarization Energy =               0.0000000000000000
    EFP Energy =                            0.0000000000000000
    Total Energy =                       -266.9333957296813651
    Molecular point group: c1
  Basis Set: CC-PVTZ
  Basis Set:

  -Total Gradient:
     Atom            X                  Y                   Z
    ------   -----------------  -----------------  -----------------
       1        0.000494555699     0.000716231896    -0.000054224681
       2       -0.000793586188    -0.000848467116    -0.000292155162
       3        0.000323447736    -0.000010564769     0.001129152671
       4        0.000029644567     0.000029586927     0.000040536755
       5       -0.000070811399     0.000102950680    -0.000773817899
       6        0.000008237912     0.000018038688    -0.000018618139
       7       -0.000008428179     0.000001809793    -0.000014761334
       8        0.000019706389    -0.000005211904    -0.000009712636
       9       -0.000003563839     0.000008127060     0.000000723414
      10       -0.000003471756    -0.000003618345     0.000003201212
      11        0.000004269059    -0.000008882909    -0.000010324202

  **** Optimization is complete! (in 5 steps) ****
    Final optimized geometry and variables:
    Molecular point group: c1

    Geometry (in Angstrom), charge = 0, multiplicity = 1:

    H            1.856443656895    -0.964989109043    -0.858118380091
    O            1.626453191745    -0.664005127427     0.005076096251
    C            0.492854999646     0.085993976063    -0.002813176622
    C           -0.770637023851    -0.734939929422     0.008748643790
    O            0.536815347898     1.258190454317     0.025778812637
    C           -2.043825061284     0.095043637560     0.017883587702
    H           -0.738089931431    -1.396109161397    -0.852812787582
    H           -0.711963203273    -1.384578856324     0.875470514617
    H           -2.102724043387     0.728433741834    -0.857329401649
    H           -2.911727586786    -0.552681234137     0.030559246143
    H           -2.081602623666     0.734992273373     0.888931607904

  Mulliken Charges: (a.u.)
   Center  Symbol    Alpha    Beta     Spin     Total
       1     H     0.38885  0.38885  0.00000  0.22230
       2     O     4.17253  4.17253  0.00000 -0.34507
       3     C     2.80292  2.80292  0.00000  0.39416
       4     C     3.10439  3.10439  0.00000 -0.20878
       5     O     4.15989  4.15989  0.00000 -0.31978
       6     C     3.13909  3.13909  0.00000 -0.27819
       7     H     0.45032  0.45032  0.00000  0.09936
       8     H     0.43751  0.43751  0.00000  0.12499
       9     H     0.44884  0.44884  0.00000  0.10233
      10     H     0.45009  0.45009  0.00000  0.09983
      11     H     0.44558  0.44558  0.00000  0.10884

   Total alpha = 20.00000, Total beta = 20.00000, Total charge = -0.00000
