                              Psi4 1.0.54 Driver

  ==> Input File <==

--------------------------------------------------------------------------
set {
	reference rhf
	basis cc-pvtz
}

set_num_threads( 4 )
memory 2 gb

molecule MOL {
0 1

H	 -3.144994	 -1.202467	 -0.018751
O	 -2.321472	 -0.864941	 -0.318626
C	 -2.021813	 0.336996	 0.342658
C	 -0.669613	 0.837286	 -0.127252
H	 -2.780861	 1.084746	 0.127159
H	 -2.006390	 0.184138	 1.420053
C	 0.490865	 -0.082543	 0.241244
H	 -0.708709	 0.967192	 -1.204587
H	 -0.507562	 1.822272	 0.303070
C	 1.839800	 0.429565	 -0.255472
H	 0.305636	 -1.070211	 -0.165276
H	 0.527397	 -0.195943	 1.322876
C	 2.882020	 0.539884	 0.852406
H	 2.210245	 -0.233726	 -1.032336
H	 1.708043	 1.401911	 -0.723311
H	 3.061829	 -0.424113	 1.316405
H	 3.828121	 0.903795	 0.468004
H	 2.556253	 1.223350	 1.629706

	symmetry c1
}
set optking {
	frozen_dihedral = ("
		14 10 7 11
	")
}

ee,wfn = optimize('scf', return_wfn=True)
oeprop( wfn, 'DIPOLE', 'QUADRUPOLE', 'MULLIKEN_CHARGES')
f=open( 'psi4out.xyz', 'w' )
f.write( "18  " )
f.write( str(ee) + "\n" )
f.write( MOL.save_string_xyz() )
f.close()
--------------------------------------------------------------------------

    Molecular point group: c1
  Charge       = 0
  Multiplicity = 1
  Basis Set: CC-PVTZ
  Basis Set:
  @DF-RHF Final Energy:  -271.28111832745947
    Total Energy =                       -271.2811183274596374
    Molecular point group: c1
  Basis Set: CC-PVTZ
  Basis Set:
  Basis Set: CC-PVTZ
  Basis Set:
  @DF-RHF Final Energy:  -271.28136340901381
    Total Energy =                       -271.2813634090135793
  Basis Set: CC-PVTZ
  Basis Set:
  Basis Set: CC-PVTZ
  Basis Set:
  @DF-RHF Final Energy:  -271.28143079640643
    Total Energy =                       -271.2814307964060845
  Basis Set: CC-PVTZ
  Basis Set:
  Charge       = 0
  Multiplicity = 1
  Basis Set: CC-PVTZ
  Basis Set:

    Orbital Energies (a.u.)
    -----------------------

    Doubly Occupied:

       1A    -20.546279     2A    -11.265744     3A    -11.210874
       4A    -11.208960     5A    -11.204752     6A    -11.203980
       7A     -1.364148     8A     -1.074386     9A     -1.009640
      10A     -0.914114    11A     -0.820506    12A     -0.784192
      13A     -0.708484    14A     -0.639440    15A     -0.621358
      16A     -0.594908    17A     -0.573931    18A     -0.553216
      19A     -0.522450    20A     -0.504308    21A     -0.493900
      22A     -0.466628    23A     -0.453596    24A     -0.448859
      25A     -0.430558

  @DF-RHF Final Energy:  -271.28143136178528

   => Energetics <=

    Nuclear Repulsion Energy =            249.2443530151369941
    One-Electron Energy =                -861.8131527384870196
    Two-Electron Energy =                 341.2873683615648019
    DFT Exchange-Correlation Energy =       0.0000000000000000
    Empirical Dispersion Energy =           0.0000000000000000
    PCM Polarization Energy =               0.0000000000000000
    EFP Energy =                            0.0000000000000000
    Total Energy =                       -271.2814313617852235
    Molecular point group: c1
  Basis Set: CC-PVTZ
  Basis Set:

  -Total Gradient:
     Atom            X                  Y                   Z
    ------   -----------------  -----------------  -----------------
       1       -0.000000823193     0.000001038667    -0.000000425041
       2       -0.000011478903     0.000017649596     0.000016478509
       3       -0.000009128936     0.000003291590    -0.000000485418
       4        0.000031339295    -0.000038705991     0.000020224936
       5       -0.000019422335    -0.000013152940    -0.000000290193
       6       -0.000009292170    -0.000008927890    -0.000007471635
       7        0.001129885255    -0.001066638124     0.001904121952
       8        0.000007424720     0.000005059098    -0.000000127438
       9        0.000005068864     0.000000688329    -0.000002471616
      10       -0.001144557680     0.001322757904    -0.001713303556
      11       -0.000775994353     0.000716384479    -0.001350979122
      12        0.000002883655    -0.000005243535     0.000004973166
      13       -0.000006226641     0.000008207145    -0.000038079648
      14        0.000800237208    -0.000948254344     0.001177822000
      15        0.000001519281     0.000003889577    -0.000005050640
      16       -0.000005281534     0.000003890329    -0.000000910395
      17        0.000011433518     0.000002303297    -0.000000055288
      18       -0.000007586047    -0.000004237190    -0.000003970574

  **** Optimization is complete! (in 4 steps) ****
    Final optimized geometry and variables:
    Molecular point group: c1

    Geometry (in Angstrom), charge = 0, multiplicity = 1:

    H           -3.128732406062    -1.384998733449    -0.153256637654
    O           -2.304841131862    -1.044839218132    -0.448832410311
    C           -2.011891297667     0.157457437956     0.214859874580
    C           -0.659842319967     0.663131320073    -0.249212321030
    H           -2.772919229183     0.902680442352    -0.002597626505
    H           -1.999917812431     0.003420823735     1.292171562076
    C            0.505234728084    -0.251111031254     0.125993280265
    H           -0.693309358693     0.791139248663    -1.327001782929
    H           -0.503122097482     1.649620291324     0.180049979980
    C            1.868062900879     0.266408019151    -0.377295613451
    H            0.307657861598    -1.234728716784    -0.279230194972
    H            0.530002957166    -0.359222136964     1.206742200082
    C            2.924566449953     0.357966208167     0.720910206261
    H            2.241157306555    -0.387350702646    -1.158093523671
    H            1.747420032693     1.245101680222    -0.830505035460
    H            3.099242527715    -0.611509848887     1.175733041283
    H            3.870583039346     0.715343570958     0.329533563406
    H            2.612553019903     1.037870003282     1.507238717198

  Mulliken Charges: (a.u.)
   Center  Symbol    Alpha    Beta     Spin     Total
       1     H     0.39569  0.39569  0.00000  0.20862
       2     O     4.19878  4.19878  0.00000 -0.39757
       3     C     2.97418  2.97418  0.00000  0.05163
       4     C     3.09139  3.09139  0.00000 -0.18277
       5     H     0.46546  0.46546  0.00000  0.06907
       6     H     0.47364  0.47364  0.00000  0.05272
       7     C     3.09351  3.09351  0.00000 -0.18702
       8     H     0.45122  0.45122  0.00000  0.09756
       9     H     0.45395  0.45395  0.00000  0.09210
      10     C     3.08714  3.08714  0.00000 -0.17428
      11     H     0.44131  0.44131  0.00000  0.11738
      12     H     0.45871  0.45871  0.00000  0.08258
      13     C     3.14775  3.14775  0.00000 -0.29550
      14     H     0.45026  0.45026  0.00000  0.09949
      15     H     0.45559  0.45559  0.00000  0.08882
      16     H     0.45435  0.45435  0.00000  0.09130
      17     H     0.45018  0.45018  0.00000  0.09964
      18     H     0.45689  0.45689  0.00000  0.08622

   Total alpha = 25.00000, Total beta = 25.00000, Total charge = -0.00000

*** Psi4 exiting successfully. Buy a developer a beer!
