  ==> Input File <==

--------------------------------------------------------------------------
set {
	reference rhf
	basis cc-pvtz
}

set_num_threads( 4 )
memory 2 gb

molecule MOL {
0 1

H	 2.646708	 0.758099	 0.000000
O	 2.258158	 -0.097743	 0.000000
C	 0.911162	 -0.015915	 0.000000
C	 0.201889	 -1.129136	 -0.420087
C	 0.238673	 1.123743	 0.399197
H	 0.740192	 -2.004371	 -0.726180
C	 -1.175567	 -1.091600	 -0.436851
H	 0.788981	 1.987751	 0.725237
C	 -1.144594	 1.147164	 0.377177
H	 -1.719996	 -1.957271	 -0.763365
C	 -1.860710	 0.044560	 -0.039204
H	 -1.658979	 2.036316	 0.688854
H	 -2.932706	 0.066250	 -0.054983

	symmetry c1
}
set optking {
	frozen_dihedral = ("
		4 3 2 1
	")
}

ee = optimize('scf')
oeprop('DIPOLE', 'QUADRUPOLE', 'MULLIKEN_CHARGES')
f=open( 'psi4out.xyz', 'w' )
f.write( "13  " )
f.write( str(ee) + "\n" )
f.write( MOL.save_string_xyz() )
f.close()
--------------------------------------------------------------------------

    Molecular point group: c1
  Charge       = 0
  Multiplicity = 1
  Basis Set: CC-PVTZ
  Basis Set:
  @DF-RHF Final Energy:  -305.66996992842530
    Total Energy =                       -305.6699699284255303
    Molecular point group: c1
  Basis Set: CC-PVTZ
  Basis Set:
  Basis Set: CC-PVTZ
  Basis Set:
  @DF-RHF Final Energy:  -305.66998490827916
    Total Energy =                       -305.6699849082791616
  Basis Set: CC-PVTZ
  Basis Set:
  Charge       = 0
  Multiplicity = 1
  Basis Set: CC-PVTZ
  Basis Set:

    Orbital Energies (a.u.)
    -----------------------

    Doubly Occupied:

       1A    -20.583355     2A    -11.296683     3A    -11.235108
       4A    -11.233392     5A    -11.226156     6A    -11.220943
       7A    -11.220127     8A     -1.413686     9A     -1.152729
      10A     -1.022743    11A     -1.008390    12A     -0.850113
      13A     -0.826861    14A     -0.741376    15A     -0.687977
      16A     -0.654428    17A     -0.615437    18A     -0.598168
      19A     -0.591840    20A     -0.560618    21A     -0.517538
      22A     -0.493904    23A     -0.484025    24A     -0.343085
      25A     -0.316188

  @DF-RHF Final Energy:  -305.66998813378808

   => Energetics <=

    Nuclear Repulsion Energy =            273.7820026408767831
    One-Electron Energy =                -957.1142379577095198
    Two-Electron Energy =                 377.6622471830445420
    DFT Exchange-Correlation Energy =       0.0000000000000000
    Empirical Dispersion Energy =           0.0000000000000000
    PCM Polarization Energy =               0.0000000000000000
    EFP Energy =                            0.0000000000000000
    Total Energy =                       -305.6699881337882516
    Molecular point group: c1
  Basis Set: CC-PVTZ
  Basis Set:

  -Total Gradient:
     Atom            X                  Y                   Z
    ------   -----------------  -----------------  -----------------
       1        0.000031988202    -0.000000406057    -0.001865113089
       2       -0.000077910590     0.000246116585     0.001739282372
       3        0.000126650581    -0.000501011435     0.001516866856
       4       -0.000257234511     0.000362287814    -0.001266399231
       5        0.000166106269    -0.000066702625    -0.000144732668
       6        0.000019723550     0.000015102243    -0.000020343021
       7        0.000187050550    -0.000114875591    -0.000081688253
       8       -0.000014752992    -0.000014859396     0.000024612332
       9       -0.000181995473    -0.000125581928     0.000006370889
      10       -0.000011914082    -0.000007916374     0.000006383500
      11       -0.000004920662     0.000193792659     0.000100908780
      12        0.000012771798     0.000021910140    -0.000007731725
      13        0.000004437359    -0.000007856036    -0.000008416741

  **** Optimization is complete! (in 3 steps) ****
    Final optimized geometry and variables:
    Molecular point group: c1

    Geometry (in Angstrom), charge = 0, multiplicity = 1:

    H            2.646528854423     0.756659997835     0.022575091338
    O            2.259503057660    -0.099978453093     0.021444102637
    C            0.910489143837    -0.019433160053     0.014850133026
    C            0.201133172987    -1.131186220311    -0.406849815050
    C            0.238538301009     1.121144091927     0.412690401559
    H            0.739321789923    -2.004575977265    -0.718512785610
    C           -1.177052542498    -1.096370226662    -0.416600862759
    H            0.790301574775     1.981813422897     0.744366447949
    C           -1.144389408974     1.145534293446     0.390281598001
    H           -1.721870611313    -1.962171376876    -0.742163412797
    C           -1.860923198208     0.040575266577    -0.020621637270
    H           -1.658637636509     2.035397255162     0.700216656277
    H           -2.933023019429     0.062053622716    -0.034259041753

  Mulliken Charges: (a.u.)
   Center  Symbol    Alpha    Beta     Spin     Total
       1     H     0.38658  0.38658  0.00000  0.22683
       2     O     4.17738  4.17738  0.00000 -0.35477
       3     C     2.85362  2.85362  0.00000  0.29276
       4     C     3.11032  3.11032  0.00000 -0.22064
       5     C     3.13163  3.13163  0.00000 -0.26326
       6     H     0.41895  0.41895  0.00000  0.16209
       7     C     3.05767  3.05767  0.00000 -0.11535
       8     H     0.43272  0.43272  0.00000  0.13456
       9     C     3.06530  3.06530  0.00000 -0.13060
      10     H     0.42234  0.42234  0.00000  0.15533
      11     C     3.09728  3.09728  0.00000 -0.19456
      12     H     0.42236  0.42236  0.00000  0.15527
      13     H     0.42383  0.42383  0.00000  0.15234

   Total alpha = 25.00000, Total beta = 25.00000, Total charge = -0.00000
