  ==> Input File <==

--------------------------------------------------------------------------
set {
	reference rhf
	basis 6-31G*
}

set_num_threads( 4 )
memory 2 gb

molecule MOL {
0 1

H	 -3.161837	 0.500524	 -0.000234
C	 -2.367097	 -0.232926	 -0.000000
O	 -1.158440	 0.455814	 -0.000122
H	 -2.468853	 -0.861886	 -0.882833
H	 -2.468942	 -0.861421	 0.883154
C	 -0.029776	 -0.365156	 0.000148
C	 0.498311	 -0.472024	 1.420136
H	 0.735347	 0.048340	 -0.658265
H	 -0.284499	 -1.353633	 -0.384479
C	 1.740619	 -1.356468	 1.516627
H	 0.720780	 0.527524	 1.780792
H	 -0.291865	 -0.864687	 2.052699
H	 2.552702	 -0.967012	 0.908952
H	 2.095472	 -1.415334	 2.540082
H	 1.533056	 -2.369089	 1.182083

	symmetry c1
}
set optking {
	frozen_dihedral = ("
		8 6 3 2
	")
}

ee = optimize('scf')
oeprop('DIPOLE', 'QUADRUPOLE', 'MULLIKEN_CHARGES')
f=open( 'psi4out.xyz', 'w' )
f.write( "15  " )
f.write( str(ee) + "\n" )
f.write( MOL.save_string_xyz() )
f.close()
--------------------------------------------------------------------------

    Molecular point group: c1
  Charge       = 0
  Multiplicity = 1
  Basis Set: 6-31G*
  Basis Set:
  @DF-RHF Final Energy:  -232.13526103545388
    Total Energy =                       -232.1352610354538797
    Molecular point group: c1
  Basis Set: 6-31G*
  Basis Set:
  Basis Set: 6-31G*
  Basis Set:
  @DF-RHF Final Energy:  -232.13605647308523
    Total Energy =                       -232.1360564730850911
  Basis Set: 6-31G*
  Basis Set:
  Basis Set: 6-31G*
  Basis Set:
  @DF-RHF Final Energy:  -232.13621755331010
    Total Energy =                       -232.1362175533100753
  Basis Set: 6-31G*
  Basis Set:
  Basis Set: 6-31G*
  Basis Set:
  @DF-RHF Final Energy:  -232.13621974949697
    Total Energy =                       -232.1362197494968314
  Basis Set: 6-31G*
  Basis Set:
  Charge       = 0
  Multiplicity = 1
  Basis Set: 6-31G*
  Basis Set:

    Orbital Energies (a.u.)
    -----------------------

    Doubly Occupied:

       1A    -20.550892     2A    -11.265981     3A    -11.264478
       4A    -11.215184     5A    -11.213919     6A     -1.373983
       7A     -1.056063     8A     -0.957440     9A     -0.881016
      10A     -0.807648    11A     -0.668829    12A     -0.654076
      13A     -0.636307    14A     -0.598744    15A     -0.568941
      16A     -0.535472    17A     -0.512214    18A     -0.496395
      19A     -0.482664    20A     -0.459948    21A     -0.404467

  @DF-RHF Final Energy:  -232.13621995957044

   => Energetics <=

    Nuclear Repulsion Energy =            190.7485494730488540
    One-Electron Energy =                -692.5602221673566419
    Two-Electron Energy =                 269.6754527347374051
    DFT Exchange-Correlation Energy =       0.0000000000000000
    Empirical Dispersion Energy =           0.0000000000000000
    PCM Polarization Energy =               0.0000000000000000
    EFP Energy =                            0.0000000000000000
    Total Energy =                       -232.1362199595703828
    Molecular point group: c1
  Basis Set: 6-31G*
  Basis Set:

  -Total Gradient:
     Atom            X                  Y                   Z
    ------   -----------------  -----------------  -----------------
       1       -0.000001738248    -0.000005310990     0.000000733944
       2        0.000027409731    -0.000044267033    -0.001180448841
       3       -0.000144638200    -0.000103046789     0.001446221494
       4       -0.000004473641    -0.000003163295     0.000001603110
       5       -0.000000445315    -0.000000778118    -0.000000844720
       6        0.000630589417     0.000958811611     0.000814138022
       7       -0.000013914280    -0.000013161749    -0.000029535586
       8       -0.000504681282    -0.000780575592    -0.001080516558
       9       -0.000003306709    -0.000009414640     0.000004150987
      10        0.000008086933     0.000019131679     0.000016292632
      11       -0.000000596440    -0.000005122703     0.000005201792
      12       -0.000002235916     0.000000816657    -0.000004052410
      13       -0.000005165330    -0.000009004556    -0.000001574059
      14        0.000017761712    -0.000008342245     0.000004031870
      15       -0.000002652431     0.000003427764     0.000004598323

  **** Optimization is complete! (in 5 steps) ****
    Final optimized geometry and variables:
    Molecular point group: c1

    Geometry (in Angstrom), charge = 0, multiplicity = 1:

    H           -2.879677671412     0.943024805107    -0.620905329656
    C           -2.106291642364     0.187040177016    -0.606179837226
    O           -0.879282221277     0.845620912898    -0.600771616338
    H           -2.215575033886    -0.442584782363    -1.486826664323
    H           -2.242827160555    -0.431210642980     0.278695693358
    C            0.251279242812     0.019311394878    -0.544913377154
    C            0.804668039574    -0.085907607888     0.870418842724
    H            0.993760133839     0.448107193439    -1.209782929244
    H            0.016293898230    -0.971272441726    -0.931625126348
    C            2.063454934593    -0.949685886867     0.941550138972
    H            1.017167966218     0.916490460585     1.229416534730
    H            0.038884716004    -0.494700134084     1.524683291361
    H            2.852983956508    -0.548276634652     0.312327292264
    H            2.445355842429    -0.999824599831     1.955756394444
    H            1.865546234094    -1.966729250319     0.614007821289

  Mulliken Charges: (a.u.)
   Center  Symbol    Alpha    Beta     Spin     Total
       1     H     0.41257  0.41257  0.00000  0.17487
       2     C     3.07979  3.07979  0.00000 -0.15959
       3     O     4.30793  4.30793  0.00000 -0.61586
       4     H     0.42920  0.42920  0.00000  0.14159
       5     H     0.43121  0.43121  0.00000  0.13758
       6     C     2.98766  2.98766  0.00000  0.02469
       7     C     3.15984  3.15984  0.00000 -0.31968
       8     H     0.41868  0.41868  0.00000  0.16264
       9     H     0.43263  0.43263  0.00000  0.13475
      10     C     3.24853  3.24853  0.00000 -0.49706
      11     H     0.41381  0.41381  0.00000  0.17237
      12     H     0.42126  0.42126  0.00000  0.15749
      13     H     0.41990  0.41990  0.00000  0.16020
      14     H     0.41557  0.41557  0.00000  0.16885
      15     H     0.42142  0.42142  0.00000  0.15716

   Total alpha = 21.00000, Total beta = 21.00000, Total charge =  0.00000
