                              Psi4 1.0.54 Driver

  ==> Input File <==

--------------------------------------------------------------------------
set {
	reference rhf
	basis cc-pvtz
}

set_num_threads( 4 )
memory 2 gb

molecule MOL {
0 1

O	 -2.710034	 -0.176185	 0.746218
C	 -2.005583	 -0.940019	 0.170250
C	 -0.881910	 -0.448129	 -0.720509
C	 -2.177519	 -2.434083	 0.308007
C	 0.376695	 -0.140025	 0.100361
H	 -1.224462	 0.453414	 -1.212433
H	 -0.654216	 -1.186869	 -1.481615
C	 1.630207	 -0.772146	 -0.501001
H	 0.486632	 0.935267	 0.162725
H	 0.248225	 -0.501310	 1.117842
C	 2.907848	 -0.545876	 0.309149
H	 1.772784	 -0.391628	 -1.509394
H	 1.468529	 -1.842059	 -0.599744
C	 3.373802	 0.906639	 0.372125
H	 3.699140	 -1.146831	 -0.127906
H	 2.764321	 -0.923458	 1.318191
H	 3.519798	 1.311927	 -0.623875
H	 4.316899	 0.983758	 0.900700
H	 2.661122	 1.540651	 0.885346
H	 -2.516226	 -2.842979	 -0.638608
H	 -2.902345	 -2.655901	 1.076117
H	 -1.230937	 -2.908573	 0.541316

	symmetry c1
}
set optking {
	frozen_dihedral = ("
		6 3 5 8
	")
}

ee,wfn = optimize('scf', return_wfn=True)
oeprop( wfn, 'DIPOLE', 'QUADRUPOLE', 'MULLIKEN_CHARGES')
f=open( 'psi4out.xyz', 'w' )
f.write( "22  " )
f.write( str(ee) + "\n" )
f.write( MOL.save_string_xyz() )
f.close()
--------------------------------------------------------------------------

    Molecular point group: c1
  Charge       = 0
  Multiplicity = 1
  Basis Set: CC-PVTZ
  Basis Set:
  @DF-RHF Final Energy:  -348.21801071219278
    Total Energy =                       -348.2180107121926085
    Molecular point group: c1
  Basis Set: CC-PVTZ
  Basis Set:
  Basis Set: CC-PVTZ
  Basis Set:
  @DF-RHF Final Energy:  -348.21819900295600
    Total Energy =                       -348.2181990029556573
  Basis Set: CC-PVTZ
  Basis Set:
  Basis Set: CC-PVTZ
  Basis Set:
  @DF-RHF Final Energy:  -348.21847632064578
    Total Energy =                       -348.2184763206457774
  Basis Set: CC-PVTZ
  Basis Set:
  Basis Set: CC-PVTZ
  Basis Set:
  @DF-RHF Final Energy:  -348.21853350180953
    Total Energy =                       -348.2185335018095316
  Basis Set: CC-PVTZ
  Basis Set:
  @DF-RHF Final Energy:  -348.21857899441011
    Total Energy =                       -348.2185789944099952
  @DF-RHF Final Energy:  -348.21861242982618
    Total Energy =                       -348.2186124298265213
  @DF-RHF Final Energy:  -348.21863203936130
    Total Energy =                       -348.2186320393618644
  Basis Set: CC-PVTZ
  Basis Set:
  @DF-RHF Final Energy:  -348.21863868888784
    Total Energy =                       -348.2186386888878928
  Basis Set: CC-PVTZ
  Basis Set:
  Basis Set: CC-PVTZ
  Basis Set:
  @DF-RHF Final Energy:  -348.21863859926469
    Total Energy =                       -348.2186385992648070
  Basis Set: CC-PVTZ
  Basis Set:
  Basis Set: CC-PVTZ
  Basis Set:
  @DF-RHF Final Energy:  -348.21864109372524
    Total Energy =                       -348.2186410937254095
  Basis Set: CC-PVTZ
  Basis Set:
  Charge       = 0
  Multiplicity = 1
  Basis Set: CC-PVTZ
  Basis Set:

    Orbital Energies (a.u.)
    -----------------------

    Doubly Occupied:

       1A    -20.536194     2A    -11.318809     3A    -11.230111
       4A    -11.227446     5A    -11.226641     6A    -11.223586
       7A    -11.221134     8A    -11.212009     9A     -1.396299
      10A     -1.098180    11A     -1.046415    12A     -0.998442
      13A     -0.941606    14A     -0.861873    15A     -0.790328
      16A     -0.734692    17A     -0.660105    18A     -0.650198
      19A     -0.628226    20A     -0.623382    21A     -0.597955
      22A     -0.576630    23A     -0.572073    24A     -0.547448
      25A     -0.536980    26A     -0.514726    27A     -0.506049
      28A     -0.493735    29A     -0.473141    30A     -0.466930
      31A     -0.459137    32A     -0.398427

  @DF-RHF Final Energy:  -348.21864130950263

   => Energetics <=

    Nuclear Repulsion Energy =            374.6321807122940868
    One-Electron Energy =               -1214.1638266932181978
    Two-Electron Energy =                 491.3130046714218224
    DFT Exchange-Correlation Energy =       0.0000000000000000
    Empirical Dispersion Energy =           0.0000000000000000
    PCM Polarization Energy =               0.0000000000000000
    EFP Energy =                            0.0000000000000000
    Total Energy =                       -348.2186413095023454
    Molecular point group: c1
  Basis Set: CC-PVTZ
  Basis Set:

  -Total Gradient:
     Atom            X                  Y                   Z
    ------   -----------------  -----------------  -----------------
       1        0.000023416984    -0.000025216055    -0.000017101630
       2       -0.000027273309     0.000017827260     0.000021255396
       3        0.001492817816    -0.001038066005    -0.001982673508
       4       -0.000024122461     0.000003306837    -0.000022404651
       5        0.000083818073     0.002063748050    -0.000679559231
       6       -0.001273324115     0.000398580414     0.001865983728
       7       -0.000006572252    -0.000005673605    -0.000006722585
       8       -0.000276757431    -0.001413766241     0.000809362825
       9       -0.000001360830    -0.000003095291     0.000004082424
      10       -0.000000089930     0.000006418925    -0.000001206089
      11       -0.000007404963     0.000001412870    -0.000001715050
      12        0.000001148755     0.000001512123     0.000000045259
      13        0.000000993287    -0.000001477037    -0.000003559791
      14        0.000000316617    -0.000000190534     0.000001655015
      15       -0.000000805181    -0.000002014269    -0.000000971336
      16        0.000000063750     0.000001520240     0.000001506720
      17        0.000000281566    -0.000000472027    -0.000000444267
      18       -0.000000332640    -0.000000861750    -0.000000492654
      19        0.000001877910     0.000000698975     0.000000441819
      20        0.000006913706    -0.000009286957     0.000002843228
      21       -0.000004489919     0.000002758709     0.000007544958
      22        0.000010884563     0.000002335367     0.000002129421

  **** Optimization is complete! (in 11 steps) ****
    Final optimized geometry and variables:
    Molecular point group: c1

    Geometry (in Angstrom), charge = 0, multiplicity = 1:

    O           -2.925072220676     0.397514299430     0.498729980074
    C           -2.098993009019    -0.332112460445     0.055700378690
    C           -0.969293883703     0.183425124366    -0.811603575701
    C           -2.124754876093    -1.816787698848     0.339200859572
    C            0.321399251542     0.401593220901     0.016762316955
    H           -1.307339922785     1.115566648025    -1.240481445267
    H           -0.783186636066    -0.520586472054    -1.614915270235
    C            1.562079954878    -0.212362818924    -0.630184536790
    H            0.456933481528     1.463135533289     0.170247430342
    H            0.203960801507    -0.027051499706     1.008068378874
    C            2.852154961913    -0.039647926070     0.172526712682
    H            1.697159375529     0.211454895326    -1.622766520418
    H            1.384554260915    -1.274264187010    -0.777037700842
    C            3.345818672336     1.400800119252     0.284652875732
    H            3.627547450540    -0.637544909084    -0.296018243554
    H            2.712862949148    -0.452252763874     1.168365193355
    H            3.488774875551     1.840600619172    -0.697112484996
    H            4.295902635681     1.440515468626     0.804583900443
    H            2.651365123000     2.027906341274     0.830338794280
    H           -2.422040935004    -2.339862148577    -0.564251987355
    H           -2.833189569582    -2.032002133125     1.124381037170
    H           -1.142100875900    -2.182021225034     0.613349804411

  Mulliken Charges: (a.u.)
   Center  Symbol    Alpha    Beta     Spin     Total
       1     O     4.17692  4.17692  0.00000 -0.35385
       2     C     2.85580  2.85580  0.00000  0.28840
       3     C     3.09988  3.09988  0.00000 -0.19977
       4     C     3.15701  3.15701  0.00000 -0.31403
       5     C     3.11130  3.11130  0.00000 -0.22260
       6     H     0.43681  0.43681  0.00000  0.12637
       7     H     0.44915  0.44915  0.00000  0.10171
       8     C     3.09754  3.09754  0.00000 -0.19508
       9     H     0.43639  0.43639  0.00000  0.12722
      10     H     0.44846  0.44846  0.00000  0.10307
      11     C     3.09124  3.09124  0.00000 -0.18248
      12     H     0.45050  0.45050  0.00000  0.09900
      13     H     0.44898  0.44898  0.00000  0.10203
      14     C     3.15199  3.15199  0.00000 -0.30398
      15     H     0.44748  0.44748  0.00000  0.10503
      16     H     0.45387  0.45387  0.00000  0.09226
      17     H     0.45426  0.45426  0.00000  0.09148
      18     H     0.44550  0.44550  0.00000  0.10899
      19     H     0.45278  0.45278  0.00000  0.09445
      20     H     0.44751  0.44751  0.00000  0.10497
      21     H     0.43546  0.43546  0.00000  0.12907
      22     H     0.45114  0.45114  0.00000  0.09772

   Total alpha = 32.00000, Total beta = 32.00000, Total charge = -0.00000

*** Psi4 exiting successfully. Buy a developer a beer!
