  ==> Input File <==

--------------------------------------------------------------------------
set {
	reference rhf
	basis 6-31G*
}

set_num_threads( 4 )
memory 2 gb

molecule MOL {
0 1

O	 -1.480382	 1.239358	 -0.123246
C	 -1.083277	 0.139568	 0.115197
C	 0.323299	 -0.082943	 0.642902
C	 -1.942803	 -1.083149	 -0.117198
C	 1.355627	 -0.005344	 -0.493127
H	 0.396251	 -1.044647	 1.143147
H	 0.528637	 0.693580	 1.371677
C	 2.786168	 -0.195604	 0.007473
H	 1.132807	 -0.760304	 -1.243899
H	 1.259610	 0.958506	 -0.981915
H	 3.495561	 -0.130713	 -0.811210
H	 2.912696	 -1.165395	 0.480041
H	 3.049284	 0.565503	 0.735850
H	 -1.410918	 -1.820723	 -0.711127
H	 -2.859567	 -0.801434	 -0.616111
H	 -2.179355	 -1.549315	 0.835660

	symmetry c1
}
set optking {
	frozen_dihedral = ("
		4 2 3 5
	")
}

ee = optimize('scf')
oeprop('DIPOLE', 'QUADRUPOLE', 'MULLIKEN_CHARGES')
f=open( 'psi4out.xyz', 'w' )
f.write( "16  " )
f.write( str(ee) + "\n" )
f.write( MOL.save_string_xyz() )
f.close()
--------------------------------------------------------------------------

    Molecular point group: c1
  Charge       = 0
  Multiplicity = 1
  Basis Set: 6-31G*
  Basis Set:
  @DF-RHF Final Energy:  -270.03037391724126
    Total Energy =                       -270.0303739172412634
    Molecular point group: c1
  Basis Set: 6-31G*
  Basis Set:
  Basis Set: 6-31G*
  Basis Set:
  @DF-RHF Final Energy:  -270.03037120334784
    Total Energy =                       -270.0303712033478405
  Basis Set: 6-31G*
  Basis Set:
  Basis Set: 6-31G*
  Basis Set:
  @DF-RHF Final Energy:  -270.03034382271994
    Total Energy =                       -270.0303438227202264
  Basis Set: 6-31G*
  Basis Set:
  Charge       = 0
  Multiplicity = 1
  Basis Set: 6-31G*
  Basis Set:

    Orbital Energies (a.u.)
    -----------------------

    Doubly Occupied:

       1A    -20.548008     2A    -11.325090     3A    -11.232692
       4A    -11.229933     5A    -11.228708     6A    -11.219098
       7A     -1.393794     8A     -1.082039     9A     -1.013383
      10A     -0.949383    11A     -0.828575    12A     -0.735246
      13A     -0.659426    14A     -0.648288    15A     -0.611669
      16A     -0.607068    17A     -0.575616    18A     -0.559053
      19A     -0.538489    20A     -0.517047    21A     -0.502609
      22A     -0.483990    23A     -0.471159    24A     -0.398214

  @DF-RHF Final Energy:  -270.03037420341843

   => Energetics <=

    Nuclear Repulsion Energy =            237.0131964094672128
    One-Electron Energy =                -835.3699871991965438
    Two-Electron Energy =                 328.3264165863107564
    DFT Exchange-Correlation Energy =       0.0000000000000000
    Empirical Dispersion Energy =           0.0000000000000000
    PCM Polarization Energy =               0.0000000000000000
    EFP Energy =                            0.0000000000000000
    Total Energy =                       -270.0303742034185461
    Molecular point group: c1
  Basis Set: 6-31G*
  Basis Set:

  -Total Gradient:
     Atom            X                  Y                   Z
    ------   -----------------  -----------------  -----------------
       1        0.000010325006    -0.000018118446     0.000005923493
       2       -0.000018201704     0.000012819005    -0.000008519368
       3       -0.000005744518    -0.000145962089    -0.000074699805
       4       -0.000000896324     0.000001836397    -0.000064266350
       5        0.000022463821     0.000131606482     0.000013821745
       6        0.000006985444     0.000041434027     0.000034811856
       7        0.000039679476     0.000012083395    -0.000002824070
       8        0.000009418329    -0.000021456137     0.000017901299
       9       -0.000039859931    -0.000002221106     0.000023486705
      10       -0.000021988729    -0.000021208829     0.000000511300
      11       -0.000003874821    -0.000001539426     0.000001756730
      12        0.000014868938    -0.000003823028     0.000005275930
      13        0.000004302285     0.000002048020     0.000002403218
      14        0.000004158015    -0.000005449182     0.000008622337
      15       -0.000021660038    -0.000002791076     0.000012819397
      16        0.000000024753     0.000020741995     0.000022975584

  **** Optimization is complete! (in 4 steps) ****
    Final optimized geometry and variables:
    Molecular point group: c1

    Geometry (in Angstrom), charge = 0, multiplicity = 1:

    O           -1.479393692400     1.239462926735    -0.124616515044
    C           -1.082949189180     0.139422876875     0.113752506398
    C            0.323646166173    -0.083116785808     0.641907964507
    C           -1.942911153113    -1.082834614072    -0.118776509713
    C            1.356036187875    -0.005812541099    -0.493860995053
    H            0.396795303725    -1.043795918039     1.143898689471
    H            0.529061961266     0.694335287254     1.369864839189
    C            2.786645643746    -0.195353805691     0.006868505249
    H            1.133084680884    -0.761551794945    -1.243856491549
    H            1.259178874791     0.957470880296    -0.983370271594
    H            3.495964165999    -0.130973744765    -0.811909726849
    H            2.913597566267    -1.164695449413     0.480271861979
    H            3.049665173809     0.566465620158     0.734570625127
    H           -1.412410499387    -1.818446077054    -0.716446334054
    H           -2.861592445237    -0.800366204773    -0.613733787562
    H           -2.175694912609    -1.551666211576     0.833733050604

  Mulliken Charges: (a.u.)
   Center  Symbol    Alpha    Beta     Spin     Total
       1     O     4.26205  4.26205  0.00000 -0.52410
       2     C     2.73751  2.73751  0.00000  0.52498
       3     C     3.19897  3.19897  0.00000 -0.39794
       4     C     3.28951  3.28951  0.00000 -0.57903
       5     C     3.16118  3.16118  0.00000 -0.32236
       6     H     0.41711  0.41711  0.00000  0.16578
       7     H     0.40131  0.40131  0.00000  0.19738
       8     C     3.23979  3.23979  0.00000 -0.47959
       9     H     0.42002  0.42002  0.00000  0.15995
      10     H     0.40497  0.40497  0.00000  0.19005
      11     H     0.41543  0.41543  0.00000  0.16914
      12     H     0.42092  0.42092  0.00000  0.15816
      13     H     0.41771  0.41771  0.00000  0.16457
      14     H     0.40975  0.40975  0.00000  0.18050
      15     H     0.39696  0.39696  0.00000  0.20608
      16     H     0.40679  0.40679  0.00000  0.18642

   Total alpha = 24.00000, Total beta = 24.00000, Total charge =  0.00000
