  ==> Input File <==

--------------------------------------------------------------------------
set {
	reference rhf
	basis 6-31G*
}

set_num_threads( 4 )
memory 2 gb

molecule MOL {
0 1

H	 -2.825982	 0.937768	 -1.244669
O	 -3.452007	 0.283848	 -0.965577
C	 -3.181085	 -0.079926	 0.364119
C	 -1.765924	 0.277073	 0.805136
H	 -3.327791	 -1.152017	 0.410903
H	 -3.905698	 0.375695	 1.036898
C	 -0.677594	 -0.417312	 -0.014550
H	 -1.637766	 1.358238	 0.744969
H	 -1.659588	 0.017670	 1.857098
C	 0.738335	 -0.034840	 0.421385
H	 -0.814977	 -0.178223	 -1.064632
H	 -0.802730	 -1.495410	 0.071702
C	 1.822265	 -0.738362	 -0.399735
H	 0.853533	 1.043532	 0.342250
H	 0.871597	 -0.279636	 1.474438
C	 3.258060	 -0.455774	 0.057203
H	 1.718003	 -0.459167	 -1.447053
H	 1.651028	 -1.811884	 -0.354513
C	 3.709143	 0.994797	 -0.123830
H	 3.930637	 -1.101717	 -0.501982
H	 3.365259	 -0.739518	 1.102287
H	 3.601178	 1.310569	 -1.158127
H	 4.753787	 1.110486	 0.148516
H	 3.135362	 1.678896	 0.492569

	symmetry c1
}
set optking {
	frozen_dihedral = ("
		1 2 3 5
	")
}

ee = optimize('scf')
oeprop('DIPOLE', 'QUADRUPOLE', 'MULLIKEN_CHARGES')
f=open( 'psi4out.xyz', 'w' )
f.write( "24  " )
f.write( str(ee) + "\n" )
f.write( MOL.save_string_xyz() )
f.close()
--------------------------------------------------------------------------

    Molecular point group: c1
  Charge       = 0
  Multiplicity = 1
  Basis Set: 6-31G*
  Basis Set:
  @DF-RHF Final Energy:  -349.24486881770014
    Total Energy =                       -349.2448688177001941
    Molecular point group: c1
  Basis Set: 6-31G*
  Basis Set:
  Basis Set: 6-31G*
  Basis Set:
  @DF-RHF Final Energy:  -349.24496992848850
    Total Energy =                       -349.2449699284883309
  Basis Set: 6-31G*
  Basis Set:
  Basis Set: 6-31G*
  Basis Set:
  @DF-RHF Final Energy:  -349.24511402730070
    Total Energy =                       -349.2451140273009287
  Basis Set: 6-31G*
  Basis Set:
  Basis Set: 6-31G*
  Basis Set:
  @DF-RHF Final Energy:  -349.24511581654144
    Total Energy =                       -349.2451158165416700
  Basis Set: 6-31G*
  Basis Set:
  Basis Set: 6-31G*
  Basis Set:
  @DF-RHF Final Energy:  -349.24511970065481
    Total Energy =                       -349.2451197006550956
  Basis Set: 6-31G*
  Basis Set:
  Charge       = 0
  Multiplicity = 1
  Basis Set: 6-31G*
  Basis Set:

    Orbital Energies (a.u.)
    -----------------------

    Doubly Occupied:

       1A    -20.549845     2A    -11.266670     3A    -11.224047
       4A    -11.220324     5A    -11.217883     6A    -11.217371
       7A    -11.216026     8A    -11.210218     9A     -1.357086
      10A     -1.093983    11A     -1.052411    12A     -0.989012
      13A     -0.919042    14A     -0.855370    15A     -0.805591
      16A     -0.780878    17A     -0.661359    18A     -0.659015
      19A     -0.637401    20A     -0.625126    21A     -0.605046
      22A     -0.588688    23A     -0.560231    24A     -0.541426
      25A     -0.521369    26A     -0.514627    27A     -0.498458
      28A     -0.477632    29A     -0.473836    30A     -0.464150
      31A     -0.456860    32A     -0.447782    33A     -0.423655

  @DF-RHF Final Energy:  -349.24511983633261

   => Energetics <=

    Nuclear Repulsion Energy =            384.6993756002702867
    One-Electron Energy =               -1235.6241525324790018
    Two-Electron Energy =                 501.6796570958764505
    DFT Exchange-Correlation Energy =       0.0000000000000000
    Empirical Dispersion Energy =           0.0000000000000000
    PCM Polarization Energy =               0.0000000000000000
    EFP Energy =                            0.0000000000000000
    Total Energy =                       -349.2451198363322646
    Molecular point group: c1
  Basis Set: 6-31G*
  Basis Set:

  -Total Gradient:
     Atom            X                  Y                   Z
    ------   -----------------  -----------------  -----------------
       1        0.001512334865    -0.001724667848    -0.000857399718
       2       -0.001400371982     0.002071556023     0.000913096027
       3       -0.002111032660    -0.000088183449     0.000473071720
       4       -0.000004742792    -0.000008763157     0.000000315259
       5        0.002013788100    -0.000249683062    -0.000536716181
       6        0.000007033958    -0.000002833581     0.000010779160
       7       -0.000003332713     0.000005354996    -0.000006746589
       8       -0.000001862264    -0.000007503142    -0.000006801313
       9       -0.000003179897    -0.000000799991     0.000007085955
      10       -0.000004016783     0.000005030267     0.000000816436
      11        0.000003127432    -0.000000767421    -0.000003658948
      12       -0.000010298990     0.000000390833     0.000005319720
      13        0.000000134241     0.000001096600    -0.000000959684
      14        0.000000956871     0.000000776079     0.000002703453
      15        0.000001507935    -0.000002407553    -0.000000392089
      16       -0.000001150949     0.000000805819    -0.000000317095
      17       -0.000001129244     0.000001378353     0.000000459963
      18        0.000002099717    -0.000000318506    -0.000000425672
      19        0.000000838193     0.000000433432    -0.000000038988
      20       -0.000000960637    -0.000001693560     0.000000084683
      21       -0.000000310368     0.000001213324     0.000000398379
      22        0.000000277173     0.000000338848    -0.000000384421
      23       -0.000000058500    -0.000000378549     0.000000044771
      24        0.000000349292    -0.000000374755    -0.000000334826

  **** Optimization is complete! (in 6 steps) ****
    Final optimized geometry and variables:
    Molecular point group: c1

    Geometry (in Angstrom), charge = 0, multiplicity = 1:

    H           -2.890961254745     0.966898839126    -1.242134201654
    O           -3.491851993342     0.297670774789    -0.949410418540
    C           -3.185070041137    -0.084480194775     0.369262419377
    C           -1.766898637983     0.282606412663     0.792913329873
    H           -3.305873639209    -1.160958331846     0.422970069471
    H           -3.900183261889     0.367403921809     1.051465242606
    C           -0.675893182870    -0.416514981388    -0.022398360802
    H           -1.644945704517     1.364196395429     0.725994608492
    H           -1.651246143681     0.031487027434     1.844900473658
    C            0.738732347976    -0.033545740842     0.417286958496
    H           -0.798681005353    -0.186591224457    -1.078108343958
    H           -0.804358379301    -1.493399169253     0.066264818973
    C            1.825435755526    -0.738311265442    -0.399036925634
    H            0.854439312706     1.044669462209     0.338631154715
    H            0.866426514196    -0.278227689935     1.470796371483
    C            3.259190603474    -0.455314948699     0.063870815492
    H            1.726007107937    -0.459945457497    -1.447082175521
    H            1.653586406010    -1.811688876557    -0.353568853763
    C            3.711502027068     0.994775551628    -0.117659789568
    H            3.933566432884    -1.102565424971    -0.491340574045
    H            3.361483017462    -0.737528764838     1.109792483786
    H            3.608511719927     1.308873637873    -1.152960341880
    H            4.754914258261     1.110243006976     0.159090803565
    H            3.135573491281     1.680303193122     0.495142759321

  Mulliken Charges: (a.u.)
   Center  Symbol    Alpha    Beta     Spin     Total
       1     H     0.28045  0.28045  0.00000  0.43911
       2     O     4.37594  4.37594  0.00000 -0.75188
       3     C     2.97741  2.97741  0.00000  0.04518
       4     C     3.18763  3.18763  0.00000 -0.37526
       5     H     0.42212  0.42212  0.00000  0.15576
       6     H     0.42547  0.42547  0.00000  0.14905
       7     C     3.15203  3.15203  0.00000 -0.30405
       8     H     0.42407  0.42407  0.00000  0.15187
       9     H     0.41728  0.41728  0.00000  0.16544
      10     C     3.15339  3.15339  0.00000 -0.30678
      11     H     0.42180  0.42180  0.00000  0.15640
      12     H     0.41976  0.41976  0.00000  0.16048
      13     C     3.15259  3.15259  0.00000 -0.30519
      14     H     0.42223  0.42223  0.00000  0.15554
      15     H     0.42366  0.42366  0.00000  0.15268
      16     C     3.15258  3.15258  0.00000 -0.30516
      17     H     0.42387  0.42387  0.00000  0.15226
      18     H     0.42136  0.42136  0.00000  0.15728
      19     C     3.24132  3.24132  0.00000 -0.48264
      20     H     0.42037  0.42037  0.00000  0.15926
      21     H     0.42321  0.42321  0.00000  0.15358
      22     H     0.42223  0.42223  0.00000  0.15554
      23     H     0.41877  0.41877  0.00000  0.16246
      24     H     0.42047  0.42047  0.00000  0.15906

   Total alpha = 33.00000, Total beta = 33.00000, Total charge =  0.00000
