  ==> Input File <==

--------------------------------------------------------------------------
set {
	reference rhf
	basis cc-pvtz
}

set_num_threads( 4 )
memory 2 gb

molecule MOL {
0 1

H	 -2.362939	 -1.309000	 -0.383250
C	 -1.359344	 -1.272457	 0.020748
C	 -0.684082	 0.000127	 -0.464918
H	 -0.825835	 -2.151141	 -0.318537
H	 -1.416276	 -1.292399	 1.099455
C	 -1.359089	 1.272668	 0.021259
N	 0.742439	 -0.000109	 0.007333
H	 -0.596914	 0.000345	 -1.538146
H	 -2.362696	 1.309620	 -0.382686
H	 -0.825392	 2.151374	 -0.317674
H	 -1.415983	 1.292181	 1.099973
O	 1.512562	 0.676366	 -0.586752
O	 1.007988	 -0.676632	 0.944398

	symmetry c1
}
set optking {
	frozen_dihedral = ("
		12 7 3 8
	")
}

ee = optimize('scf')
oeprop('DIPOLE', 'QUADRUPOLE', 'MULLIKEN_CHARGES')
f=open( 'psi4out.xyz', 'w' )
f.write( "13  " )
f.write( str(ee) + "\n" )
f.write( MOL.save_string_xyz() )
f.close()
--------------------------------------------------------------------------

    Molecular point group: c1
  Charge       = 0
  Multiplicity = 1
  Basis Set: CC-PVTZ
  Basis Set:
  @DF-RHF Final Energy:  -321.86319272118578
    Total Energy =                       -321.8631927211854986
    Molecular point group: c1
  Basis Set: CC-PVTZ
  Basis Set:
  Basis Set: CC-PVTZ
  Basis Set:
  @DF-RHF Final Energy:  -321.85876234591706
    Total Energy =                       -321.8587623459171709
  Basis Set: CC-PVTZ
  Basis Set:
  Basis Set: CC-PVTZ
  Basis Set:
  @DF-RHF Final Energy:  -321.86273808745528
    Total Energy =                       -321.8627380874553410
  Basis Set: CC-PVTZ
  Basis Set:
  Basis Set: CC-PVTZ
  Basis Set:
  @DF-RHF Final Energy:  -321.86390088268104
    Total Energy =                       -321.8639008826807526
  Basis Set: CC-PVTZ
  Basis Set:
  Basis Set: CC-PVTZ
  Basis Set:
  @DF-RHF Final Energy:  -321.86391721111607
    Total Energy =                       -321.8639172111161315
  Basis Set: CC-PVTZ
  Basis Set:
  Charge       = 0
  Multiplicity = 1
  Basis Set: CC-PVTZ
  Basis Set:

    Orbital Energies (a.u.)
    -----------------------

    Doubly Occupied:

       1A    -20.590738     2A    -20.586757     3A    -15.833059
       4A    -11.305107     5A    -11.244818     6A    -11.238410
       7A     -1.634089     8A     -1.418337     9A     -1.141827
      10A     -0.972060    11A     -0.957458    12A     -0.815934
      13A     -0.757464    14A     -0.731139    15A     -0.725763
      16A     -0.646902    17A     -0.593677    18A     -0.587576
      19A     -0.571238    20A     -0.528495    21A     -0.521797
      22A     -0.484967    23A     -0.471342    24A     -0.451618

  @DF-RHF Final Energy:  -321.86391929113586

   => Energetics <=

    Nuclear Repulsion Energy =            257.4105848189794870
    One-Electron Energy =                -948.9278666295425637
    Two-Electron Energy =                 369.6533625194273327
    DFT Exchange-Correlation Energy =       0.0000000000000000
    Empirical Dispersion Energy =           0.0000000000000000
    PCM Polarization Energy =               0.0000000000000000
    EFP Energy =                            0.0000000000000000
    Total Energy =                       -321.8639192911357441
    Molecular point group: c1
  Basis Set: CC-PVTZ
  Basis Set:

  -Total Gradient:
     Atom            X                  Y                   Z
    ------   -----------------  -----------------  -----------------
       1       -0.000008267713    -0.000010202593    -0.000003161887
       2       -0.000022017997    -0.000042064888    -0.000007603933
       3       -0.000148917831     0.001470528026     0.000272454323
       4       -0.000008901777     0.000008577742     0.000013958386
       5        0.000008841092     0.000005065721    -0.000028031967
       6        0.000075094400    -0.000014434513    -0.000002268204
       7        0.000497836254    -0.001043487348    -0.000850566451
       8        0.000063443775    -0.001044795956    -0.000016915596
       9        0.000001153536    -0.000004609734    -0.000007253927
      10       -0.000000821657     0.000013295059     0.000007051701
      11       -0.000001369189     0.000005199309     0.000003886929
      12       -0.000363790762     0.000789074099     0.000524150512
      13       -0.000092282128    -0.000132144923     0.000094300115

  **** Optimization is complete! (in 6 steps) ****
    Final optimized geometry and variables:
    Molecular point group: c1

    Geometry (in Angstrom), charge = 0, multiplicity = 1:

    H           -2.372028704420    -1.315207094183    -0.433564440668
    C           -1.383411140614    -1.293169079505     0.008428460469
    C           -0.683422462838    -0.032642188956    -0.459019195314
    H           -0.850015737524    -2.179915008329    -0.304533326779
    H           -1.482473262749    -1.315493500518     1.083501833270
    C           -1.347305949105     1.251077523531     0.022842031463
    N            0.747067245911     0.000283671030     0.009574075280
    H           -0.592299963653    -0.022898371152    -1.533735751563
    H           -2.363723766315     1.280599849756    -0.347066451299
    H           -0.820936232671     2.120721572823    -0.342347950084
    H           -1.377037082016     1.282776455980     1.104885753164
    O            1.481511409762     0.707046214285    -0.596837138572
    O            1.047048173395    -0.641811858310     0.958066071905

  Mulliken Charges: (a.u.)
   Center  Symbol    Alpha    Beta     Spin     Total
       1     H     0.45018  0.45018  0.00000  0.09965
       2     C     3.14334  3.14334  0.00000 -0.28668
       3     C     3.00759  3.00759  0.00000 -0.01517
       4     H     0.43983  0.43983  0.00000  0.12034
       5     H     0.44015  0.44015  0.00000  0.11970
       6     C     3.14323  3.14323  0.00000 -0.28646
       7     N     3.27414  3.27414  0.00000  0.45173
       8     H     0.42706  0.42706  0.00000  0.14589
       9     H     0.44866  0.44866  0.00000  0.10269
      10     H     0.43428  0.43428  0.00000  0.13144
      11     H     0.44416  0.44416  0.00000  0.11168
      12     O     4.17545  4.17545  0.00000 -0.35091
      13     O     4.17194  4.17194  0.00000 -0.34388

   Total alpha = 24.00000, Total beta = 24.00000, Total charge = -0.00000
