  ==> Input File <==

--------------------------------------------------------------------------
set {
	reference rhf
	basis 6-31G*
}

set_num_threads( 1 )
memory 2 gb

molecule MOL {
0 1

O	 -1.276010	 1.052711	 -0.768302
C	 -1.204840	 0.067374	 -0.106123
C	 -2.388195	 -0.672128	 0.458071
O	 -0.067104	 -0.527208	 0.221609
H	 -2.388023	 -1.694060	 0.097175
H	 -3.300579	 -0.174919	 0.164318
H	 -2.315377	 -0.706351	 1.539059
C	 0.813584	 0.118528	 1.151846
C	 2.203262	 -0.412371	 0.847659
C	 0.362407	 -0.174035	 2.574340
H	 0.770510	 1.181639	 0.966248
H	 2.479171	 -0.197356	 -0.178446
H	 2.932556	 0.052001	 1.503267
H	 2.244195	 -1.486292	 0.994868
H	 1.038312	 0.292918	 3.283653
H	 -0.632415	 0.215413	 2.749371
H	 0.359024	 -1.243633	 2.758611

	symmetry c1
}
set optking {
	frozen_dihedral = ("
		11 8 4 2
	")
}

ee = energy('scf')
oeprop('DIPOLE', 'QUADRUPOLE', 'MULLIKEN_CHARGES')
f=open( 'psi4out.xyz', 'w' )
f.write( "17  " )
f.write( str(ee) + "\n" )
f.write( MOL.save_string_xyz() )
f.close()
--------------------------------------------------------------------------

    Molecular point group: c1

    Geometry (in Angstrom), charge = 0, multiplicity = 1:

       Center              X                  Y                   Z               Mass
    ------------   -----------------  -----------------  -----------------  -----------------
           O         -1.052123035405     1.133600887876    -1.398782451722    15.994914619560
           C         -0.980953035405     0.148263887876    -0.736603451722    12.000000000000
           C         -2.164308035405    -0.591238112124    -0.172409451722    12.000000000000
           O          0.156782964595    -0.446318112124    -0.408871451722    15.994914619560
           H         -2.164136035405    -1.613170112124    -0.533305451722     1.007825032070
           H         -3.076692035405    -0.094029112124    -0.466162451722     1.007825032070
           H         -2.091490035405    -0.625461112124     0.908578548278     1.007825032070
           C          1.037470964595     0.199417887876     0.521365548278    12.000000000000
           C          2.427148964595    -0.331481112124     0.217178548278    12.000000000000
           C          0.586293964595    -0.093145112124     1.943859548278    12.000000000000
           H          0.994396964595     1.262528887876     0.335767548278     1.007825032070
           H          2.703057964595    -0.116466112124    -0.808926451722     1.007825032070
           H          3.156442964595     0.132890887876     0.872786548278     1.007825032070
           H          2.468081964595    -1.405402112124     0.364387548278     1.007825032070
           H          1.262198964595     0.373807887876     2.653172548278     1.007825032070
           H         -0.408528035405     0.296302887876     2.118890548278     1.007825032070
           H          0.582910964595    -1.162743112124     2.128130548278     1.007825032070

  Charge       = 0
  Multiplicity = 1
  Basis Set: 6-31G*
  Basis Set:

    Orbital Energies (a.u.)
    -----------------------

    Doubly Occupied:

       1A    -20.583332     2A    -20.550675     3A    -11.374306
       4A    -11.301286     5A    -11.231128     6A    -11.228306
       7A    -11.221667     8A     -1.460382     9A     -1.363660
      10A     -1.079627    11A     -1.009284    12A     -0.955113
      13A     -0.850143    14A     -0.770542    15A     -0.694593
      16A     -0.669638    17A     -0.659998    18A     -0.622217
      19A     -0.586979    20A     -0.578826    21A     -0.567449
      22A     -0.554261    23A     -0.551358    24A     -0.521529
      25A     -0.496617    26A     -0.486321    27A     -0.446932
      28A     -0.434901

  @DF-RHF Final Energy:  -344.89616723404004

   => Energetics <=

    Nuclear Repulsion Energy =            323.4299232331151188
    One-Electron Energy =               -1110.9499810446468473
    Two-Electron Energy =                 442.6238905774914656
    DFT Exchange-Correlation Energy =       0.0000000000000000
    Empirical Dispersion Energy =           0.0000000000000000
    PCM Polarization Energy =               0.0000000000000000
    EFP Energy =                            0.0000000000000000
    Total Energy =                       -344.8961672340402629

  Mulliken Charges: (a.u.)
   Center  Symbol    Alpha    Beta     Spin     Total
       1     O     4.26416  4.26416  0.00000 -0.52832
       2     C     2.62405  2.62405  0.00000  0.75190
       3     C     3.28430  3.28430  0.00000 -0.56860
       4     O     4.31759  4.31759  0.00000 -0.63519
       5     H     0.39967  0.39967  0.00000  0.20066
       6     H     0.40003  0.40003  0.00000  0.19995
       7     H     0.40573  0.40573  0.00000  0.18853
       8     C     2.92884  2.92884  0.00000  0.14231
       9     C     3.24197  3.24197  0.00000 -0.48394
      10     C     3.24846  3.24846  0.00000 -0.49692
      11     H     0.40502  0.40502  0.00000  0.18996
      12     H     0.40525  0.40525  0.00000  0.18950
      13     H     0.41912  0.41912  0.00000  0.16175
      14     H     0.41315  0.41315  0.00000  0.17370
      15     H     0.41426  0.41426  0.00000  0.17148
      16     H     0.41665  0.41665  0.00000  0.16671
      17     H     0.41174  0.41174  0.00000  0.17651

   Total alpha = 28.00000, Total beta = 28.00000, Total charge = -0.00000
