                              Psi4 1.0.54 Driver

  ==> Input File <==

--------------------------------------------------------------------------
set {
	reference rhf
	basis cc-pvtz
}

set_num_threads( 4 )
memory 2 gb

molecule MOL {
0 1

H	 3.092577	 -0.987013	 0.597336
N	 3.091268	 -0.241216	 -0.065538
C	 1.860978	 0.530248	 0.016256
H	 3.195314	 -0.651144	 -0.970238
C	 0.644130	 -0.381765	 -0.031064
H	 1.835721	 1.204666	 -0.833114
H	 1.808789	 1.151975	 0.911067
C	 -0.678115	 0.376691	 0.025731
H	 0.693998	 -0.977147	 -0.936845
H	 0.693309	 -1.082142	 0.800523
C	 -1.900706	 -0.535531	 -0.022488
H	 -0.725296	 1.079516	 -0.802982
H	 -0.715474	 0.974884	 0.933278
C	 -3.220513	 0.226854	 0.028039
H	 -1.865036	 -1.134397	 -0.928236
H	 -1.857948	 -1.236381	 0.806820
H	 -3.309098	 0.911849	 -0.808725
H	 -4.066838	 -0.449485	 -0.008086
H	 -3.301685	 0.809374	 0.939860

	symmetry c1
}
set optking {
	frozen_dihedral = ("
		1 2 3 6
	")
}

ee,wfn = optimize('scf', return_wfn=True)
oeprop( wfn, 'DIPOLE', 'QUADRUPOLE', 'MULLIKEN_CHARGES')
f=open( 'psi4out.xyz', 'w' )
f.write( "19  " )
f.write( str(ee) + "\n" )
f.write( MOL.save_string_xyz() )
f.close()
--------------------------------------------------------------------------

    Molecular point group: c1
  Charge       = 0
  Multiplicity = 1
  Basis Set: CC-PVTZ
  Basis Set:
  @DF-RHF Final Energy:  -251.44600374653299
    Total Energy =                       -251.4460037465327105
    Molecular point group: c1
  Basis Set: CC-PVTZ
  Basis Set:
  Basis Set: CC-PVTZ
  Basis Set:
  @DF-RHF Final Energy:  -251.44754443629262
    Total Energy =                       -251.4475444362925032
  Basis Set: CC-PVTZ
  Basis Set:
  Basis Set: CC-PVTZ
  Basis Set:
  @DF-RHF Final Energy:  -251.44775291105896
    Total Energy =                       -251.4477529110589558
  Basis Set: CC-PVTZ
  Basis Set:
  Basis Set: CC-PVTZ
  Basis Set:
  @DF-RHF Final Energy:  -251.44775564602060
    Total Energy =                       -251.4477556460205960
  Basis Set: CC-PVTZ
  Basis Set:
  Charge       = 0
  Multiplicity = 1
  Basis Set: CC-PVTZ
  Basis Set:

    Orbital Energies (a.u.)
    -----------------------

    Doubly Occupied:

       1A    -15.526677     2A    -11.238121     3A    -11.214584
       4A    -11.213156     5A    -11.211177     6A    -11.207375
       7A     -1.178778     8A     -1.076562     9A     -1.000739
      10A     -0.901943    11A     -0.819492    12A     -0.792682
      13A     -0.679138    14A     -0.638834    15A     -0.601349
      16A     -0.584564    17A     -0.576556    18A     -0.557822
      19A     -0.519738    20A     -0.505830    21A     -0.479403
      22A     -0.473561    23A     -0.466806    24A     -0.463915
      25A     -0.378966

  @DF-RHF Final Energy:  -251.44775585193807

   => Energetics <=

    Nuclear Repulsion Energy =            245.8749238594558335
    One-Electron Energy =                -826.0298193357548371
    Two-Electron Energy =                 328.7071396243607069
    DFT Exchange-Correlation Energy =       0.0000000000000000
    Empirical Dispersion Energy =           0.0000000000000000
    PCM Polarization Energy =               0.0000000000000000
    EFP Energy =                            0.0000000000000000
    Total Energy =                       -251.4477558519382683
    Molecular point group: c1
  Basis Set: CC-PVTZ
  Basis Set:

  -Total Gradient:
     Atom            X                  Y                   Z
    ------   -----------------  -----------------  -----------------
       1       -0.000610732205    -0.001063131388    -0.001196188660
       2        0.000623513542     0.001069017641     0.001299134619
       3        0.000596731498     0.001112649258     0.000782229249
       4       -0.000002046375    -0.000005448563    -0.000009043646
       5        0.000024732511     0.000003222355     0.000013126964
       6       -0.000619836595    -0.001104801224    -0.000883346169
       7        0.000004284659    -0.000003679410     0.000001711701
       8        0.000010563849    -0.000006018448    -0.000005545982
       9       -0.000005085604     0.000005396028     0.000008618149
      10       -0.000002848108    -0.000006353717    -0.000002798279
      11       -0.000022327233    -0.000000719645    -0.000012265606
      12       -0.000001409312    -0.000001939784     0.000001583640
      13       -0.000000410087    -0.000000924992    -0.000003696249
      14       -0.000001292797    -0.000004336205     0.000008287693
      15        0.000003460301     0.000001488461    -0.000002606498
      16        0.000002363088     0.000003439226    -0.000001345893
      17        0.000000538047    -0.000002273867    -0.000002564719
      18        0.000002172494     0.000000366863     0.000002498412
      19       -0.000002371672     0.000004047412     0.000002211275

  **** Optimization is complete! (in 5 steps) ****
    Final optimized geometry and variables:
    Molecular point group: c1

    Geometry (in Angstrom), charge = 0, multiplicity = 1:

    H            3.171478403795    -0.939545771161     0.613544748881
    N            3.148346386808    -0.181169005783    -0.036437722103
    C            1.868267624972     0.506808285191     0.014232420807
    H            3.298547270575    -0.577704698033    -0.940597967254
    C            0.636793037437    -0.395282293985    -0.027893102599
    H            1.831419618310     1.195519960890    -0.823100087383
    H            1.841884205306     1.111376807623     0.914862861337
    C           -0.677897603048     0.376945151881     0.027833906537
    H            0.668353751327    -0.996443624327    -0.934004124932
    H            0.681334393806    -1.094298790761     0.804960634748
    C           -1.912368682370    -0.519765360857    -0.008069012827
    H           -0.720207137346     1.075631047032    -0.804624840397
    H           -0.702003863660     0.981324881084     0.931639903325
    C           -3.221940477753     0.259634710181     0.047958554740
    H           -1.890958868927    -1.123126909883    -0.911491001547
    H           -1.872848585883    -1.217229339785     0.824175852252
    H           -3.307700700219     0.941637904169    -0.791496167981
    H           -4.076949820384    -0.406131494098     0.021237454044
    H           -3.288954077353     0.847404526659     0.957455108034

  Mulliken Charges: (a.u.)
   Center  Symbol    Alpha    Beta     Spin     Total
       1     H     0.43268  0.43268  0.00000  0.13464
       2     N     3.68778  3.68778  0.00000 -0.37556
       3     C     3.02855  3.02855  0.00000 -0.05710
       4     H     0.43281  0.43281  0.00000  0.13437
       5     C     3.08798  3.08798  0.00000 -0.17597
       6     H     0.45431  0.45431  0.00000  0.09138
       7     H     0.45316  0.45316  0.00000  0.09368
       8     C     3.09422  3.09422  0.00000 -0.18843
       9     H     0.45940  0.45940  0.00000  0.08121
      10     H     0.45947  0.45947  0.00000  0.08106
      11     C     3.08282  3.08282  0.00000 -0.16563
      12     H     0.45473  0.45473  0.00000  0.09054
      13     H     0.45456  0.45456  0.00000  0.09087
      14     C     3.14987  3.14987  0.00000 -0.29975
      15     H     0.45459  0.45459  0.00000  0.09081
      16     H     0.45449  0.45449  0.00000  0.09102
      17     H     0.45511  0.45511  0.00000  0.08979
      18     H     0.44847  0.44847  0.00000  0.10305
      19     H     0.45500  0.45500  0.00000  0.09001

   Total alpha = 25.00000, Total beta = 25.00000, Total charge = -0.00000

*** Psi4 exiting successfully. Buy a developer a beer!
