  ==> Input File <==

--------------------------------------------------------------------------
set {
	reference rhf
	basis cc-pvtz
}

set_num_threads( 4 )
memory 2 gb

molecule MOL {
0 1

H	 2.828711	 -0.346904	 0.001083
C	 1.876752	 0.015931	 -0.363450
C	 0.776285	 -0.474665	 0.563092
H	 1.728113	 -0.357244	 -1.367440
H	 1.906171	 1.096574	 -0.386153
N	 -0.540022	 0.017605	 0.071630
H	 0.707111	 -1.548969	 0.573035
H	 0.886169	 -0.084184	 1.560432
O	 -0.687257	 1.191136	 -0.001452
O	 -1.361118	 -0.797130	 -0.186058

	symmetry c1
}
set optking {
	frozen_dihedral = ("
		9 6 3 2
	")
}

ee = optimize('scf')
oeprop('DIPOLE', 'QUADRUPOLE', 'MULLIKEN_CHARGES')
f=open( 'psi4out.xyz', 'w' )
f.write( "10  " )
f.write( str(ee) + "\n" )
f.write( MOL.save_string_xyz() )
f.close()
--------------------------------------------------------------------------

    Molecular point group: c1
  Charge       = 0
  Multiplicity = 1
  Basis Set: CC-PVTZ
  Basis Set:
  @DF-RHF Final Energy:  -282.81299314142098
    Total Energy =                       -282.8129931414209182
    Molecular point group: c1
  Basis Set: CC-PVTZ
  Basis Set:
  Basis Set: CC-PVTZ
  Basis Set:
  @DF-RHF Final Energy:  -282.80875630271203
    Total Energy =                       -282.8087563027121405
  Basis Set: CC-PVTZ
  Basis Set:
  Basis Set: CC-PVTZ
  Basis Set:
  @DF-RHF Final Energy:  -282.81307791258416
    Total Energy =                       -282.8130779125841627
  Basis Set: CC-PVTZ
  Basis Set:
  Basis Set: CC-PVTZ
  Basis Set:
  @DF-RHF Final Energy:  -282.81322248991256
    Total Energy =                       -282.8132224899124481
  Basis Set: CC-PVTZ
  Basis Set:
  Basis Set: CC-PVTZ
  Basis Set:
  @DF-RHF Final Energy:  -282.81322431133242
    Total Energy =                       -282.8132243113321920
  Basis Set: CC-PVTZ
  Basis Set:
  Charge       = 0
  Multiplicity = 1
  Basis Set: CC-PVTZ
  Basis Set:

    Orbital Energies (a.u.)
    -----------------------

    Doubly Occupied:

       1A    -20.594052     2A    -20.590337     3A    -15.838760
       4A    -11.302168     5A    -11.248562     6A     -1.638026
       7A     -1.422364     8A     -1.125584     9A     -0.966915
      10A     -0.838507    11A     -0.764375    12A     -0.742030
      13A     -0.730754    14A     -0.655572    15A     -0.590841
      16A     -0.562227    17A     -0.544698    18A     -0.489312
      19A     -0.479392    20A     -0.455446

  @DF-RHF Final Energy:  -282.81322494048959

   => Energetics <=

    Nuclear Repulsion Energy =            186.6710423742758564
    One-Electron Energy =                -755.8086936760822709
    Two-Electron Energy =                 286.3244263613167959
    DFT Exchange-Correlation Energy =       0.0000000000000000
    Empirical Dispersion Energy =           0.0000000000000000
    PCM Polarization Energy =               0.0000000000000000
    EFP Energy =                            0.0000000000000000
    Total Energy =                       -282.8132249404895902
    Molecular point group: c1
  Basis Set: CC-PVTZ
  Basis Set:

  -Total Gradient:
     Atom            X                  Y                   Z
    ------   -----------------  -----------------  -----------------
       1       -0.000006461994    -0.000002406584     0.000005771402
       2        0.000026074499     0.000169084758     0.000090815120
       3       -0.000017060066    -0.000232713423    -0.000218659407
       4       -0.000005650651    -0.000000447344     0.000012502097
       5        0.000001857109     0.000007094699    -0.000005038106
       6       -0.000060785132     0.000182336363     0.000357292901
       7       -0.000006095842    -0.000001859341     0.000000936821
       8        0.000010779993     0.000004577051    -0.000004728246
       9        0.000098925537    -0.000066545197    -0.000225645584
      10       -0.000041583456    -0.000059120981    -0.000013246997

  **** Optimization is complete! (in 6 steps) ****
    Final optimized geometry and variables:
    Molecular point group: c1

    Geometry (in Angstrom), charge = 0, multiplicity = 1:

    H            2.839415928346    -0.356498205886    -0.009986179895
    C            1.893678931823     0.020577115801    -0.377158091344
    C            0.787470728575    -0.466014265008     0.540547830313
    H            1.749736371990    -0.347049925556    -1.385035565069
    H            1.932322145074     1.099077622030    -0.397768177378
    N           -0.541570041775     0.017971026606     0.068911850349
    H            0.714741513544    -1.538489624157     0.573967108028
    H            0.896100935504    -0.066796776863     1.537563991968
    O           -0.695033206139     1.191787864457     0.004942423311
    O           -1.354749732114    -0.797111204894    -0.207937564123

  Mulliken Charges: (a.u.)
   Center  Symbol    Alpha    Beta     Spin     Total
       1     H     0.44855  0.44855  0.00000  0.10290
       2     C     3.14137  3.14137  0.00000 -0.28275
       3     C     3.03820  3.03820  0.00000 -0.07639
       4     H     0.44474  0.44474  0.00000  0.11052
       5     H     0.43686  0.43686  0.00000  0.12628
       6     N     3.27789  3.27789  0.00000  0.44423
       7     H     0.43233  0.43233  0.00000  0.13534
       8     H     0.43727  0.43727  0.00000  0.12546
       9     O     4.17441  4.17441  0.00000 -0.34883
      10     O     4.16838  4.16838  0.00000 -0.33676

   Total alpha = 20.00000, Total beta = 20.00000, Total charge = -0.00000
