                              Psi4 1.0.54 Driver

  ==> Input File <==

--------------------------------------------------------------------------
set {
	reference rhf
	basis cc-pvtz
}

set_num_threads( 4 )
memory 2 gb

molecule MOL {
0 1

O	 -2.374409	 1.338660	 -0.336961
C	 -2.104891	 0.204655	 -0.107126
C	 -0.881910	 -0.448129	 -0.720509
C	 -2.949910	 -0.638219	 0.818225
C	 -1.184018	 -1.889459	 -1.149625
H	 -0.100217	 -0.448413	 0.028536
H	 -0.536899	 0.126143	 -1.573764
C	 0.034225	 -2.580479	 -1.758625
H	 -1.535955	 -2.435027	 -0.283182
H	 -1.995400	 -1.893954	 -1.873462
C	 -0.225034	 -4.002810	 -2.258290
H	 0.837296	 -2.598463	 -1.026005
H	 0.395104	 -1.982243	 -2.590781
C	 -0.555545	 -5.013058	 -1.162369
H	 0.657645	 -4.342895	 -2.790763
H	 -1.029976	 -3.985342	 -2.988424
H	 0.230350	 -5.047218	 -0.414845
H	 -0.658587	 -6.008830	 -1.577810
H	 -1.482899	 -4.774989	 -0.655796
H	 -3.440322	 -1.417144	 0.243099
H	 -3.694377	 -0.025850	 1.303346
H	 -2.331085	 -1.129829	 1.560495

	symmetry c1
}
set optking {
	frozen_dihedral = ("
		6 3 2 1
	")
}

ee,wfn = optimize('scf', return_wfn=True)
oeprop( wfn, 'DIPOLE', 'QUADRUPOLE', 'MULLIKEN_CHARGES')
f=open( 'psi4out.xyz', 'w' )
f.write( "22  " )
f.write( str(ee) + "\n" )
f.write( MOL.save_string_xyz() )
f.close()
--------------------------------------------------------------------------

    Molecular point group: c1
  Charge       = 0
  Multiplicity = 1
  Basis Set: CC-PVTZ
  Basis Set:
  @DF-RHF Final Energy:  -348.22029808679883
    Total Energy =                       -348.2202980867988913
    Molecular point group: c1
  Basis Set: CC-PVTZ
  Basis Set:
  Basis Set: CC-PVTZ
  Basis Set:
  @DF-RHF Final Energy:  -347.14100001161205
    Total Energy =                       -347.1410000116121637
  Basis Set: CC-PVTZ
  Basis Set:
  Basis Set: CC-PVTZ
  Basis Set:
  @DF-RHF Final Energy:  -347.38414312945758
    Total Energy =                       -347.3841431294572430
  Basis Set: CC-PVTZ
  Basis Set:
  Basis Set: CC-PVTZ
  Basis Set:
  @DF-RHF Final Energy:  -347.79862944425588
    Total Energy =                       -347.7986294442555959
  Basis Set: CC-PVTZ
  Basis Set:
  @DF-RHF Final Energy:  -348.06471326954033
    Total Energy =                       -348.0647132695398795
  @DF-RHF Final Energy:  -348.19886125373023
    Total Energy =                       -348.1988612537298877
  @DF-RHF Final Energy:  -348.21906598685285
    Total Energy =                       -348.2190659868529110
  @DF-RHF Final Energy:  -348.22186276374947
    Total Energy =                       -348.2218627637494706
  @DF-RHF Final Energy:  -348.22129428908232
    Total Energy =                       -348.2212942890826071
  @DF-RHF Final Energy:  -348.22253412116771
    Total Energy =                       -348.2225341211677687
  Basis Set: CC-PVTZ
  Basis Set:
  @DF-RHF Final Energy:  -348.22249911862934
    Total Energy =                       -348.2224991186291163
  Basis Set: CC-PVTZ
  Basis Set:
  Basis Set: CC-PVTZ
  Basis Set:
  @DF-RHF Final Energy:  -348.22254748742102
    Total Energy =                       -348.2225474874203428
  Basis Set: CC-PVTZ
  Basis Set:
  Basis Set: CC-PVTZ
  Basis Set:
  @DF-RHF Final Energy:  -348.22256964186442
    Total Energy =                       -348.2225696418640837
  Basis Set: CC-PVTZ
  Basis Set:
  Charge       = 0
  Multiplicity = 1
  Basis Set: CC-PVTZ
  Basis Set:

    Orbital Energies (a.u.)
    -----------------------

    Doubly Occupied:

       1A    -20.536500     2A    -11.319533     3A    -11.229503
       4A    -11.228441     5A    -11.226247     6A    -11.222637
       7A    -11.221262     8A    -11.213570     9A     -1.396623
      10A     -1.100251    11A     -1.047314    12A     -0.997777
      13A     -0.942047    14A     -0.864176    15A     -0.789967
      16A     -0.733326    17A     -0.662322    18A     -0.650812
      19A     -0.631196    20A     -0.622675    21A     -0.600365
      22A     -0.588724    23A     -0.555930    24A     -0.547269
      25A     -0.539502    26A     -0.515736    27A     -0.505832
      28A     -0.489069    29A     -0.475029    30A     -0.467581
      31A     -0.466450    32A     -0.398835

  @DF-RHF Final Energy:  -348.22256983725941

   => Energetics <=

    Nuclear Repulsion Energy =            373.4305776213915919
    One-Electron Energy =               -1211.7332884422676216
    Two-Electron Energy =                 490.0801409836166158
    DFT Exchange-Correlation Energy =       0.0000000000000000
    Empirical Dispersion Energy =           0.0000000000000000
    PCM Polarization Energy =               0.0000000000000000
    EFP Energy =                            0.0000000000000000
    Total Energy =                       -348.2225698372593570
    Molecular point group: c1
  Basis Set: CC-PVTZ
  Basis Set:

  -Total Gradient:
     Atom            X                  Y                   Z
    ------   -----------------  -----------------  -----------------
       1        0.000811118891     0.000719430733     0.000051537292
       2       -0.001173619291    -0.000954350852    -0.000217459134
       3        0.000433443744    -0.000206343362     0.001215427481
       4        0.000078926871     0.000072090508    -0.000063050878
       5       -0.000033177208     0.000040806908    -0.000020662791
       6       -0.000086466086     0.000395478597    -0.001002435380
       7        0.000001223830    -0.000005976973     0.000001567986
       8        0.000027101549    -0.000010598305     0.000039180468
       9       -0.000012200331     0.000024000748    -0.000037404656
      10       -0.000015448631    -0.000000391665     0.000013680236
      11        0.000010104975     0.000026920599     0.000019138168
      12        0.000016303577    -0.000000621358     0.000007435826
      13        0.000016828789    -0.000009551904     0.000009829980
      14       -0.000028916090    -0.000005512067    -0.000030410916
      15       -0.000022067953    -0.000004293079    -0.000008212297
      16       -0.000016757188     0.000013075543     0.000006057033
      17        0.000008877007     0.000006233662     0.000016031410
      18        0.000015366742     0.000009221452    -0.000011266658
      19        0.000025922832    -0.000038220996    -0.000008247525
      20       -0.000043433416    -0.000045488175    -0.000000141209
      21       -0.000003660494    -0.000015032462     0.000005970753
      22       -0.000009472119    -0.000010877546     0.000013434813

  **** Optimization is complete! (in 14 steps) ****
    Final optimized geometry and variables:
    Molecular point group: c1

    Geometry (in Angstrom), charge = 0, multiplicity = 1:

    O           -1.549819459715     2.621866851245    -1.005289568093
    C           -0.928084956188     1.949535090766    -0.248296829127
    C            0.052201691191     0.910573237706    -0.758857069692
    C           -1.059806653493     2.137611784050     1.246092021690
    C            0.035085998016    -0.437219630906    -0.036768761894
    H            1.042848721315     1.355477134995    -0.683974643933
    H           -0.152584013504     0.782203291558    -1.813338931647
    C            1.003466177250    -1.435726114025    -0.668901350470
    H            0.281805969438    -0.298035341214     1.008765744181
    H           -0.970626105135    -0.849241138844    -0.066912837932
    C            0.976324078730    -2.832872216671    -0.047300514363
    H            2.014305049424    -1.038078635003    -0.613553932413
    H            0.769838439841    -1.523433752471    -1.725717603857
    C            1.476207873188    -2.901561045649     1.393602310001
    H            1.587414719388    -3.489144441547    -0.658721708997
    H           -0.034765332564    -3.227922061298    -0.098187641110
    H            2.482690547525    -2.503909857404     1.476294157141
    H            1.498179758628    -3.927154895123     1.743192727150
    H            0.842680123035    -2.342354731312     2.071682638793
    H           -1.574179248561     1.287813269955     1.680799122252
    H           -1.625686521338     3.034467890036     1.445306138635
    H           -0.084974984086     2.201145078937     1.716154740931

  Mulliken Charges: (a.u.)
   Center  Symbol    Alpha    Beta     Spin     Total
       1     O     4.17235  4.17235  0.00000 -0.34470
       2     C     2.85817  2.85817  0.00000  0.28366
       3     C     3.09776  3.09776  0.00000 -0.19552
       4     C     3.16701  3.16701  0.00000 -0.33402
       5     C     3.10693  3.10693  0.00000 -0.21387
       6     H     0.44625  0.44625  0.00000  0.10750
       7     H     0.43760  0.43760  0.00000  0.12480
       8     C     3.09755  3.09755  0.00000 -0.19511
       9     H     0.44812  0.44812  0.00000  0.10376
      10     H     0.44719  0.44719  0.00000  0.10563
      11     C     3.09010  3.09010  0.00000 -0.18020
      12     H     0.45258  0.45258  0.00000  0.09485
      13     H     0.44500  0.44500  0.00000  0.11000
      14     C     3.15299  3.15299  0.00000 -0.30599
      15     H     0.44672  0.44672  0.00000  0.10656
      16     H     0.45324  0.45324  0.00000  0.09352
      17     H     0.45420  0.45420  0.00000  0.09159
      18     H     0.44464  0.44464  0.00000  0.11073
      19     H     0.45491  0.45491  0.00000  0.09018
      20     H     0.44693  0.44693  0.00000  0.10615
      21     H     0.43132  0.43132  0.00000  0.13736
      22     H     0.44844  0.44844  0.00000  0.10312

   Total alpha = 32.00000, Total beta = 32.00000, Total charge =  0.00000

*** Psi4 exiting successfully. Buy a developer a beer!
