                              Psi4 1.0.54 Driver

  ==> Input File <==

--------------------------------------------------------------------------
set {
	reference rhf
	basis cc-pvtz
}

set_num_threads( 4 )
memory 2 gb

molecule MOL {
0 1

H	 -2.816458	 -0.841657	 -0.064679
N	 -1.878861	 -0.711874	 0.250184
C	 -1.341419	 0.551458	 -0.220231
H	 -1.333674	 -1.468530	 -0.105118
C	 0.082190	 0.731516	 0.254705
H	 -1.357065	 0.652078	 -1.304747
H	 -1.939897	 1.357530	 0.189797
O	 0.062635	 1.278028	 1.538703
H	 0.592677	 -0.230492	 0.265400
H	 0.613897	 1.392052	 -0.426403
C	 1.317247	 1.557769	 2.064930
H	 1.178533	 1.969921	 3.054009
H	 1.925042	 0.658815	 2.143416
H	 1.851970	 2.282165	 1.455107

	symmetry c1
}
set optking {
	frozen_dihedral = ("
		8 5 3 6
	")
}

ee,wfn = optimize('scf', return_wfn=True)
oeprop( wfn, 'DIPOLE', 'QUADRUPOLE', 'MULLIKEN_CHARGES')
f=open( 'psi4out.xyz', 'w' )
f.write( "14  " )
f.write( str(ee) + "\n" )
f.write( MOL.save_string_xyz() )
f.close()
--------------------------------------------------------------------------

    Molecular point group: c1
  Charge       = 0
  Multiplicity = 1
  Basis Set: CC-PVTZ
  Basis Set:
  @DF-RHF Final Energy:  -248.21992513174158
    Total Energy =                       -248.2199251317416611
    Molecular point group: c1
  Basis Set: CC-PVTZ
  Basis Set:
  Basis Set: CC-PVTZ
  Basis Set:
  @DF-RHF Final Energy:  -248.22054148855776
    Total Energy =                       -248.2205414885575578
  Basis Set: CC-PVTZ
  Basis Set:
  Basis Set: CC-PVTZ
  Basis Set:
  @DF-RHF Final Energy:  -248.22071103704795
    Total Energy =                       -248.2207110370478631
  Basis Set: CC-PVTZ
  Basis Set:
  Basis Set: CC-PVTZ
  Basis Set:
  @DF-RHF Final Energy:  -248.22074881119403
    Total Energy =                       -248.2207488111938574
  Basis Set: CC-PVTZ
  Basis Set:
  Basis Set: CC-PVTZ
  Basis Set:
  @DF-RHF Final Energy:  -248.22075789048665
    Total Energy =                       -248.2207578904865954
  Basis Set: CC-PVTZ
  Basis Set:
  Charge       = 0
  Multiplicity = 1
  Basis Set: CC-PVTZ
  Basis Set:

    Orbital Energies (a.u.)
    -----------------------

    Doubly Occupied:

       1A    -20.544313     2A    -15.527883     3A    -11.263575
       4A    -11.259040     5A    -11.240858     6A     -1.379757
       7A     -1.178567     8A     -0.999203     9A     -0.902087
      10A     -0.820422    11A     -0.681992    12A     -0.669869
      13A     -0.646496    14A     -0.620180    15A     -0.603127
      16A     -0.541471    17A     -0.523838    18A     -0.502644
      19A     -0.466782    20A     -0.414836    21A     -0.385623

  @DF-RHF Final Energy:  -248.22075841990102

   => Energetics <=

    Nuclear Repulsion Energy =            192.8581126569225717
    One-Electron Energy =                -719.8126194729436520
    Two-Electron Energy =                 278.7337483961201201
    DFT Exchange-Correlation Energy =       0.0000000000000000
    Empirical Dispersion Energy =           0.0000000000000000
    PCM Polarization Energy =               0.0000000000000000
    EFP Energy =                            0.0000000000000000
    Total Energy =                       -248.2207584199009602
    Molecular point group: c1
  Basis Set: CC-PVTZ
  Basis Set:

  -Total Gradient:
     Atom            X                  Y                   Z
    ------   -----------------  -----------------  -----------------
       1        0.000004747663    -0.000002719358    -0.000006754494
       2       -0.000002007084     0.000014854316     0.000024745724
       3        0.000805288073    -0.002697031734    -0.000565263019
       4       -0.000003259806     0.000016128058    -0.000005589344
       5       -0.000002971822    -0.001983166588     0.001299007010
       6       -0.000696791836     0.002693889789     0.000198186971
       7       -0.000010766980    -0.000017257340    -0.000000327516
       8       -0.000093733624     0.001977335749    -0.000955258074
       9        0.000012826088    -0.000012693644    -0.000013539832
      10        0.000001143635    -0.000005426430    -0.000006275118
      11       -0.000017499325     0.000010907095     0.000036854365
      12        0.000016219124     0.000007641789     0.000013463352
      13       -0.000008688814     0.000001291627    -0.000011609573
      14       -0.000004505291    -0.000003753326    -0.000007640453

  **** Optimization is complete! (in 6 steps) ****
    Final optimized geometry and variables:
    Molecular point group: c1

    Geometry (in Angstrom), charge = 0, multiplicity = 1:

    H           -2.421891030838    -1.575473547132    -0.695606139288
    N           -1.442196394717    -1.472776968463    -0.540532433218
    C           -0.963464643163    -0.193862112826    -1.032891341961
    H           -0.986289724836    -2.231506045941    -1.001847640770
    C            0.433360545392     0.120941690988    -0.528013031614
    H           -0.967984795048    -0.111957501609    -2.119791618857
    H           -1.622332185514     0.581628031260    -0.663595740198
    O            0.359460310815     0.682149602653     0.742845373088
    H            1.036394579995    -0.786465009540    -0.511152288653
    H            0.917659100528     0.821480263424    -1.208225431274
    C            1.590114538940     0.912686972816     1.340969862178
    H            1.410230799647     1.361204772997     2.307264976381
    H            2.144412043109    -0.012498060641     1.483098069724
    H            2.201924364409     1.591700489481     0.749430179788

  Mulliken Charges: (a.u.)
   Center  Symbol    Alpha    Beta     Spin     Total
       1     H     0.42786  0.42786  0.00000  0.14428
       2     N     3.68884  3.68884  0.00000 -0.37768
       3     C     3.02561  3.02561  0.00000 -0.05122
       4     H     0.43203  0.43203  0.00000  0.13593
       5     C     2.95413  2.95413  0.00000  0.09175
       6     H     0.46795  0.46795  0.00000  0.06411
       7     H     0.45322  0.45322  0.00000  0.09357
       8     O     4.17019  4.17019  0.00000 -0.34038
       9     H     0.48078  0.48078  0.00000  0.03844
      10     H     0.47540  0.47540  0.00000  0.04920
      11     C     3.03139  3.03139  0.00000 -0.06278
      12     H     0.44705  0.44705  0.00000  0.10590
      13     H     0.47130  0.47130  0.00000  0.05739
      14     H     0.47426  0.47426  0.00000  0.05149

   Total alpha = 21.00000, Total beta = 21.00000, Total charge =  0.00000

*** Psi4 exiting successfully. Buy a developer a beer!
