  ==> Input File <==

--------------------------------------------------------------------------
set {
	reference rhf
	basis 6-31G*
}

set_num_threads( 1 )
memory 2 gb

molecule MOL {
0 1

O	 3.283144	 -3.249560	 0.509508
C	 2.731444	 -2.197186	 0.544080
C	 1.270858	 -1.978871	 0.856837
O	 3.347903	 -1.046386	 0.304773
C	 0.520272	 -3.275612	 1.152134
H	 1.223913	 -1.283292	 1.688195
H	 0.833285	 -1.458003	 0.008944
C	 -0.984504	 -3.082180	 1.368303
H	 0.958605	 -3.753293	 2.023227
H	 0.675199	 -3.960631	 0.325593
C	 -1.359285	 -2.283897	 2.620259
H	 -1.444643	 -4.065468	 1.432661
H	 -1.418140	 -2.603385	 0.491534
C	 -2.870247	 -2.212806	 2.850348
H	 -0.884306	 -2.737215	 3.489004
H	 -0.966784	 -1.271924	 2.550795
C	 -3.256732	 -1.413064	 4.095809
H	 -3.269233	 -3.222252	 2.934397
H	 -3.346943	 -1.769404	 1.977506
C	 -4.767112	 -1.350127	 4.320513
H	 -2.780413	 -1.854198	 4.968828
H	 -2.862518	 -0.402470	 4.011681
H	 -5.009321	 -0.776921	 5.210107
H	 -5.186919	 -2.344533	 4.443453
H	 -5.269613	 -0.882171	 3.478621
C	 4.728119	 -1.109107	 -0.004993
H	 4.882018	 -1.033965	 -1.071845
H	 5.068212	 -2.067527	 0.355250
H	 5.265056	 -0.311663	 0.488280

	symmetry c1
}
set optking {
	frozen_dihedral = ("
		21 17 14 11,
		17 14 11 15,
		15 11 8 5,
		6 3 5 9,
		11 8 5 9,
		1 2 4 26,
		6 3 2 1
	")
}

ee = energy('scf')
oeprop('DIPOLE', 'QUADRUPOLE', 'MULLIKEN_CHARGES')
f=open( 'psi4out.xyz', 'w' )
f.write( "29  " )
f.write( str(ee) + "\n" )
f.write( MOL.save_string_xyz() )
f.close()
--------------------------------------------------------------------------

    Molecular point group: c1

    Geometry (in Angstrom), charge = 0, multiplicity = 1:

       Center              X                  Y                   Z               Mass
    ------------   -----------------  -----------------  -----------------  -----------------
           O          3.001235713408    -1.152396262841    -1.171214086201    15.994914619560
           C          2.449535713408    -0.100022262841    -1.136642086201    12.000000000000
           C          0.988949713408     0.118292737159    -0.823885086201    12.000000000000
           O          3.065994713408     1.050777737159    -1.375949086201    15.994914619560
           C          0.238363713408    -1.178448262841    -0.528588086201    12.000000000000
           H          0.942004713408     0.813871737159     0.007472913799     1.007825032070
           H          0.551376713408     0.639160737159    -1.671778086201     1.007825032070
           C         -1.266412286592    -0.985016262841    -0.312419086201    12.000000000000
           H          0.676696713408    -1.656129262841     0.342504913799     1.007825032070
           H          0.393290713408    -1.863467262841    -1.355129086201     1.007825032070
           C         -1.641193286592    -0.186733262841     0.939536913799    12.000000000000
           H         -1.726551286592    -1.968304262841    -0.248061086201     1.007825032070
           H         -1.700048286592    -0.506221262841    -1.189188086201     1.007825032070
           C         -3.152155286592    -0.115642262841     1.169625913799    12.000000000000
           H         -1.166214286592    -0.640051262841     1.808281913799     1.007825032070
           H         -1.248692286592     0.825239737159     0.870072913799     1.007825032070
           C         -3.538640286592     0.684099737159     2.415086913799    12.000000000000
           H         -3.551141286592    -1.125088262841     1.253674913799     1.007825032070
           H         -3.628851286592     0.327759737159     0.296783913799     1.007825032070
           C         -5.049020286592     0.747036737159     2.639790913799    12.000000000000
           H         -3.062321286592     0.242965737159     3.288105913799     1.007825032070
           H         -3.144426286592     1.694693737159     2.330958913799     1.007825032070
           H         -5.291229286592     1.320242737159     3.529384913799     1.007825032070
           H         -5.468827286592    -0.247369262841     2.762730913799     1.007825032070
           H         -5.551521286592     1.214992737159     1.797898913799     1.007825032070
           C          4.446210713408     0.988056737159    -1.685715086201    12.000000000000
           H          4.600109713408     1.063198737159    -2.752567086201     1.007825032070
           H          4.786303713408     0.029636737159    -1.325472086201     1.007825032070
           H          4.983147713408     1.785500737159    -1.192442086201     1.007825032070

  Charge       = 0
  Multiplicity = 1
  Basis Set: 6-31G*
  Basis Set:

    Orbital Energies (a.u.)
    -----------------------

    Doubly Occupied:

       1A    -20.602764     2A    -20.545353     3A    -11.373910
       4A    -11.275966     5A    -11.235507     6A    -11.219513
       7A    -11.217947     8A    -11.216204     9A    -11.215985
      10A    -11.214613    11A    -11.209159    12A     -1.469873
      13A     -1.363135    14A     -1.098438    15A     -1.067166
      16A     -1.019587    17A     -0.976260    18A     -0.928092
      19A     -0.861669    20A     -0.799325    21A     -0.790561
      22A     -0.763250    23A     -0.704744    24A     -0.680795
      25A     -0.673793    26A     -0.651181    27A     -0.629037
      28A     -0.606629    29A     -0.595390    30A     -0.580842
      31A     -0.567778    32A     -0.550480    33A     -0.533983
      34A     -0.524058    35A     -0.515028    36A     -0.510122
      37A     -0.496683    38A     -0.478139    39A     -0.470409
      40A     -0.462600    41A     -0.459137    42A     -0.453921
      43A     -0.442158    44A     -0.435995

  @DF-RHF Final Energy:  -501.04043443535375

   => Energetics <=

    Nuclear Repulsion Energy =            610.4292910860697248
    One-Electron Energy =               -1891.9652508410049450
    Two-Electron Energy =                 780.4955253195823843
    DFT Exchange-Correlation Energy =       0.0000000000000000
    Empirical Dispersion Energy =           0.0000000000000000
    PCM Polarization Energy =               0.0000000000000000
    EFP Energy =                            0.0000000000000000
    Total Energy =                       -501.0404344353528359

  Mulliken Charges: (a.u.)
   Center  Symbol    Alpha    Beta     Spin     Total
       1     O     4.28690  4.28690  0.00000 -0.57380
       2     C     2.60414  2.60414  0.00000  0.79173
       3     C     3.20992  3.20992  0.00000 -0.41984
       4     O     4.30791  4.30791  0.00000 -0.61581
       5     C     3.15397  3.15397  0.00000 -0.30793
       6     H     0.39846  0.39846  0.00000  0.20308
       7     H     0.40076  0.40076  0.00000  0.19848
       8     C     3.15665  3.15665  0.00000 -0.31331
       9     H     0.41304  0.41304  0.00000  0.17393
      10     H     0.40863  0.40863  0.00000  0.18274
      11     C     3.15511  3.15511  0.00000 -0.31021
      12     H     0.41815  0.41815  0.00000  0.16370
      13     H     0.42379  0.42379  0.00000  0.15241
      14     C     3.15030  3.15030  0.00000 -0.30061
      15     H     0.42259  0.42259  0.00000  0.15482
      16     H     0.42358  0.42358  0.00000  0.15285
      17     C     3.15147  3.15147  0.00000 -0.30295
      18     H     0.42331  0.42331  0.00000  0.15339
      19     H     0.42394  0.42394  0.00000  0.15212
      20     C     3.23936  3.23936  0.00000 -0.47872
      21     H     0.42280  0.42280  0.00000  0.15441
      22     H     0.42340  0.42340  0.00000  0.15320
      23     H     0.41921  0.41921  0.00000  0.16159
      24     H     0.42154  0.42154  0.00000  0.15692
      25     H     0.42181  0.42181  0.00000  0.15638
      26     C     3.10144  3.10144  0.00000 -0.20288
      27     H     0.41376  0.41376  0.00000  0.17248
      28     H     0.39293  0.39293  0.00000  0.21413
      29     H     0.41115  0.41115  0.00000  0.17771

   Total alpha = 44.00000, Total beta = 44.00000, Total charge = -0.00000
