  ==> Input File <==

--------------------------------------------------------------------------
set {
	reference rhf
	basis cc-pvtz
}

set_num_threads( 4 )
memory 2 gb

molecule MOL {
0 1

H	 -1.672932	 2.448546	 -0.519010
C	 -0.652389	 2.089234	 -0.537877
C	 -0.600949	 0.658697	 -0.000002
H	 -0.044654	 2.750700	 0.064789
H	 -0.292475	 2.131984	 -1.557053
C	 0.763408	 0.112229	 -0.000006
H	 -0.972314	 0.616206	 1.015486
H	 -1.218739	 0.000974	 -0.597220
N	 1.806008	 -0.317179	 0.000007

	symmetry c1
}
set optking {
	frozen_dihedral = ("
		7 3 6 9
	")
}

ee = optimize('scf')
oeprop('DIPOLE', 'QUADRUPOLE', 'MULLIKEN_CHARGES')
f=open( 'psi4out.xyz', 'w' )
f.write( "9  " )
f.write( str(ee) + "\n" )
f.write( MOL.save_string_xyz() )
f.close()
--------------------------------------------------------------------------

    Molecular point group: c1
  Charge       = 0
  Multiplicity = 1
  Basis Set: CC-PVTZ
  Basis Set:
  @DF-RHF Final Energy:  -171.02344303853567
    Total Energy =                       -171.0234430385357882
    Molecular point group: c1
  Basis Set: CC-PVTZ
  Basis Set:
  Basis Set: CC-PVTZ
  Basis Set:
  @DF-RHF Final Energy:  -170.87156687976528
    Total Energy =                       -170.8715668797652825
  Basis Set: CC-PVTZ
  Basis Set:
  Basis Set: CC-PVTZ
  Basis Set:
  @DF-RHF Final Energy:  -170.96961413862499
    Total Energy =                       -170.9696141386250190
  Basis Set: CC-PVTZ
  Basis Set:
  Basis Set: CC-PVTZ
  Basis Set:
  @DF-RHF Final Energy:  -171.01447615497685
    Total Energy =                       -171.0144761549768759
  Basis Set: CC-PVTZ
  Basis Set:
  @DF-RHF Final Energy:  -171.02312162198797
    Total Energy =                       -171.0231216219879400
  @DF-RHF Final Energy:  -171.02328946949780
    Total Energy =                       -171.0232894694977404
  @DF-RHF Final Energy:  -171.02177696416834
    Total Energy =                       -171.0217769641684527
  @DF-RHF Final Energy:  -171.02306536515727
    Total Energy =                       -171.0230653651572652
  @DF-RHF Final Energy:  -171.00787014469699
    Total Energy =                       -171.0078701446969376
  @DF-RHF Final Energy:  -171.02106396145712
    Total Energy =                       -171.0210639614571448
  @DF-RHF Final Energy:  -171.02322019051428
    Total Energy =                       -171.0232201905143370
  @DF-RHF Final Energy:  -171.02030838307755
    Total Energy =                       -171.0203083830776336
  @DF-RHF Final Energy:  -171.02202850847931
    Total Energy =                       -171.0220285084794511
  @DF-RHF Final Energy:  -171.02161679157979
    Total Energy =                       -171.0216167915798167
  @DF-RHF Final Energy:  -171.02245115145726
    Total Energy =                       -171.0224511514572328
  @DF-RHF Final Energy:  -171.02326927541060
    Total Energy =                       -171.0232692754106552
  @DF-RHF Final Energy:  -171.02287615471329
    Total Energy =                       -171.0228761547133445
  @DF-RHF Final Energy:  -171.02327504157930
    Total Energy =                       -171.0232750415792395
  @DF-RHF Final Energy:  -171.01993089603559
    Total Energy =                       -171.0199308960355893
  @DF-RHF Final Energy:  -171.02093576657944
    Total Energy =                       -171.0209357665793561
  @DF-RHF Final Energy:  -171.02342342533325
    Total Energy =                       -171.0234234253333057
  @DF-RHF Final Energy:  -171.02306100002772
    Total Energy =                       -171.0230610000277238
  @DF-RHF Final Energy:  -171.02326962446659
    Total Energy =                       -171.0232696244667636
  @DF-RHF Final Energy:  -171.02313025987647
    Total Energy =                       -171.0231302598764955
  @DF-RHF Final Energy:  -171.02334998050173
    Total Energy =                       -171.0233499805017345
  @DF-RHF Final Energy:  -171.02247475398593
    Total Energy =                       -171.0224747539859891
  @DF-RHF Final Energy:  -171.02335888888632
    Total Energy =                       -171.0233588888862641
  @DF-RHF Final Energy:  -171.02305148277290
    Total Energy =                       -171.0230514827730133
  @DF-RHF Final Energy:  -171.02332876131265
    Total Energy =                       -171.0233287613126549
  @DF-RHF Final Energy:  -171.02307912202306
    Total Energy =                       -171.0230791220230344
  @DF-RHF Final Energy:  -171.02008545113415
    Total Energy =                       -171.0200854511340935
  @DF-RHF Final Energy:  -171.02105927288002
    Total Energy =                       -171.0210592728799099
  @DF-RHF Final Energy:  -171.02306508838629
    Total Energy =                       -171.0230650883862609
  @DF-RHF Final Energy:  -171.02330947039266
    Total Energy =                       -171.0233094703925190
  @DF-RHF Final Energy:  -171.02337704104846
    Total Energy =                       -171.0233770410485761
  @DF-RHF Final Energy:  -171.02342843632300
    Total Energy =                       -171.0234284363229449
  Basis Set: CC-PVTZ
  Basis Set:
  @DF-RHF Final Energy:  -171.02343872270436
    Total Energy =                       -171.0234387227043840
  Basis Set: CC-PVTZ
  Basis Set:
  Basis Set: CC-PVTZ
  Basis Set:
  @DF-RHF Final Energy:  -171.02341312958083
    Total Energy =                       -171.0234131295808311
  Basis Set: CC-PVTZ
  Basis Set:
  Basis Set: CC-PVTZ
  Basis Set:
  @DF-RHF Final Energy:  -171.02342264475740
    Total Energy =                       -171.0234226447574883
  Basis Set: CC-PVTZ
  Basis Set:
  Charge       = 0
  Multiplicity = 1
  Basis Set: CC-PVTZ
  Basis Set:

    Orbital Energies (a.u.)
    -----------------------

    Doubly Occupied:

       1A    -15.556646     2A    -11.282516     3A    -11.261241
       4A    -11.244485     5A     -1.228960     6A     -1.084377
       7A     -0.913363     8A     -0.700330     9A     -0.661293
      10A     -0.589854    11A     -0.563033    12A     -0.545315
      13A     -0.540025    14A     -0.463820    15A     -0.463786

  @DF-RHF Final Energy:  -171.02343277257677

   => Energetics <=

    Nuclear Repulsion Energy =            103.7690955805442599
    One-Electron Energy =                -435.3869660484914448
    Two-Electron Energy =                 160.5944376953705159
    DFT Exchange-Correlation Energy =       0.0000000000000000
    Empirical Dispersion Energy =           0.0000000000000000
    PCM Polarization Energy =               0.0000000000000000
    EFP Energy =                            0.0000000000000000
    Total Energy =                       -171.0234327725766548
    Molecular point group: c1
  Basis Set: CC-PVTZ
  Basis Set:

  -Total Gradient:
     Atom            X                  Y                   Z
    ------   -----------------  -----------------  -----------------
       1        0.000052450611     0.000028103444    -0.000065362766
       2       -0.000084484755    -0.000027070859     0.000192486434
       3        0.000411928258     0.000787001009    -0.000566051130
       4       -0.000031196236    -0.000054911240     0.000080308447
       5       -0.000065504344    -0.000021785022    -0.000054014417
       6       -0.001620228991    -0.001276303189     0.000823484671
       7       -0.000336364708     0.000252313932     0.000177131548
       8        0.000466260078    -0.000136407230     0.000082241074
       9        0.001207140083     0.000449059157    -0.000670223859

    Molecular point group: c1

    Geometry (in Angstrom), charge = 0, multiplicity = 1:

    H           -1.963924736012     1.738500161850    -0.366359969735
    C           -0.940090204066     1.388845739618    -0.382152677737
    C           -0.876956779997    -0.038277946712     0.160935329278
    H           -0.339770855619     2.057403345355     0.220189092853
    H           -0.578771693995     1.432040980672    -1.401007645267
    C            0.489818549668    -0.577729335460     0.154986791889
    H           -1.249520168507    -0.078605951096     1.176634354199
    H           -1.487694280240    -0.704656289380    -0.433622385126
    N            1.541832681134    -0.982178878237     0.114633819719

  Mulliken Charges: (a.u.)
   Center  Symbol    Alpha    Beta     Spin     Total
       1     H     0.44616  0.44616  0.00000  0.10767
       2     C     3.13511  3.13511  0.00000 -0.27022
       3     C     3.07959  3.07959  0.00000 -0.15919
       4     H     0.44487  0.44487  0.00000  0.11026
       5     H     0.44480  0.44480  0.00000  0.11040
       6     C     3.04235  3.04235  0.00000 -0.08470
       7     H     0.43227  0.43227  0.00000  0.13547
       8     H     0.43216  0.43216  0.00000  0.13569
       9     N     3.54269  3.54269  0.00000 -0.08537

   Total alpha = 15.00000, Total beta = 15.00000, Total charge =  0.00000
