                              Psi4 1.0.54 Driver

  ==> Input File <==

--------------------------------------------------------------------------
set {
	reference rhf
	basis cc-pvtz
}

set_num_threads( 4 )
memory 2 gb

molecule MOL {
0 1

O	 2.868453	 1.353349	 -0.000734
C	 2.841259	 0.166180	 -0.000295
C	 1.542794	 -0.614730	 -0.000853
C	 4.113372	 -0.651103	 0.000743
C	 0.288398	 0.247429	 0.000314
H	 1.557171	 -1.273139	 -0.866508
H	 1.557484	 -1.274998	 0.863344
C	 -0.993089	 -0.581367	 -0.000217
H	 0.305153	 0.900562	 -0.864701
H	 0.305567	 0.898805	 0.866656
C	 -2.258482	 0.271340	 0.000669
H	 -1.002280	 -1.233920	 -0.870484
H	 -1.002061	 -1.235367	 0.868958
C	 -2.550417	 0.926231	 -1.346412
H	 -2.170520	 1.042310	 0.762233
H	 -3.105873	 -0.345179	 0.290428
C	 -3.816294	 1.776683	 -1.337625
H	 -1.704406	 1.543627	 -1.636288
H	 -2.639770	 0.156251	 -2.108032
H	 -3.744306	 2.577824	 -0.609593
H	 -3.994337	 2.226705	 -2.307575
H	 -4.686599	 1.180163	 -1.085086
H	 4.145311	 -1.294584	 -0.871587
H	 4.970080	 0.004978	 -0.000091
H	 4.145223	 -1.291980	 0.874988

	symmetry c1
}
set optking {
	frozen_dihedral = ("
		15 11 8 12
	")
}

ee,wfn = optimize('scf', return_wfn=True)
oeprop( wfn, 'DIPOLE', 'QUADRUPOLE', 'MULLIKEN_CHARGES')
f=open( 'psi4out.xyz', 'w' )
f.write( "25  " )
f.write( str(ee) + "\n" )
f.write( MOL.save_string_xyz() )
f.close()
--------------------------------------------------------------------------

    Molecular point group: c1
  Charge       = 0
  Multiplicity = 1
  Basis Set: CC-PVTZ
  Basis Set:
  @DF-RHF Final Energy:  -387.27252488000585
    Total Energy =                       -387.2725248800056761
    Molecular point group: c1
  Basis Set: CC-PVTZ
  Basis Set:
  Basis Set: CC-PVTZ
  Basis Set:
  @DF-RHF Final Energy:  -387.27267382513730
    Total Energy =                       -387.2726738251374172
  Basis Set: CC-PVTZ
  Basis Set:
  Basis Set: CC-PVTZ
  Basis Set:
  @DF-RHF Final Energy:  -387.27274538966913
    Total Energy =                       -387.2727453896695806
  Basis Set: CC-PVTZ
  Basis Set:
  Basis Set: CC-PVTZ
  Basis Set:
  @DF-RHF Final Energy:  -387.27253426357936
    Total Energy =                       -387.2725342635789048
  Basis Set: CC-PVTZ
  Basis Set:
  Basis Set: CC-PVTZ
  Basis Set:
  @DF-RHF Final Energy:  -387.27275089946073
    Total Energy =                       -387.2727508994605614
  Basis Set: CC-PVTZ
  Basis Set:
  Charge       = 0
  Multiplicity = 1
  Basis Set: CC-PVTZ
  Basis Set:

    Orbital Energies (a.u.)
    -----------------------

    Doubly Occupied:

       1A    -20.538980     2A    -11.320600     3A    -11.230140
       4A    -11.226632     5A    -11.215375     6A    -11.214396
       7A    -11.212215     8A    -11.211593     9A    -11.205465
      10A     -1.398996    11A     -1.094934    12A     -1.056213
      13A     -1.014507    14A     -0.969874    15A     -0.890087
      16A     -0.826954    17A     -0.780134    18A     -0.731939
      19A     -0.655882    20A     -0.652299    21A     -0.638395
      22A     -0.621322    23A     -0.604804    24A     -0.581463
      25A     -0.568369    26A     -0.563118    27A     -0.547344
      28A     -0.523728    29A     -0.504443    30A     -0.497608
      31A     -0.490891    32A     -0.478689    33A     -0.462382
      34A     -0.458299    35A     -0.448253    36A     -0.401880

  @DF-RHF Final Energy:  -387.27275148774976

   => Energetics <=

    Nuclear Repulsion Energy =            444.7883203018758991
    One-Electron Energy =               -1406.4457326002343507
    Two-Electron Energy =                 574.3846608106085796
    DFT Exchange-Correlation Energy =       0.0000000000000000
    Empirical Dispersion Energy =           0.0000000000000000
    PCM Polarization Energy =               0.0000000000000000
    EFP Energy =                            0.0000000000000000
    Total Energy =                       -387.2727514877498152
    Molecular point group: c1
  Basis Set: CC-PVTZ
  Basis Set:

  -Total Gradient:
     Atom            X                  Y                   Z
    ------   -----------------  -----------------  -----------------
       1       -0.000013209037     0.000008267446    -0.000013178620
       2        0.000002153791    -0.000000739790     0.000043269831
       3       -0.000005180773    -0.000003420526    -0.000028819180
       4       -0.000005299791    -0.000013004111     0.000007057981
       5       -0.000015055911     0.000006151725    -0.000006612860
       6       -0.000003033504    -0.000000980290     0.000014307018
       7        0.000013822431     0.000001439368     0.000008274504
       8       -0.000598528775    -0.000936254890     0.000626318233
       9       -0.000000420526     0.000001551383     0.000004224417
      10       -0.000004306657     0.000003642894    -0.000004954444
      11       -0.000500078541    -0.000762590976     0.000886773950
      12        0.000582854961     0.000915273927    -0.000690931017
      13       -0.000000056589     0.000000745746     0.000000841014
      14        0.000023312452     0.000012281845     0.000016149111
      15        0.000531057307     0.000808291647    -0.000854592281
      16        0.000006433442    -0.000002303954    -0.000000610579
      17       -0.000008342376    -0.000016469715     0.000000181143
      18       -0.000020863754    -0.000015021012     0.000005517677
      19        0.000003861018     0.000001629064     0.000000949356
      20        0.000001380783    -0.000008638367    -0.000004938902
      21        0.000003679785    -0.000014031523     0.000011352829
      22        0.000012005552     0.000017493883    -0.000003949194
      23        0.000004551387     0.000001422881    -0.000006109421
      24       -0.000014270314     0.000002129761    -0.000001589854
      25        0.000003533639    -0.000006866417    -0.000008930712

  **** Optimization is complete! (in 6 steps) ****
    Final optimized geometry and variables:
    Molecular point group: c1

    Geometry (in Angstrom), charge = 0, multiplicity = 1:

    O            2.675849344879     1.007802779237     0.299058556628
    C            2.636219451801    -0.179002369671     0.305910094456
    C            1.329773278245    -0.946495306341     0.294728464502
    C            3.899614026378    -1.009563931541     0.325374576149
    C            0.084613508090    -0.070836501514     0.286570574579
    H            1.344522992265    -1.603607095994    -0.571934699170
    H            1.330718129266    -1.608305558443     1.157860448743
    C           -1.203374100424    -0.893335871243     0.278426510559
    H            0.123603452738     0.584796024953    -0.573910556925
    H            0.099505237462     0.575413496944     1.157026311256
    C           -2.482610746481    -0.052850213575     0.291347793151
    H           -1.209281795057    -1.538874588416    -0.597156314890
    H           -1.204856808488    -1.549763543568     1.144242602520
    C           -2.814242137171     0.616209862792    -1.041964419913
    H           -2.399856789623     0.712936172076     1.058784022094
    H           -3.317547974205    -0.686238658371     0.576874107243
    C           -4.106711373668     1.424586935854    -0.992244086949
    H           -2.000680366294     1.267455185173    -1.343395062032
    H           -2.897119984977    -0.146663377124    -1.811699518441
    H           -4.043194118299     2.218352474432    -0.255428055245
    H           -4.321381881386     1.881306371713    -1.951536261184
    H           -4.951531961841     0.797071033947    -0.728054025950
    H            3.933105270931    -1.659790535340    -0.541873894195
    H            4.763257529987    -0.362601798084     0.328055672580
    H            3.916155345228    -1.644138421395     1.204609588074

  Mulliken Charges: (a.u.)
   Center  Symbol    Alpha    Beta     Spin     Total
       1     O     4.17083  4.17083  0.00000 -0.34166
       2     C     2.86183  2.86183  0.00000  0.27634
       3     C     3.11449  3.11449  0.00000 -0.22897
       4     C     3.15114  3.15114  0.00000 -0.30229
       5     C     3.08341  3.08341  0.00000 -0.16682
       6     H     0.44514  0.44514  0.00000  0.10972
       7     H     0.44485  0.44485  0.00000  0.11031
       8     C     3.10032  3.10032  0.00000 -0.20064
       9     H     0.44472  0.44472  0.00000  0.11057
      10     H     0.44627  0.44627  0.00000  0.10746
      11     C     3.09523  3.09523  0.00000 -0.19045
      12     H     0.45569  0.45569  0.00000  0.08863
      13     H     0.44860  0.44860  0.00000  0.10279
      14     C     3.08344  3.08344  0.00000 -0.16688
      15     H     0.45389  0.45389  0.00000  0.09223
      16     H     0.44818  0.44818  0.00000  0.10364
      17     C     3.15023  3.15023  0.00000 -0.30046
      18     H     0.45196  0.45196  0.00000  0.09607
      19     H     0.45583  0.45583  0.00000  0.08833
      20     H     0.45416  0.45416  0.00000  0.09168
      21     H     0.44833  0.44833  0.00000  0.10333
      22     H     0.45531  0.45531  0.00000  0.08939
      23     H     0.45047  0.45047  0.00000  0.09905
      24     H     0.43537  0.43537  0.00000  0.12925
      25     H     0.45031  0.45031  0.00000  0.09938

   Total alpha = 36.00000, Total beta = 36.00000, Total charge = -0.00000

*** Psi4 exiting successfully. Buy a developer a beer!
