  ==> Input File <==

--------------------------------------------------------------------------
set {
	reference rhf
	basis 6-31G*
}

set_num_threads( 1 )
memory 2 gb

molecule MOL {
0 1

H	 2.591676	 2.013956	 0.335017
O	 3.341076	 1.666752	 -0.126416
C	 3.569581	 0.339145	 0.272707
C	 4.764651	 -0.301060	 -0.424913
H	 3.747500	 0.379072	 1.339677
H	 2.676510	 -0.264826	 0.116429
C	 4.595404	 -0.449409	 -1.938919
H	 5.647966	 0.295838	 -0.213172
H	 4.930616	 -1.281594	 0.018230
C	 5.788113	 -1.144092	 -2.602002
H	 4.456412	 0.533390	 -2.380680
H	 3.689315	 -1.018312	 -2.147950
C	 5.632442	 -1.394769	 -4.106418
H	 6.687535	 -0.556726	 -2.426248
H	 5.949824	 -2.100204	 -2.108646
C	 5.589615	 -0.130658	 -4.969360
H	 6.464464	 -2.012636	 -4.437773
H	 4.732207	 -1.981877	 -4.281684
C	 5.540016	 -0.433625	 -6.468422
H	 6.466115	 0.479534	 -4.755996
H	 4.725605	 0.474102	 -4.704684
C	 5.490726	 0.826420	 -7.331858
H	 6.409443	 -1.026254	 -6.744783
H	 4.670172	 -1.051378	 -6.682050
H	 6.364315	 1.450339	 -7.165149
H	 5.458270	 0.578754	 -8.388382
H	 4.611672	 1.423325	 -7.105291

	symmetry c1
}
set optking {
	frozen_dihedral = ("
		14 10 7 4,
		14 10 13 16,
		10 7 4 8,
		8 4 3 2,
		10 13 16 20,
		20 16 19 22
	")
}

ee = energy('scf')
oeprop('DIPOLE', 'QUADRUPOLE', 'MULLIKEN_CHARGES')
f=open( 'psi4out.xyz', 'w' )
f.write( "27  " )
f.write( str(ee) + "\n" )
f.write( MOL.save_string_xyz() )
f.close()
--------------------------------------------------------------------------

    Molecular point group: c1

    Geometry (in Angstrom), charge = 0, multiplicity = 1:

       Center              X                  Y                   Z               Mass
    ------------   -----------------  -----------------  -----------------  -----------------
           H         -2.296087623580     2.085352204460     3.370834488683     1.007825032070
           O         -1.546687623580     1.738148204460     2.909401488683    15.994914619560
           C         -1.318182623580     0.410541204460     3.308524488683    12.000000000000
           C         -0.123112623580    -0.229663795540     2.610904488683    12.000000000000
           H         -1.140263623580     0.450468204460     4.375494488683     1.007825032070
           H         -2.211253623580    -0.193429795540     3.152246488683     1.007825032070
           C         -0.292359623580    -0.378012795540     1.096898488683    12.000000000000
           H          0.760202376420     0.367234204460     2.822645488683     1.007825032070
           H          0.042852376420    -1.210197795540     3.054047488683     1.007825032070
           C          0.900349376420    -1.072695795540     0.433815488683    12.000000000000
           H         -0.431351623580     0.604786204460     0.655137488683     1.007825032070
           H         -1.198448623580    -0.946915795540     0.887867488683     1.007825032070
           C          0.744678376420    -1.323372795540    -1.070600511317    12.000000000000
           H          1.799771376420    -0.485329795540     0.609569488683     1.007825032070
           H          1.062060376420    -2.028807795540     0.927171488683     1.007825032070
           C          0.701851376420    -0.059261795540    -1.933542511317    12.000000000000
           H          1.576700376420    -1.941239795540    -1.401955511317     1.007825032070
           H         -0.155556623580    -1.910480795540    -1.245866511317     1.007825032070
           C          0.652252376420    -0.362228795540    -3.432604511317    12.000000000000
           H          1.578351376420     0.550930204460    -1.720178511317     1.007825032070
           H         -0.162158623580     0.545498204460    -1.668866511317     1.007825032070
           C          0.602962376420     0.897816204460    -4.296040511317    12.000000000000
           H          1.521679376420    -0.954857795540    -3.708965511317     1.007825032070
           H         -0.217591623580    -0.979981795540    -3.646232511317     1.007825032070
           H          1.476551376420     1.521735204460    -4.129331511317     1.007825032070
           H          0.570506376420     0.650150204460    -5.352564511317     1.007825032070
           H         -0.276091623580     1.494721204460    -4.069473511317     1.007825032070

  Charge       = 0
  Multiplicity = 1
  Basis Set: 6-31G*
  Basis Set:

    Orbital Energies (a.u.)
    -----------------------

    Doubly Occupied:

       1A    -20.550366     2A    -11.267432     3A    -11.215431
       4A    -11.210962     5A    -11.209980     6A    -11.209398
       7A    -11.207895     8A    -11.207783     9A    -11.204824
      10A     -1.357965    11A     -1.088540    12A     -1.056479
      13A     -1.007858    14A     -0.942990    15A     -0.879815
      16A     -0.812058    17A     -0.794821    18A     -0.770998
      19A     -0.701064    20A     -0.644170    21A     -0.638639
      22A     -0.617489    23A     -0.587975    24A     -0.578922
      25A     -0.572563    26A     -0.546340    27A     -0.538508
      28A     -0.516143    29A     -0.506836    30A     -0.492446
      31A     -0.475980    32A     -0.473048    33A     -0.459515
      34A     -0.453585    35A     -0.439649    36A     -0.439129
      37A     -0.422934

  @DF-RHF Final Energy:  -388.28041958699674

   => Energetics <=

    Nuclear Repulsion Energy =            458.3491121629744498
    One-Electron Energy =               -1435.0579263919164532
    Two-Electron Energy =                 588.4283946419440099
    DFT Exchange-Correlation Energy =       0.0000000000000000
    Empirical Dispersion Energy =           0.0000000000000000
    PCM Polarization Energy =               0.0000000000000000
    EFP Energy =                            0.0000000000000000
    Total Energy =                       -388.2804195869979367

  Mulliken Charges: (a.u.)
   Center  Symbol    Alpha    Beta     Spin     Total
       1     H     0.28014  0.28014  0.00000  0.43971
       2     O     4.37225  4.37225  0.00000 -0.74451
       3     C     2.99320  2.99320  0.00000  0.01361
       4     C     3.16160  3.16160  0.00000 -0.32320
       5     H     0.43038  0.43038  0.00000  0.13923
       6     H     0.43346  0.43346  0.00000  0.13309
       7     C     3.15665  3.15665  0.00000 -0.31331
       8     H     0.41511  0.41511  0.00000  0.16977
       9     H     0.42233  0.42233  0.00000  0.15534
      10     C     3.15353  3.15353  0.00000 -0.30705
      11     H     0.40704  0.40704  0.00000  0.18593
      12     H     0.42692  0.42692  0.00000  0.14617
      13     C     3.15271  3.15271  0.00000 -0.30543
      14     H     0.42341  0.42341  0.00000  0.15317
      15     H     0.42456  0.42456  0.00000  0.15088
      16     C     3.15295  3.15295  0.00000 -0.30591
      17     H     0.42282  0.42282  0.00000  0.15437
      18     H     0.42469  0.42469  0.00000  0.15062
      19     C     3.15102  3.15102  0.00000 -0.30205
      20     H     0.42440  0.42440  0.00000  0.15120
      21     H     0.42042  0.42042  0.00000  0.15917
      22     C     3.23904  3.23904  0.00000 -0.47809
      23     H     0.42388  0.42388  0.00000  0.15224
      24     H     0.42369  0.42369  0.00000  0.15261
      25     H     0.42190  0.42190  0.00000  0.15620
      26     H     0.42025  0.42025  0.00000  0.15951
      27     H     0.42163  0.42163  0.00000  0.15673

   Total alpha = 37.00000, Total beta = 37.00000, Total charge = -0.00000
