                              Psi4 1.0.54 Driver

  ==> Input File <==

--------------------------------------------------------------------------
set {
	reference rhf
	basis cc-pvtz
}

set_num_threads( 4 )
memory 2 gb

molecule MOL {
0 1

H	 -0.192577	 -0.324408	 -2.191714
C	 0.156161	 0.655575	 -1.838367
C	 0.062554	 0.862911	 -0.350953
O	 0.571811	 1.449008	 -2.609634
C	 -1.339253	 0.577611	 0.196911
H	 0.380426	 1.872103	 -0.122954
H	 0.771706	 0.176091	 0.105616
C	 -1.813142	 -0.849710	 -0.061612
H	 -2.032833	 1.276441	 -0.256032
H	 -1.357249	 0.782269	 1.263793
H	 -1.839268	 -1.063526	 -1.124230
H	 -2.810118	 -1.001930	 0.334000
H	 -1.159274	 -1.579980	 0.402282

	symmetry c1
}
set optking {
	frozen_dihedral = ("
		6 3 5 9
	")
}

ee,wfn = optimize('scf', return_wfn=True)
oeprop( wfn, 'DIPOLE', 'QUADRUPOLE', 'MULLIKEN_CHARGES')
f=open( 'psi4out.xyz', 'w' )
f.write( "13  " )
f.write( str(ee) + "\n" )
f.write( MOL.save_string_xyz() )
f.close()
--------------------------------------------------------------------------

    Molecular point group: c1
  Charge       = 0
  Multiplicity = 1
  Basis Set: CC-PVTZ
  Basis Set:
  @DF-RHF Final Energy:  -231.06765500171156
    Total Energy =                       -231.0676550017114437
    Molecular point group: c1
  Basis Set: CC-PVTZ
  Basis Set:
  Basis Set: CC-PVTZ
  Basis Set:
  @DF-RHF Final Energy:  -231.06796424741310
    Total Energy =                       -231.0679642474131583
  Basis Set: CC-PVTZ
  Basis Set:
  Basis Set: CC-PVTZ
  Basis Set:
  @DF-RHF Final Energy:  -231.06876477751038
    Total Energy =                       -231.0687647775102391
  Basis Set: CC-PVTZ
  Basis Set:
  Basis Set: CC-PVTZ
  Basis Set:
  @DF-RHF Final Energy:  -231.06871553362782
    Total Energy =                       -231.0687155336278238
  Basis Set: CC-PVTZ
  Basis Set:
  @DF-RHF Final Energy:  -231.06888519038634
    Total Energy =                       -231.0688851903863963
  @DF-RHF Final Energy:  -231.06896579629444
    Total Energy =                       -231.0689657962945205
  @DF-RHF Final Energy:  -231.06899053635328
    Total Energy =                       -231.0689905363532546
  @DF-RHF Final Energy:  -231.06899781184711
    Total Energy =                       -231.0689978118471686
  Basis Set: CC-PVTZ
  Basis Set:
  @DF-RHF Final Energy:  -231.06900297163901
    Total Energy =                       -231.0690029716389233
  Basis Set: CC-PVTZ
  Basis Set:
  Basis Set: CC-PVTZ
  Basis Set:
  @DF-RHF Final Energy:  -231.06901507648138
    Total Energy =                       -231.0690150764813779
  Basis Set: CC-PVTZ
  Basis Set:
  Basis Set: CC-PVTZ
  Basis Set:
  @DF-RHF Final Energy:  -231.06902885197914
    Total Energy =                       -231.0690288519790556
  Basis Set: CC-PVTZ
  Basis Set:
  Charge       = 0
  Multiplicity = 1
  Basis Set: CC-PVTZ
  Basis Set:

    Orbital Energies (a.u.)
    -----------------------

    Doubly Occupied:

       1A    -20.552182     2A    -11.320702     3A    -11.237304
       4A    -11.234307     5A    -11.223426     6A     -1.406508
       7A     -1.086468     8A     -0.974537     9A     -0.855489
      10A     -0.780682    11A     -0.682876    12A     -0.648842
      13A     -0.607731    14A     -0.603926    15A     -0.571306
      16A     -0.535611    17A     -0.508411    18A     -0.495552
      19A     -0.483531    20A     -0.411065

  @DF-RHF Final Energy:  -231.06902938425407

   => Energetics <=

    Nuclear Repulsion Energy =            173.4135943307384764
    One-Electron Energy =                -656.5243380874981085
    Two-Electron Energy =                 252.0417143725055382
    DFT Exchange-Correlation Energy =       0.0000000000000000
    Empirical Dispersion Energy =           0.0000000000000000
    PCM Polarization Energy =               0.0000000000000000
    EFP Energy =                            0.0000000000000000
    Total Energy =                       -231.0690293842540939
    Molecular point group: c1
  Basis Set: CC-PVTZ
  Basis Set:

  -Total Gradient:
     Atom            X                  Y                   Z
    ------   -----------------  -----------------  -----------------
       1       -0.000006645344    -0.000030033938    -0.000015960751
       2        0.000011808321     0.000051726177     0.000004779018
       3        0.000280023757    -0.000086819944     0.000527922060
       4       -0.000004423506    -0.000027479322    -0.000014146230
       5       -0.000166056775    -0.000322867826    -0.000472341757
       6       -0.000189449159     0.000132930015    -0.000344419336
       7       -0.000005956194    -0.000007137468    -0.000004465018
       8        0.000017608267     0.000011672070    -0.000000311286
       9        0.000068563963     0.000282709787     0.000315089117
      10        0.000000690402    -0.000004113285     0.000002225239
      11       -0.000004383545    -0.000004970467    -0.000006122859
      12       -0.000004607785     0.000008304097     0.000006169390
      13        0.000002827598    -0.000003919896     0.000001582411

  **** Optimization is complete! (in 12 steps) ****
    Final optimized geometry and variables:
    Molecular point group: c1

    Geometry (in Angstrom), charge = 0, multiplicity = 1:

    H            0.631441399714    -0.914719254559    -1.290633651183
    C            0.700238011311     0.113541311338    -0.918272082572
    C            0.610921443621     0.285596164876     0.574972044438
    O            0.832637362031     1.007160171427    -1.682316975849
    C           -0.798653271180     0.025249826749     1.127968295510
    H            0.917321219662     1.297130472638     0.805089170238
    H            1.313695768840    -0.402425487501     1.038292019633
    C           -1.308103544959    -1.402274439290     0.943863468261
    H           -1.490376349269     0.725701935168     0.671853239361
    H           -0.782965389296     0.260272622739     2.186161259343
    H           -1.435305627055    -1.659811858793    -0.100983183012
    H           -2.270404574193    -1.525092849951     1.425737835757
    H           -0.624924132798    -2.121883774163     1.382743412450

  Mulliken Charges: (a.u.)
   Center  Symbol    Alpha    Beta     Spin     Total
       1     H     0.46188  0.46188  0.00000  0.07623
       2     C     2.90541  2.90541  0.00000  0.18918
       3     C     3.08903  3.08903  0.00000 -0.17806
       4     O     4.16570  4.16570  0.00000 -0.33139
       5     C     3.09609  3.09609  0.00000 -0.19219
       6     H     0.43823  0.43823  0.00000  0.12354
       7     H     0.45103  0.45103  0.00000  0.09793
       8     C     3.15263  3.15263  0.00000 -0.30525
       9     H     0.44512  0.44512  0.00000  0.10977
      10     H     0.44581  0.44581  0.00000  0.10838
      11     H     0.45233  0.45233  0.00000  0.09534
      12     H     0.44338  0.44338  0.00000  0.11324
      13     H     0.45336  0.45336  0.00000  0.09328

   Total alpha = 20.00000, Total beta = 20.00000, Total charge = -0.00000

*** Psi4 exiting successfully. Buy a developer a beer!
