  ==> Input File <==

--------------------------------------------------------------------------
set {
	reference rhf
	basis 6-31G*
}

set_num_threads( 4 )
memory 2 gb

molecule MOL {
0 1

H	 -2.465822	 -2.002325	 1.173260
C	 -1.923175	 -1.215362	 0.683771
C	 -2.587726	 -0.151779	 0.097163
C	 -0.546282	 -1.254673	 0.633066
H	 -3.661370	 -0.102878	 0.126151
C	 -1.876363	 0.854210	 -0.529477
H	 -0.002909	 -2.062540	 1.076770
C	 0.154804	 -0.237046	 -0.000077
H	 -2.410467	 1.671039	 -0.978497
C	 -0.484873	 0.851415	 -0.602651
N	 1.611208	 -0.370857	 -0.000034
C	 0.190348	 2.004019	 -1.312940
O	 2.274126	 0.622059	 -0.008063
O	 2.068510	 -1.474748	 0.007823
H	 0.775902	 1.663385	 -2.155689
H	 -0.565753	 2.691608	 -1.670582
H	 0.861487	 2.538303	 -0.654734

	symmetry c1
}
set optking {
	frozen_dihedral = ("
		4 8 11 13
	")
}

ee = optimize('scf')
oeprop('DIPOLE', 'QUADRUPOLE', 'MULLIKEN_CHARGES')
f=open( 'psi4out.xyz', 'w' )
f.write( "17  " )
f.write( str(ee) + "\n" )
f.write( MOL.save_string_xyz() )
f.close()
--------------------------------------------------------------------------

    Molecular point group: c1
  Charge       = 0
  Multiplicity = 1
  Basis Set: 6-31G*
  Basis Set:
  @DF-RHF Final Energy:  -473.20586791334938
    Total Energy =                       -473.2058679133488113
    Molecular point group: c1
  Basis Set: 6-31G*
  Basis Set:
  Basis Set: 6-31G*
  Basis Set:
  @DF-RHF Final Energy:  -473.20031174423343
    Total Energy =                       -473.2003117442341136
  Basis Set: 6-31G*
  Basis Set:
  Basis Set: 6-31G*
  Basis Set:
  @DF-RHF Final Energy:  -473.20642020995280
    Total Energy =                       -473.2064202099534214
  Basis Set: 6-31G*
  Basis Set:
  Basis Set: 6-31G*
  Basis Set:
  @DF-RHF Final Energy:  -473.20669760268959
    Total Energy =                       -473.2066976026891325
  Basis Set: 6-31G*
  Basis Set:
  Basis Set: 6-31G*
  Basis Set:
  @DF-RHF Final Energy:  -473.20672096459651
    Total Energy =                       -473.2067209645965704
  Basis Set: 6-31G*
  Basis Set:
  Basis Set: 6-31G*
  Basis Set:
  @DF-RHF Final Energy:  -473.20672274128452
    Total Energy =                       -473.2067227412841248
  Basis Set: 6-31G*
  Basis Set:
  Charge       = 0
  Multiplicity = 1
  Basis Set: 6-31G*
  Basis Set:

    Orbital Energies (a.u.)
    -----------------------

    Doubly Occupied:

       1A    -20.600129     2A    -20.598592     3A    -15.852834
       4A    -11.300677     5A    -11.281549     6A    -11.266623
       7A    -11.263374     8A    -11.254367     9A    -11.253523
      10A    -11.234490    11A     -1.632417    12A     -1.415039
      13A     -1.200323    14A     -1.091781    15A     -1.072031
      16A     -0.979719    17A     -0.931818    18A     -0.848341
      19A     -0.821885    20A     -0.769318    21A     -0.732345
      22A     -0.726069    23A     -0.693613    24A     -0.660838
      25A     -0.637389    26A     -0.598595    27A     -0.591626
      28A     -0.564486    29A     -0.540791    30A     -0.520795
      31A     -0.519760    32A     -0.486180    33A     -0.479769
      34A     -0.447770    35A     -0.368274    36A     -0.353493

  @DF-RHF Final Energy:  -473.20672290078994

   => Energetics <=

    Nuclear Repulsion Energy =            509.9652548262708933
    One-Electron Energy =               -1655.1627103987309511
    Two-Electron Energy =                 671.9907326716704574
    DFT Exchange-Correlation Energy =       0.0000000000000000
    Empirical Dispersion Energy =           0.0000000000000000
    PCM Polarization Energy =               0.0000000000000000
    EFP Energy =                            0.0000000000000000
    Total Energy =                       -473.2067229007896003
    Molecular point group: c1
  Basis Set: 6-31G*
  Basis Set:

  -Total Gradient:
     Atom            X                  Y                   Z
    ------   -----------------  -----------------  -----------------
       1        0.000000933256     0.000000207431     0.000002556392
       2       -0.000035148989     0.000021882806    -0.000005921501
       3       -0.000005353305    -0.000041324972     0.000016495658
       4        0.000071879361     0.000326324312     0.000489930156
       5       -0.000000445211     0.000000692269     0.000001129554
       6        0.000039461974     0.000023623429     0.000003829381
       7        0.000003709176    -0.000005264804     0.000003487961
       8       -0.000055976900    -0.000466282428    -0.000431312284
       9       -0.000001508806    -0.000002356407    -0.000000641768
      10       -0.000029414770    -0.000000343908    -0.000025225079
      11        0.000009343793     0.000153405333    -0.000765876660
      12        0.000007792173    -0.000012030348    -0.000011638181
      13        0.000003763872    -0.000011728939     0.000712414531
      14       -0.000009725564    -0.000001500378    -0.000000907117
      15       -0.000004727024     0.000003998691     0.000004619055
      16        0.000002890875     0.000004159691     0.000002115961
      17        0.000002526081     0.000006538218     0.000004943943

  **** Optimization is complete! (in 7 steps) ****
    Final optimized geometry and variables:
    Molecular point group: c1

    Geometry (in Angstrom), charge = 0, multiplicity = 1:

    H           -2.453785838867    -1.972557877117     1.303568560929
    C           -1.912834377146    -1.186606932938     0.810503343196
    C           -2.579405771369    -0.110251676375     0.249385587123
    C           -0.536953028860    -1.242607974883     0.725166954731
    H           -3.651792839121    -0.054431341024     0.300535344179
    C           -1.873946368115     0.896314775440    -0.385344357193
    H            0.010908729481    -2.066198218995     1.136457453065
    C            0.152028984527    -0.215702820523     0.100133466809
    H           -2.410150192258     1.716497149111    -0.826499968676
    C           -0.484565155819     0.884680849736    -0.473135938429
    N            1.606766277866    -0.338116627880     0.085987369524
    C            0.214284344020     2.020274293951    -1.186629128230
    O            2.255899398813     0.664103122138     0.084168842392
    O            2.067729843104    -1.440119984130     0.098337053939
    H            0.961725804058     1.662847840042    -1.882002949557
    H           -0.515343282098     2.601535719542    -1.736380535615
    H            0.716834701792     2.670428718140    -0.482776650858

  Mulliken Charges: (a.u.)
   Center  Symbol    Alpha    Beta     Spin     Total
       1     H     0.38944  0.38944  0.00000  0.22113
       2     C     3.11231  3.11231  0.00000 -0.22462
       3     C     3.08198  3.08198  0.00000 -0.16397
       4     C     3.08311  3.08311  0.00000 -0.16622
       5     H     0.38982  0.38982  0.00000  0.22037
       6     C     3.12454  3.12454  0.00000 -0.24908
       7     H     0.36672  0.36672  0.00000  0.26656
       8     C     2.92812  2.92812  0.00000  0.14375
       9     H     0.39272  0.39272  0.00000  0.21457
      10     C     2.96372  2.96372  0.00000  0.07256
      11     N     3.25497  3.25497  0.00000  0.49006
      12     C     3.24015  3.24015  0.00000 -0.48031
      13     O     4.23149  4.23149  0.00000 -0.46297
      14     O     4.23111  4.23111  0.00000 -0.46221
      15     H     0.40188  0.40188  0.00000  0.19625
      16     H     0.41392  0.41392  0.00000  0.17216
      17     H     0.39401  0.39401  0.00000  0.21197

   Total alpha = 36.00000, Total beta = 36.00000, Total charge =  0.00000
