                              Psi4 1.0.54 Driver

  ==> Input File <==

--------------------------------------------------------------------------
set {
	reference rhf
	basis cc-pvtz
}

set_num_threads( 4 )
memory 2 gb

molecule MOL {
0 1

O	 1.216069	 1.304886	 0.000821
C	 1.121787	 0.124983	 0.000110
C	 -0.170912	 -0.649867	 -0.000147
O	 2.167739	 -0.685178	 -0.000678
C	 -1.413045	 0.229353	 0.001137
H	 -0.152877	 -1.303435	 -0.866175
H	 -0.152278	 -1.305116	 0.864586
C	 -1.935340	 0.499559	 -1.406878
H	 -1.187207	 1.167565	 0.495398
H	 -2.186536	 -0.244309	 0.595191
C	 -3.178917	 1.381771	 -1.417387
H	 -1.154865	 0.971134	 -1.998245
H	 -2.159708	 -0.444131	 -1.897128
H	 -2.977164	 2.346570	 -0.964569
H	 -3.526979	 1.556740	 -2.428780
H	 -3.989331	 0.921015	 -0.862849
C	 3.449556	 -0.089977	 -0.000570
H	 3.585694	 0.522473	 -0.879546
H	 4.155805	 -0.904274	 -0.001389
H	 3.586173	 0.521118	 0.879272

	symmetry c1
}
set optking {
	frozen_dihedral = ("
		9 5 3 6
	")
}

ee,wfn = optimize('scf', return_wfn=True)
oeprop( wfn, 'DIPOLE', 'QUADRUPOLE', 'MULLIKEN_CHARGES')
f=open( 'psi4out.xyz', 'w' )
f.write( "20  " )
f.write( str(ee) + "\n" )
f.write( MOL.save_string_xyz() )
f.close()
--------------------------------------------------------------------------

    Molecular point group: c1
  Charge       = 0
  Multiplicity = 1
  Basis Set: CC-PVTZ
  Basis Set:
  @DF-RHF Final Energy:  -384.08076364831675
    Total Energy =                       -384.0807636483167471
    Molecular point group: c1
  Basis Set: CC-PVTZ
  Basis Set:
  Basis Set: CC-PVTZ
  Basis Set:
  @DF-RHF Final Energy:  -384.08108710053227
    Total Energy =                       -384.0810871005320450
  Basis Set: CC-PVTZ
  Basis Set:
  Basis Set: CC-PVTZ
  Basis Set:
  @DF-RHF Final Energy:  -384.08109654483076
    Total Energy =                       -384.0810965448304160
  Basis Set: CC-PVTZ
  Basis Set:
  Basis Set: CC-PVTZ
  Basis Set:
  @DF-RHF Final Energy:  -384.08101671811255
    Total Energy =                       -384.0810167181125507
  Basis Set: CC-PVTZ
  Basis Set:
  Basis Set: CC-PVTZ
  Basis Set:
  @DF-RHF Final Energy:  -384.08113919620138
    Total Energy =                       -384.0811391962013204
  Basis Set: CC-PVTZ
  Basis Set:
  Basis Set: CC-PVTZ
  Basis Set:
  @DF-RHF Final Energy:  -384.08114032103470
    Total Energy =                       -384.0811403210351500
  Basis Set: CC-PVTZ
  Basis Set:
  Charge       = 0
  Multiplicity = 1
  Basis Set: CC-PVTZ
  Basis Set:

    Orbital Energies (a.u.)
    -----------------------

    Doubly Occupied:

       1A    -20.597029     2A    -20.535195     3A    -11.365498
       4A    -11.279060     5A    -11.234143     6A    -11.216510
       7A    -11.213871     8A    -11.205549     9A     -1.473154
      10A     -1.366667    11A     -1.087625    12A     -1.023617
      13A     -0.969158    14A     -0.885065    15A     -0.804884
      16A     -0.768489    17A     -0.704517    18A     -0.684296
      19A     -0.676445    20A     -0.631795    21A     -0.608498
      22A     -0.588934    23A     -0.579870    24A     -0.546382
      25A     -0.531567    26A     -0.516134    27A     -0.514707
      28A     -0.476705    29A     -0.471356    30A     -0.462785
      31A     -0.459490    32A     -0.441677

  @DF-RHF Final Energy:  -384.08114093711868

   => Energetics <=

    Nuclear Repulsion Energy =            387.3340997375968300
    One-Electron Energy =               -1290.9891309607364747
    Two-Electron Energy =                 519.5738902860213102
    DFT Exchange-Correlation Energy =       0.0000000000000000
    Empirical Dispersion Energy =           0.0000000000000000
    PCM Polarization Energy =               0.0000000000000000
    EFP Energy =                            0.0000000000000000
    Total Energy =                       -384.0811409371183345
    Molecular point group: c1
  Basis Set: CC-PVTZ
  Basis Set:

  -Total Gradient:
     Atom            X                  Y                   Z
    ------   -----------------  -----------------  -----------------
       1       -0.000003060630     0.000003031584     0.000072865914
       2       -0.000002770031     0.000052650153    -0.000115407469
       3       -0.001852152785    -0.002644781016     0.001461756320
       4        0.000027055921    -0.000024886601     0.000026935976
       5       -0.000665399023    -0.000971755698     0.003152784830
       6        0.001614428228     0.002336722687    -0.001725441344
       7       -0.000022155194    -0.000014383631     0.000022911246
       8       -0.000008169025    -0.000043561165    -0.000022717967
       9        0.000898582023     0.001263590308    -0.002897087670
      10        0.000012608692     0.000032582505     0.000017333885
      11        0.000001136997     0.000008093799     0.000002307492
      12        0.000001022815    -0.000003174923    -0.000003997672
      13       -0.000001978958     0.000003008245     0.000000668634
      14       -0.000001142803     0.000002360481     0.000001934039
      15       -0.000000411715     0.000003528939    -0.000000398763
      16        0.000004589137    -0.000003974701    -0.000001958099
      17       -0.000021529340    -0.000006566915     0.000008575750
      18       -0.000000452869     0.000012203474    -0.000021581456
      19        0.000016186739    -0.000019250815     0.000001422299
      20        0.000003611821     0.000014563282     0.000019094057

  **** Optimization is complete! (in 7 steps) ****
    Final optimized geometry and variables:
    Molecular point group: c1

    Geometry (in Angstrom), charge = 0, multiplicity = 1:

    O            1.010643045282     1.037850358515     0.299051171551
    C            0.926912219083    -0.142120262606     0.346377758850
    C           -0.356817374070    -0.936775589348     0.397513207588
    O            1.981064199557    -0.941092004859     0.358818553542
    C           -1.618867645674    -0.074662398163     0.378902214903
    H           -0.322057520787    -1.604758739964    -0.456653087068
    H           -0.303650903371    -1.562280164881     1.280347612701
    C           -2.129249415891     0.208552224624    -1.033358355631
    H           -1.406081276367     0.871747487786     0.858603958503
    H           -2.397616418289    -0.568424369800     0.949791377129
    C           -3.360023822615     1.107749475181    -1.047814748874
    H           -1.336730749436     0.674372257582    -1.610805901107
    H           -2.362811736155    -0.731171740824    -1.527371273430
    H           -3.144210801373     2.070137653370    -0.596849149470
    H           -3.703315814329     1.286068145301    -2.060281663497
    H           -4.179359115549     0.659687449621    -0.494928839269
    C            3.256763217582    -0.334512713836     0.312743706642
    H            3.371753270168     0.243225054479    -0.592399689844
    H            3.970897647187    -1.141698498727     0.332248904427
    H            3.402290833611     0.312697379072     1.164907631518

  Mulliken Charges: (a.u.)
   Center  Symbol    Alpha    Beta     Spin     Total
       1     O     4.19869  4.19869  0.00000 -0.39737
       2     C     2.80240  2.80240  0.00000  0.39520
       3     C     3.11078  3.11078  0.00000 -0.22156
       4     O     4.14649  4.14649  0.00000 -0.29297
       5     C     3.09386  3.09386  0.00000 -0.18771
       6     H     0.44010  0.44010  0.00000  0.11980
       7     H     0.43044  0.43044  0.00000  0.13911
       8     C     3.08217  3.08217  0.00000 -0.16434
       9     H     0.44256  0.44256  0.00000  0.11489
      10     H     0.44630  0.44630  0.00000  0.10740
      11     C     3.15138  3.15138  0.00000 -0.30276
      12     H     0.44999  0.44999  0.00000  0.10002
      13     H     0.45713  0.45713  0.00000  0.08574
      14     H     0.45165  0.45165  0.00000  0.09670
      15     H     0.44860  0.44860  0.00000  0.10279
      16     H     0.45660  0.45660  0.00000  0.08681
      17     C     3.03669  3.03669  0.00000 -0.07338
      18     H     0.45446  0.45446  0.00000  0.09109
      19     H     0.44544  0.44544  0.00000  0.10912
      20     H     0.45428  0.45428  0.00000  0.09144

   Total alpha = 32.00000, Total beta = 32.00000, Total charge =  0.00000

*** Psi4 exiting successfully. Buy a developer a beer!
