  ==> Input File <==

--------------------------------------------------------------------------
set {
	reference rhf
	basis 6-31G*
}

set_num_threads( 4 )
memory 2 gb

molecule MOL {
0 1

H	 2.395911	 -4.531722	 1.585838
O	 3.193254	 -4.354124	 1.108580
C	 2.901797	 -4.190043	 -0.256038
C	 2.200496	 -2.872327	 -0.566728
H	 3.855355	 -4.225942	 -0.767031
H	 2.307413	 -5.026441	 -0.621995
C	 0.815902	 -2.738524	 0.071914
H	 2.836478	 -2.056299	 -0.233574
H	 2.110160	 -2.783057	 -1.648040
C	 0.115918	 -1.429151	 -0.302766
H	 0.913314	 -2.801653	 1.152142
H	 0.192299	 -3.577803	 -0.236422
C	 -1.309753	 -1.282496	 0.241564
H	 0.719520	 -0.590125	 0.038624
H	 0.079591	 -1.354265	 -1.387557
C	 -2.037799	 -0.007733	 -0.193645
H	 -1.890610	 -2.142323	 -0.085726
H	 -1.285946	 -1.330893	 1.329189
C	 -3.489788	 0.042957	 0.286558
H	 -2.017067	 0.064384	 -1.280144
H	 -1.513726	 0.868678	 0.179924
C	 -4.216917	 1.317354	 -0.141063
H	 -4.025645	 -0.823308	 -0.095450
H	 -3.513059	 -0.038752	 1.371301
H	 -4.239342	 1.411634	 -1.223113
H	 -5.243387	 1.322503	 0.212445
H	 -3.726170	 2.201406	 0.256408

	symmetry c1
}
set optking {
	frozen_dihedral = ("
		14 10 13 16
	")
}

ee = optimize('scf')
oeprop('DIPOLE', 'QUADRUPOLE', 'MULLIKEN_CHARGES')
f=open( 'psi4out.xyz', 'w' )
f.write( "27  " )
f.write( str(ee) + "\n" )
f.write( MOL.save_string_xyz() )
f.close()
--------------------------------------------------------------------------

    Molecular point group: c1
  Charge       = 0
  Multiplicity = 1
  Basis Set: 6-31G*
  Basis Set:
  @DF-RHF Final Energy:  -388.28298956550020
    Total Energy =                       -388.2829895655007704
    Molecular point group: c1
  Basis Set: 6-31G*
  Basis Set:
  Basis Set: 6-31G*
  Basis Set:
  @DF-RHF Final Energy:  -388.28340014891478
    Total Energy =                       -388.2834001489156890
  Basis Set: 6-31G*
  Basis Set:
  Basis Set: 6-31G*
  Basis Set:
  @DF-RHF Final Energy:  -388.28343393536045
    Total Energy =                       -388.2834339353605628
  Basis Set: 6-31G*
  Basis Set:
  Basis Set: 6-31G*
  Basis Set:
  @DF-RHF Final Energy:  -388.28345075946612
    Total Energy =                       -388.2834507594660636
  Basis Set: 6-31G*
  Basis Set:
  Basis Set: 6-31G*
  Basis Set:
  @DF-RHF Final Energy:  -388.28345347701332
    Total Energy =                       -388.2834534770133814
  Basis Set: 6-31G*
  Basis Set:
  Charge       = 0
  Multiplicity = 1
  Basis Set: 6-31G*
  Basis Set:

    Orbital Energies (a.u.)
    -----------------------

    Doubly Occupied:

       1A    -20.552185     2A    -11.267036     3A    -11.220363
       4A    -11.217022     5A    -11.215742     6A    -11.215411
       7A    -11.215315     8A    -11.214068     9A    -11.209024
      10A     -1.358979    11A     -1.095178    12A     -1.062630
      13A     -1.012157    14A     -0.950474    15A     -0.882672
      16A     -0.820011    17A     -0.792489    18A     -0.789087
      19A     -0.694185    20A     -0.659842    21A     -0.633584
      22A     -0.614129    23A     -0.600950    24A     -0.587041
      25A     -0.574700    26A     -0.555614    27A     -0.535444
      28A     -0.522054    29A     -0.511437    30A     -0.492488
      31A     -0.481667    32A     -0.473918    33A     -0.468924
      34A     -0.462511    35A     -0.462091    36A     -0.442977
      37A     -0.420096

  @DF-RHF Final Energy:  -388.28345403513100

   => Energetics <=

    Nuclear Repulsion Energy =            451.2403477374577392
    One-Electron Energy =               -1420.4806085925879415
    Two-Electron Energy =                 580.9568068199998834
    DFT Exchange-Correlation Energy =       0.0000000000000000
    Empirical Dispersion Energy =           0.0000000000000000
    PCM Polarization Energy =               0.0000000000000000
    EFP Energy =                            0.0000000000000000
    Total Energy =                       -388.2834540351302621
    Molecular point group: c1
  Basis Set: 6-31G*
  Basis Set:

  -Total Gradient:
     Atom            X                  Y                   Z
    ------   -----------------  -----------------  -----------------
       1       -0.000009496570     0.000004212049     0.000006052408
       2        0.000000943575    -0.000013338492     0.000013276730
       3       -0.000038443940     0.000030240819     0.000031427802
       4       -0.000008707368     0.000073111957    -0.000034640027
       5       -0.000012263285     0.000019939161    -0.000001388960
       6        0.000002202083    -0.000001216378    -0.000003791625
       7       -0.000023626380     0.000006384607     0.000070446921
       8        0.000020963694     0.000002019561    -0.000017670121
       9       -0.000000082225    -0.000003443605    -0.000008310853
      10       -0.000139215089     0.000108750612    -0.000530648536
      11        0.000023072143    -0.000036283491    -0.000002086899
      12       -0.000041124307     0.000021975599    -0.000025339305
      13        0.000100922977     0.000176367627     0.000393409088
      14        0.000124279267    -0.000210906508     0.000325834983
      15       -0.000003634521    -0.000008333373    -0.000025920854
      16       -0.000056585948    -0.000087142882    -0.000236040216
      17        0.000006627450    -0.000002238208    -0.000012129145
      18       -0.000016669570     0.000012915276     0.000019877280
      19        0.000024320896    -0.000055541511     0.000055679586
      20        0.000022766683    -0.000006032072    -0.000018147697
      21       -0.000023511823     0.000002901023     0.000012183437
      22        0.000051019619    -0.000016410171    -0.000037704054
      23       -0.000003772807    -0.000005632027     0.000012220088
      24       -0.000012589659     0.000006196019     0.000014228267
      25        0.000001115827     0.000009437583    -0.000006152622
      26        0.000014317213    -0.000028049460     0.000000674420
      27       -0.000002827935     0.000000116285     0.000004659903

  **** Optimization is complete! (in 6 steps) ****
    Final optimized geometry and variables:
    Molecular point group: c1

    Geometry (in Angstrom), charge = 0, multiplicity = 1:

    H            2.471625601178    -2.776215897412     1.541023609247
    O            3.296450314403    -2.580152585298     1.121014931935
    C            3.093116769150    -2.391969082878    -0.256289330382
    C            2.389358729221    -1.080226652900    -0.585967997940
    H            4.079038396216    -2.400261636544    -0.702928902386
    H            2.540136076821    -3.230492179174    -0.678070914379
    C            0.964719153232    -0.983889188179    -0.035685268739
    H            2.987516876009    -0.260372601686    -0.197019017765
    H            2.366299221878    -0.970371109594    -1.668941746303
    C            0.258697966796     0.316923785549    -0.422871357584
    H            0.988246359737    -1.060048145241     1.049601164972
    H            0.379382237270    -1.830009292488    -0.394896569786
    C           -1.158699841539     0.426329750909     0.142010205182
    H            0.851455193320     1.160262336566    -0.073670577688
    H            0.222444852886     0.395759165021    -1.507903611508
    C           -1.880810704000     1.706641700671    -0.280981037222
    H           -1.741241255615    -0.435672493841    -0.179329421933
    H           -1.117455585765     0.377882327451     1.228857601572
    C           -3.296875911703     1.818554376075     0.286703631377
    H           -1.925622434637     1.751823305491    -1.367925610731
    H           -1.298646188602     2.570644984976     0.035381665151
    C           -4.014025474729     3.097249483065    -0.144768646693
    H           -3.879712734309     0.954991471019    -0.026875764292
    H           -3.253493994382     1.778552489195     1.373078539120
    H           -4.103389764068     3.150915895934    -1.226163246236
    H           -5.015077237273     3.147076801527     0.272399909827
    H           -3.473897184170     3.980150992725     0.185337672412

  Mulliken Charges: (a.u.)
   Center  Symbol    Alpha    Beta     Spin     Total
       1     H     0.27982  0.27982  0.00000  0.44036
       2     O     4.37101  4.37101  0.00000 -0.74202
       3     C     2.99735  2.99735  0.00000  0.00530
       4     C     3.16117  3.16117  0.00000 -0.32235
       5     H     0.41441  0.41441  0.00000  0.17118
       6     H     0.43204  0.43204  0.00000  0.13593
       7     C     3.16172  3.16172  0.00000 -0.32343
       8     H     0.41499  0.41499  0.00000  0.17002
       9     H     0.42417  0.42417  0.00000  0.15166
      10     C     3.15059  3.15059  0.00000 -0.30117
      11     H     0.42514  0.42514  0.00000  0.14972
      12     H     0.42486  0.42486  0.00000  0.15028
      13     C     3.15220  3.15220  0.00000 -0.30440
      14     H     0.42134  0.42134  0.00000  0.15732
      15     H     0.42301  0.42301  0.00000  0.15398
      16     C     3.15078  3.15078  0.00000 -0.30156
      17     H     0.42429  0.42429  0.00000  0.15143
      18     H     0.42357  0.42357  0.00000  0.15286
      19     C     3.15147  3.15147  0.00000 -0.30293
      20     H     0.42402  0.42402  0.00000  0.15197
      21     H     0.42359  0.42359  0.00000  0.15282
      22     C     3.23929  3.23929  0.00000 -0.47859
      23     H     0.42333  0.42333  0.00000  0.15334
      24     H     0.42305  0.42305  0.00000  0.15391
      25     H     0.42185  0.42185  0.00000  0.15630
      26     H     0.41933  0.41933  0.00000  0.16135
      27     H     0.42164  0.42164  0.00000  0.15672

   Total alpha = 37.00000, Total beta = 37.00000, Total charge = -0.00000
