  ==> Input File <==

--------------------------------------------------------------------------
set {
	reference rhf
	basis 6-31G*
}

set_num_threads( 4 )
memory 2 gb

molecule MOL {
0 1

H	 -2.499100	 -0.730091	 -0.745082
O	 -2.347518	 -0.290803	 0.079804
C	 -1.184022	 0.487508	 -0.006784
C	 0.062599	 -0.378592	 0.031606
H	 -1.176523	 1.099369	 -0.904519
H	 -1.187323	 1.153111	 0.844927
O	 0.642463	 -0.242429	 1.290573
H	 0.760213	 -0.065776	 -0.747792
H	 -0.205850	 -1.414301	 -0.167956
C	 1.786917	 -1.011483	 1.485312
H	 2.571264	 -0.743315	 0.779965
H	 2.139850	 -0.823486	 2.489801
H	 1.574845	 -2.073269	 1.378410

	symmetry c1
}
set optking {
	frozen_dihedral = ("
		8 4 3 5
	")
}

ee = optimize('scf')
oeprop('DIPOLE', 'QUADRUPOLE', 'MULLIKEN_CHARGES')
f=open( 'psi4out.xyz', 'w' )
f.write( "13  " )
f.write( str(ee) + "\n" )
f.write( MOL.save_string_xyz() )
f.close()
--------------------------------------------------------------------------

    Molecular point group: c1
  Charge       = 0
  Multiplicity = 1
  Basis Set: 6-31G*
  Basis Set:
  @DF-RHF Final Energy:  -267.94324305669176
    Total Energy =                       -267.9432430566917560
    Molecular point group: c1
  Basis Set: 6-31G*
  Basis Set:
  Basis Set: 6-31G*
  Basis Set:
  @DF-RHF Final Energy:  -267.94380344097556
    Total Energy =                       -267.9438034409755574
  Basis Set: 6-31G*
  Basis Set:
  Basis Set: 6-31G*
  Basis Set:
  @DF-RHF Final Energy:  -267.94403611243285
    Total Energy =                       -267.9440361124327978
  Basis Set: 6-31G*
  Basis Set:
  Basis Set: 6-31G*
  Basis Set:
  @DF-RHF Final Energy:  -267.94404274787786
    Total Energy =                       -267.9440427478779156
  Basis Set: 6-31G*
  Basis Set:
  Charge       = 0
  Multiplicity = 1
  Basis Set: 6-31G*
  Basis Set:

    Orbital Energies (a.u.)
    -----------------------

    Doubly Occupied:

       1A    -20.559631     2A    -20.556401     3A    -11.272357
       4A    -11.269602     5A    -11.267755     6A     -1.386728
       7A     -1.361486     8A     -1.016362     9A     -0.913779
      10A     -0.843212    11A     -0.700819    12A     -0.672210
      13A     -0.662179    14A     -0.638791    15A     -0.593778
      16A     -0.565114    17A     -0.539034    18A     -0.494285
      19A     -0.478291    20A     -0.437081    21A     -0.418332

  @DF-RHF Final Energy:  -267.94404360394930

   => Energetics <=

    Nuclear Repulsion Energy =            190.9759987669268071
    One-Electron Energy =                -744.5456292237258822
    Two-Electron Energy =                 285.6255868528498922
    DFT Exchange-Correlation Energy =       0.0000000000000000
    Empirical Dispersion Energy =           0.0000000000000000
    PCM Polarization Energy =               0.0000000000000000
    EFP Energy =                            0.0000000000000000
    Total Energy =                       -267.9440436039492397
    Molecular point group: c1
  Basis Set: 6-31G*
  Basis Set:

  -Total Gradient:
     Atom            X                  Y                   Z
    ------   -----------------  -----------------  -----------------
       1       -0.000016963737    -0.000015610562    -0.000004935618
       2        0.000015742676    -0.000007728001    -0.000021771230
       3       -0.001967393885    -0.003102391639    -0.002204496268
       4        0.001753619078     0.002898529829     0.002593234340
       5        0.001337194309     0.002114011886     0.001437018259
       6        0.000006426478     0.000013156728    -0.000000691279
       7       -0.000002205614     0.000000868104     0.000000678316
       8       -0.001145002857    -0.001900359934    -0.001827343914
       9        0.000008111326     0.000007848209     0.000026675618
      10       -0.000007226890    -0.000007010647    -0.000007851269
      11        0.000009310405     0.000001579849     0.000004006505
      12        0.000004003517     0.000002165833     0.000000953254
      13        0.000004385196    -0.000005059653     0.000004523286

  **** Optimization is complete! (in 5 steps) ****
    Final optimized geometry and variables:
    Molecular point group: c1

    Geometry (in Angstrom), charge = 0, multiplicity = 1:

    H           -2.279387785766    -0.468289440185    -1.276848262821
    O           -2.144053096348     0.029699276428    -0.483254762154
    C           -0.966343678181     0.781594122377    -0.591509326399
    C            0.309398047264    -0.060424746760    -0.530573467794
    H           -0.973494829504     1.392507063334    -1.491456745978
    H           -0.958747821489     1.457065491033     0.251521144614
    O            0.880625963578     0.053671716391     0.735390877074
    H            1.018094708901     0.252349753320    -1.298054251304
    H            0.059352955025    -1.100765713604    -0.738699078035
    C            2.018302306219    -0.726320911989     0.920814244308
    H            2.805153558047    -0.457685594462     0.217782626003
    H            2.373131584994    -0.551346744457     1.926961184526
    H            1.797962363126    -1.785654510814     0.803680411445

  Mulliken Charges: (a.u.)
   Center  Symbol    Alpha    Beta     Spin     Total
       1     H     0.28329  0.28329  0.00000  0.43341
       2     O     4.36662  4.36662  0.00000 -0.73323
       3     C     3.01047  3.01047  0.00000 -0.02095
       4     C     2.99818  2.99818  0.00000  0.00364
       5     H     0.42892  0.42892  0.00000  0.14217
       6     H     0.39839  0.39839  0.00000  0.20321
       7     O     4.30279  4.30279  0.00000 -0.60558
       8     H     0.43179  0.43179  0.00000  0.13641
       9     H     0.42961  0.42961  0.00000  0.14078
      10     C     3.08080  3.08080  0.00000 -0.16160
      11     H     0.43049  0.43049  0.00000  0.13901
      12     H     0.41024  0.41024  0.00000  0.17953
      13     H     0.42840  0.42840  0.00000  0.14320

   Total alpha = 21.00000, Total beta = 21.00000, Total charge = -0.00000
