  ==> Input File <==

--------------------------------------------------------------------------
set {
	reference rhf
	basis cc-pvtz
}

set_num_threads( 4 )
memory 2 gb

molecule MOL {
0 1

H	 -2.556344	 0.770586	 0.918069
C	 -2.545802	 0.089603	 0.077609
C	 -1.285283	 -0.761220	 0.080362
H	 -2.611086	 0.683838	 -0.823966
H	 -3.424899	 -0.540958	 0.136638
C	 0.000000	 0.039916	 0.000014
H	 -1.289667	 -1.460885	 -0.751112
H	 -1.235392	 -1.374936	 0.975769
C	 1.286532	 -0.763243	 0.000268
O	 -0.000926	 1.226011	 -0.059621
C	 2.547023	 0.087626	 -0.000114
H	 1.264245	 -1.421103	 -0.864380
H	 1.264290	 -1.420353	 0.865489
H	 2.584452	 0.725630	 -0.872909
H	 3.427035	 -0.544422	 0.000125
H	 2.584484	 0.726356	 0.872143

	symmetry c1
}
set optking {
	frozen_dihedral = ("
		3 6 9 12
	")
}

ee = optimize('scf')
oeprop('DIPOLE', 'QUADRUPOLE', 'MULLIKEN_CHARGES')
f=open( 'psi4out.xyz', 'w' )
f.write( "16  " )
f.write( str(ee) + "\n" )
f.write( MOL.save_string_xyz() )
f.close()
--------------------------------------------------------------------------

    Molecular point group: c1
  Charge       = 0
  Multiplicity = 1
  Basis Set: CC-PVTZ
  Basis Set:
  @DF-RHF Final Energy:  -270.13184835882743
    Total Energy =                       -270.1318483588274262
    Molecular point group: c1
  Basis Set: CC-PVTZ
  Basis Set:
  Basis Set: CC-PVTZ
  Basis Set:
  @DF-RHF Final Energy:  -270.13185644244368
    Total Energy =                       -270.1318564424437909
  Basis Set: CC-PVTZ
  Basis Set:
  Basis Set: CC-PVTZ
  Basis Set:
  @DF-RHF Final Energy:  -270.13179307651239
    Total Energy =                       -270.1317930765123947
  Basis Set: CC-PVTZ
  Basis Set:
  Basis Set: CC-PVTZ
  Basis Set:
  @DF-RHF Final Energy:  -270.13186204474249
    Total Energy =                       -270.1318620447425474
  Basis Set: CC-PVTZ
  Basis Set:
  Charge       = 0
  Multiplicity = 1
  Basis Set: CC-PVTZ
  Basis Set:

    Orbital Energies (a.u.)
    -----------------------

    Doubly Occupied:

       1A    -20.539255     2A    -11.317910     3A    -11.232206
       4A    -11.232182     5A    -11.211773     6A    -11.211771
       7A     -1.399482     8A     -1.069377     9A     -1.037218
      10A     -0.917047    11A     -0.845973    12A     -0.725972
      13A     -0.669709    14A     -0.649294    15A     -0.619838
      16A     -0.608127    17A     -0.561191    18A     -0.527586
      19A     -0.525617    20A     -0.510877    21A     -0.505279
      22A     -0.492216    23A     -0.488277    24A     -0.401310

  @DF-RHF Final Energy:  -270.13186275536691

   => Energetics <=

    Nuclear Repulsion Energy =            240.3618746182107770
    One-Electron Energy =                -842.3885040917491551
    Two-Electron Energy =                 331.8947667181715246
    DFT Exchange-Correlation Energy =       0.0000000000000000
    Empirical Dispersion Energy =           0.0000000000000000
    PCM Polarization Energy =               0.0000000000000000
    EFP Energy =                            0.0000000000000000
    Total Energy =                       -270.1318627553668534
    Molecular point group: c1
  Basis Set: CC-PVTZ
  Basis Set:

  -Total Gradient:
     Atom            X                  Y                   Z
    ------   -----------------  -----------------  -----------------
       1       -0.000002849728     0.000004369301     0.000008351877
       2        0.000004237994    -0.000002053828    -0.000032115954
       3        0.000003630890     0.000011203313     0.000164710322
       4        0.000003194391    -0.000002295001     0.000009833121
       5        0.000000702479    -0.000000677831     0.000007931685
       6       -0.000016739898     0.000014567282    -0.000217839508
       7        0.000014788586    -0.000004940735    -0.000030535226
       8       -0.000014017230    -0.000003785388    -0.000030785261
       9       -0.000042035925    -0.000092620048     0.000198184821
      10        0.000007017015    -0.000001639663     0.000029235503
      11        0.000009647168     0.000016382577    -0.000036582317
      12        0.000011379147     0.000050281481    -0.000060815834
      13        0.000020771507     0.000015773193    -0.000034825645
      14       -0.000004989030    -0.000004351197     0.000007822615
      15       -0.000000574962    -0.000003409010     0.000008766156
      16        0.000005837600     0.000003195555     0.000008663645

  **** Optimization is complete! (in 5 steps) ****
    Final optimized geometry and variables:
    Molecular point group: c1

    Geometry (in Angstrom), charge = 0, multiplicity = 1:

    H           -2.568492367580     0.784929104586     0.862373245164
    C           -2.546756694474     0.087679325751     0.035761538625
    C           -1.285425193445    -0.761157474086     0.071175883492
    H           -2.601423796614     0.664071946510    -0.878197966638
    H           -3.425878687945    -0.542763313964     0.095745528500
    C           -0.000056484750     0.040330592386    -0.003619396753
    H           -1.277913524547    -1.478249629853    -0.745160342789
    H           -1.246440861194    -1.355658619710     0.980120134747
    C            1.285560203619    -0.763916663402    -0.029981414264
    O           -0.000145172825     1.227370916104    -0.039343235108
    C            2.546791891350     0.085939932314    -0.031875303868
    H            1.250962728145    -1.402597373165    -0.908835998870
    H            1.274349323798    -1.439362065952     0.820803648043
    H            2.572292325473     0.740373119625    -0.892583796310
    H            3.426145619525    -0.546588623864    -0.055565561807
    H            2.597349167080     0.707910604877     0.852034119589

  Mulliken Charges: (a.u.)
   Center  Symbol    Alpha    Beta     Spin     Total
       1     H     0.44730  0.44730  0.00000  0.10541
       2     C     3.14071  3.14071  0.00000 -0.28142
       3     C     3.09785  3.09785  0.00000 -0.19570
       4     H     0.44845  0.44845  0.00000  0.10311
       5     H     0.45075  0.45075  0.00000  0.09850
       6     C     2.87459  2.87459  0.00000  0.25082
       7     H     0.44622  0.44622  0.00000  0.10756
       8     H     0.44583  0.44583  0.00000  0.10835
       9     C     3.09784  3.09784  0.00000 -0.19568
      10     O     4.17122  4.17122  0.00000 -0.34243
      11     C     3.14072  3.14072  0.00000 -0.28144
      12     H     0.44590  0.44590  0.00000  0.10820
      13     H     0.44614  0.44614  0.00000  0.10773
      14     H     0.44714  0.44714  0.00000  0.10573
      15     H     0.45075  0.45075  0.00000  0.09849
      16     H     0.44860  0.44860  0.00000  0.10280

   Total alpha = 24.00000, Total beta = 24.00000, Total charge = -0.00000
