  ==> Input File <==

--------------------------------------------------------------------------
set {
	reference rhf
	basis 6-31G*
}

set_num_threads( 1 )
memory 2 gb

molecule MOL {
0 1

O	 2.862325	 1.357334	 0.000267
C	 2.843464	 0.164689	 -0.000222
C	 1.546494	 -0.624492	 -0.000609
C	 4.124123	 -0.644674	 -0.000428
C	 0.291004	 0.242674	 0.000989
H	 1.557904	 -1.283758	 -0.867573
H	 1.558622	 -1.285963	 0.864672
C	 0.159496	 1.086243	 -1.268208
H	 0.305616	 0.888156	 0.873496
H	 -0.580934	 -0.393939	 0.113221
C	 -1.095292	 1.960976	 -1.277092
H	 1.038754	 1.719683	 -1.376399
H	 0.147100	 0.432814	 -2.139382
C	 -1.233883	 2.807924	 -2.543380
H	 -1.083615	 2.615092	 -0.407025
H	 -1.974933	 1.328733	 -1.169868
C	 -2.489551	 3.679118	 -2.544738
H	 -0.355711	 3.441213	 -2.651002
H	 -1.247192	 2.155067	 -3.413701
H	 -2.489891	 4.367515	 -1.704345
H	 -2.559472	 4.267769	 -3.454299
H	 -3.387747	 3.072215	 -2.473622
H	 4.165367	 -1.288615	 -0.874074
H	 4.976217	 0.020734	 -0.001915
H	 4.166763	 -1.286207	 0.874930

	symmetry c1
}
set optking {
	frozen_dihedral = ("
		9 5 8 12,
		15 11 8 12,
		15 11 14 18,
		1 2 3 6
	")
}

ee = energy('scf')
oeprop('DIPOLE', 'QUADRUPOLE', 'MULLIKEN_CHARGES')
f=open( 'psi4out.xyz', 'w' )
f.write( "25  " )
f.write( str(ee) + "\n" )
f.write( MOL.save_string_xyz() )
f.close()
--------------------------------------------------------------------------

    Molecular point group: c1

    Geometry (in Angstrom), charge = 0, multiplicity = 1:

       Center              X                  Y                   Z               Mass
    ------------   -----------------  -----------------  -----------------  -----------------
           O          2.083345794771     0.227945955622     0.855294414691    15.994914619560
           C          2.064484794771    -0.964699044378     0.854805414691    12.000000000000
           C          0.767514794771    -1.753880044378     0.854418414691    12.000000000000
           C          3.345143794771    -1.774062044378     0.854599414691    12.000000000000
           C         -0.487975205229    -0.886714044378     0.856016414691    12.000000000000
           H          0.778924794771    -2.413146044378    -0.012545585309     1.007825032070
           H          0.779642794771    -2.415351044378     1.719699414691     1.007825032070
           C         -0.619483205229    -0.043145044378    -0.413180585309    12.000000000000
           H         -0.473363205229    -0.241232044378     1.728523414691     1.007825032070
           H         -1.359913205229    -1.523327044378     0.968248414691     1.007825032070
           C         -1.874271205229     0.831587955622    -0.422064585309    12.000000000000
           H          0.259774794771     0.590294955622    -0.521371585309     1.007825032070
           H         -0.631879205229    -0.696574044378    -1.284354585309     1.007825032070
           C         -2.012862205229     1.678535955622    -1.688352585309    12.000000000000
           H         -1.862594205229     1.485703955622     0.448002414691     1.007825032070
           H         -2.753912205229     0.199344955622    -0.314840585309     1.007825032070
           C         -3.268530205229     2.549729955622    -1.689710585309    12.000000000000
           H         -1.134690205229     2.311824955622    -1.795974585309     1.007825032070
           H         -2.026171205229     1.025678955622    -2.558673585309     1.007825032070
           H         -3.268870205229     3.238126955622    -0.849317585309     1.007825032070
           H         -3.338451205229     3.138380955622    -2.599271585309     1.007825032070
           H         -4.166726205229     1.942826955622    -1.618594585309     1.007825032070
           H          3.386387794771    -2.418003044378    -0.019046585309     1.007825032070
           H          4.197237794771    -1.108654044378     0.853112414691     1.007825032070
           H          3.387783794771    -2.415595044378     1.729957414691     1.007825032070

  Charge       = 0
  Multiplicity = 1
  Basis Set: 6-31G*
  Basis Set:

    Orbital Energies (a.u.)
    -----------------------

    Doubly Occupied:

       1A    -20.552043     2A    -11.328234     3A    -11.232486
       4A    -11.229489     5A    -11.217043     6A    -11.209158
       7A    -11.206567     8A    -11.203963     9A    -11.203678
      10A     -1.398659    11A     -1.088750    12A     -1.053558
      13A     -1.013502    14A     -0.965279    15A     -0.886872
      16A     -0.813749    17A     -0.784711    18A     -0.728870
      19A     -0.669620    20A     -0.636893    21A     -0.631323
      22A     -0.621897    23A     -0.589410    24A     -0.584060
      25A     -0.571412    26A     -0.554055    27A     -0.532224
      28A     -0.524153    29A     -0.513628    30A     -0.502158
      31A     -0.480554    32A     -0.472668    33A     -0.457540
      34A     -0.454783    35A     -0.437045    36A     -0.398990

  @DF-RHF Final Energy:  -387.13426126377806

   => Energetics <=

    Nuclear Repulsion Energy =            450.8532559654157694
    One-Electron Energy =               -1418.4771300945642452
    Two-Electron Energy =                 580.4896128653685992
    DFT Exchange-Correlation Energy =       0.0000000000000000
    Empirical Dispersion Energy =           0.0000000000000000
    PCM Polarization Energy =               0.0000000000000000
    EFP Energy =                            0.0000000000000000
    Total Energy =                       -387.1342612637798766

  Mulliken Charges: (a.u.)
   Center  Symbol    Alpha    Beta     Spin     Total
       1     O     4.26143  4.26143  0.00000 -0.52285
       2     C     2.73641  2.73641  0.00000  0.52718
       3     C     3.21188  3.21188  0.00000 -0.42376
       4     C     3.28655  3.28655  0.00000 -0.57310
       5     C     3.14961  3.14961  0.00000 -0.29921
       6     H     0.40946  0.40946  0.00000  0.18108
       7     H     0.40724  0.40724  0.00000  0.18552
       8     C     3.16111  3.16111  0.00000 -0.32221
       9     H     0.41272  0.41272  0.00000  0.17457
      10     H     0.42031  0.42031  0.00000  0.15939
      11     C     3.15065  3.15065  0.00000 -0.30129
      12     H     0.39820  0.39820  0.00000  0.20360
      13     H     0.43035  0.43035  0.00000  0.13931
      14     C     3.15147  3.15147  0.00000 -0.30294
      15     H     0.42233  0.42233  0.00000  0.15534
      16     H     0.42761  0.42761  0.00000  0.14479
      17     C     3.23912  3.23912  0.00000 -0.47823
      18     H     0.42093  0.42093  0.00000  0.15814
      19     H     0.42483  0.42483  0.00000  0.15035
      20     H     0.42159  0.42159  0.00000  0.15682
      21     H     0.42023  0.42023  0.00000  0.15954
      22     H     0.42299  0.42299  0.00000  0.15401
      23     H     0.40826  0.40826  0.00000  0.18348
      24     H     0.39643  0.39643  0.00000  0.20715
      25     H     0.40833  0.40833  0.00000  0.18335

   Total alpha = 36.00000, Total beta = 36.00000, Total charge = -0.00000
