  ==> Input File <==

--------------------------------------------------------------------------
set {
	reference rhf
	basis 6-31G*
}

set_num_threads( 4 )
memory 2 gb

molecule MOL {
0 1

H	 -3.892951	 0.981613	 -0.358725
C	 -3.196921	 0.361773	 0.172313
C	 -2.076860	 -0.007332	 -0.404944
H	 -3.439953	 0.057760	 1.173024
O	 -0.950264	 -0.267419	 0.309196
H	 -1.988745	 -0.144260	 -1.468280
C	 0.232045	 -0.478830	 -0.383119
C	 0.947190	 0.820219	 -0.678636
H	 0.073012	 -0.997787	 -1.321781
H	 0.877668	 -1.077331	 0.242544
F	 2.085472	 0.563801	 -1.306625
F	 0.227597	 1.610221	 -1.458323
F	 1.231165	 1.489766	 0.419297

	symmetry c1
}
set optking {
	frozen_dihedral = ("
		6 3 2 1
	")
}

ee = optimize('scf')
oeprop('DIPOLE', 'QUADRUPOLE', 'MULLIKEN_CHARGES')
f=open( 'psi4out.xyz', 'w' )
f.write( "13  " )
f.write( str(ee) + "\n" )
f.write( MOL.save_string_xyz() )
f.close()
--------------------------------------------------------------------------

    Molecular point group: c1
  Charge       = 0
  Multiplicity = 1
  Basis Set: 6-31G*
  Basis Set:
  @DF-RHF Final Energy:  -527.51541344873283
    Total Energy =                       -527.5154134487328292
    Molecular point group: c1
  Basis Set: 6-31G*
  Basis Set:
  Basis Set: 6-31G*
  Basis Set:
  @DF-RHF Final Energy:  -527.52685785508697
    Total Energy =                       -527.5268578550869734
  Basis Set: 6-31G*
  Basis Set:
  Basis Set: 6-31G*
  Basis Set:
  @DF-RHF Final Energy:  -527.52882468604821
    Total Energy =                       -527.5288246860479831
  Basis Set: 6-31G*
  Basis Set:
  Basis Set: 6-31G*
  Basis Set:
  @DF-RHF Final Energy:  -527.52901388693044
    Total Energy =                       -527.5290138869308976
  Basis Set: 6-31G*
  Basis Set:
  @DF-RHF Final Energy:  -527.52905553872051
    Total Energy =                       -527.5290555387210816
  @DF-RHF Final Energy:  -527.52906551804938
    Total Energy =                       -527.5290655180492649
  @DF-RHF Final Energy:  -527.52906447635667
    Total Energy =                       -527.5290644763563250
  @DF-RHF Final Energy:  -527.52906392225486
    Total Energy =                       -527.5290639222548634
  @DF-RHF Final Energy:  -527.52906498588436
    Total Energy =                       -527.5290649858845882
  @DF-RHF Final Energy:  -527.52906502180110
    Total Energy =                       -527.5290650218013297
  @DF-RHF Final Energy:  -527.52906485492394
    Total Energy =                       -527.5290648549238313
  @DF-RHF Final Energy:  -527.52906393011767
    Total Energy =                       -527.5290639301173314
  @DF-RHF Final Energy:  -527.52906482225194
    Total Energy =                       -527.5290648222515983
  @DF-RHF Final Energy:  -527.52906436574199
    Total Energy =                       -527.5290643657417604
  @DF-RHF Final Energy:  -527.52734662364924
    Total Energy =                       -527.5273466236488957
  @DF-RHF Final Energy:  -527.52485103875119
    Total Energy =                       -527.5248510387515353
  @DF-RHF Final Energy:  -527.52895033054688
    Total Energy =                       -527.5289503305469907
  @DF-RHF Final Energy:  -527.52903857091883
    Total Energy =                       -527.5290385709187149
  @DF-RHF Final Energy:  -527.52906929973915
    Total Energy =                       -527.5290692997392625
  @DF-RHF Final Energy:  -527.52907151344380
    Total Energy =                       -527.5290715134436823
  @DF-RHF Final Energy:  -527.52907302382300
    Total Energy =                       -527.5290730238232300
  @DF-RHF Final Energy:  -527.52907284021444
    Total Energy =                       -527.5290728402145533
  @DF-RHF Final Energy:  -527.52907093042086
    Total Energy =                       -527.5290709304207439
  @DF-RHF Final Energy:  -527.52907355658192
    Total Energy =                       -527.5290735565822615
  @DF-RHF Final Energy:  -527.52904991806281
    Total Energy =                       -527.5290499180625829
  @DF-RHF Final Energy:  -527.52907190008705
    Total Energy =                       -527.5290719000868194
  @DF-RHF Final Energy:  -527.52906117770215
    Total Energy =                       -527.5290611777021468
  @DF-RHF Final Energy:  -527.52907363154668
    Total Energy =                       -527.5290736315471349
  @DF-RHF Final Energy:  -527.52907354415424
    Total Energy =                       -527.5290735441544712
  @DF-RHF Final Energy:  -527.52907345824792
    Total Energy =                       -527.5290734582481491
  @DF-RHF Final Energy:  -527.52907338235229
    Total Energy =                       -527.5290733823521805
  @DF-RHF Final Energy:  -527.52907315287337
    Total Energy =                       -527.5290731528734796
  @DF-RHF Final Energy:  -527.52906414479401
    Total Energy =                       -527.5290641447940061
  @DF-RHF Final Energy:  -527.52907422643875
    Total Energy =                       -527.5290742264386381
  @DF-RHF Final Energy:  -527.52907436899159
    Total Energy =                       -527.5290743689915871
  @DF-RHF Final Energy:  -527.52891127101907
    Total Energy =                       -527.5289112710190693
  Basis Set: 6-31G*
  Basis Set:
  @DF-RHF Final Energy:  -527.52907479989472
    Total Energy =                       -527.5290747998951701
  Basis Set: 6-31G*
  Basis Set:
  Basis Set: 6-31G*
  Basis Set:
  @DF-RHF Final Energy:  -527.52907487466189
    Total Energy =                       -527.5290748746616600
  Basis Set: 6-31G*
  Basis Set:
  Basis Set: 6-31G*
  Basis Set:
  @DF-RHF Final Energy:  -527.52907461584994
    Total Energy =                       -527.5290746158498223
  Basis Set: 6-31G*
  Basis Set:
  Charge       = 0
  Multiplicity = 1
  Basis Set: 6-31G*
  Basis Set:

    Orbital Energies (a.u.)
    -----------------------

    Doubly Occupied:

       1A    -26.345191     2A    -26.344418     3A    -26.341001
       4A    -20.608346     5A    -11.503682     6A    -11.319171
       7A    -11.301830     8A    -11.216505     9A     -1.742287
      10A     -1.640498    11A     -1.638735    12A     -1.438261
      13A     -1.085110    14A     -1.015961    15A     -0.925590
      16A     -0.837253    17A     -0.831532    18A     -0.822493
      19A     -0.792205    20A     -0.722898    21A     -0.711799
      22A     -0.697403    23A     -0.675802    24A     -0.660158
      25A     -0.654749    26A     -0.643682    27A     -0.631304
      28A     -0.587089    29A     -0.562283    30A     -0.522581
      31A     -0.514073    32A     -0.350512

  @DF-RHF Final Energy:  -527.52907432910683

   => Energetics <=

    Nuclear Repulsion Energy =            412.6118772375564276
    One-Electron Energy =               -1548.9131016096587246
    Two-Electron Energy =                 608.7721500429947810
    DFT Exchange-Correlation Energy =       0.0000000000000000
    Empirical Dispersion Energy =           0.0000000000000000
    PCM Polarization Energy =               0.0000000000000000
    EFP Energy =                            0.0000000000000000
    Total Energy =                       -527.5290743291075160
    Molecular point group: c1
  Basis Set: 6-31G*
  Basis Set:

  -Total Gradient:
     Atom            X                  Y                   Z
    ------   -----------------  -----------------  -----------------
       1        0.003545530538     0.012908808776     0.005147280784
       2       -0.005361851653    -0.025458205069    -0.006977521994
       3        0.001939179039     0.028551943787     0.000700927548
       4        0.000197351718     0.000121339005    -0.000042184852
       5        0.000240726292    -0.000920872676    -0.000225472193
       6       -0.000265068576    -0.015437691081     0.001390192213
       7       -0.000264578570     0.000287650569    -0.000002681323
       8        0.000058907264    -0.000026412321    -0.000045672503
       9        0.000009048328    -0.000007227336     0.000025689193
      10       -0.000037799793     0.000010937574     0.000009065486
      11        0.000043912472    -0.000013533622     0.000029224903
      12       -0.000112059898     0.000020349725    -0.000015281233
      13        0.000006702845    -0.000037087329     0.000006433975

    Molecular point group: c1

    Geometry (in Angstrom), charge = 0, multiplicity = 1:

    H           -4.074804521427     0.084590710404     0.097511083091
    C           -3.242503501473    -0.350251008401     0.619660138043
    C           -2.072812105353    -0.438675832778     0.020981545858
    H           -3.322438845390    -0.400114156436     1.689745974411
    O           -0.955507783396    -0.731595008034     0.743786160694
    H           -1.949456515538    -0.551544820107    -1.047097596009
    C            0.215821246513    -1.022704209687     0.071494108777
    C            1.018702933812     0.225154106030    -0.220956682360
    H            0.039047353257    -1.536644389122    -0.866854372741
    H            0.815075170599    -1.656666194871     0.708772232333
    F            2.142939836003    -0.104571896916    -0.841098881444
    F            0.355976889150     1.057394849459    -1.004330233675
    F            1.333605077967     0.880577152814     0.878106896645

  Mulliken Charges: (a.u.)
   Center  Symbol    Alpha    Beta     Spin     Total
       1     H     0.40670  0.40670  0.00000  0.18660
       2     C     3.23367  3.23367  0.00000 -0.46733
       3     C     2.89549  2.89549  0.00000  0.20902
       4     H     0.40418  0.40418  0.00000  0.19164
       5     O     4.30067  4.30067  0.00000 -0.60133
       6     H     0.40769  0.40769  0.00000  0.18461
       7     C     3.06489  3.06489  0.00000 -0.12978
       8     C     2.45545  2.45545  0.00000  1.08910
       9     H     0.40502  0.40502  0.00000  0.18995
      10     H     0.38929  0.38929  0.00000  0.22142
      11     F     4.68275  4.68275  0.00000 -0.36550
      12     F     4.67973  4.67973  0.00000 -0.35947
      13     F     4.67447  4.67447  0.00000 -0.34893

   Total alpha = 32.00000, Total beta = 32.00000, Total charge =  0.00000
