  ==> Input File <==

--------------------------------------------------------------------------
set {
	reference rhf
	basis 6-31G*
}

set_num_threads( 1 )
memory 2 gb

molecule MOL {
0 1

H	 -2.646374	 -0.642757	 1.268656
C	 -2.083525	 -0.384536	 0.393091
O	 -0.807605	 -0.127164	 0.768327
F	 -2.118945	 -1.383102	 -0.486752
F	 -2.621877	 0.670592	 -0.209486
C	 0.084052	 0.273579	 -0.209957
C	 1.397891	 -0.446890	 0.063743
Cl	 0.315642	 2.029185	 -0.172129
H	 -0.247066	 0.009245	 -1.199028
F	 2.296964	 -0.122633	 -0.841058
F	 1.192561	 -1.746778	 -0.010885
F	 1.875909	 -0.169647	 1.252275

	symmetry c1
}
set optking {
	frozen_dihedral = ("
		10 7 6 9,
		6 3 2 4
	")
}

ee = energy('scf')
oeprop('DIPOLE', 'QUADRUPOLE', 'MULLIKEN_CHARGES')
f=open( 'psi4out.xyz', 'w' )
f.write( "12  " )
f.write( str(ee) + "\n" )
f.write( MOL.save_string_xyz() )
f.close()
--------------------------------------------------------------------------

    Molecular point group: c1

    Geometry (in Angstrom), charge = 0, multiplicity = 1:

       Center              X                  Y                   Z               Mass
    ------------   -----------------  -----------------  -----------------  -----------------
           H         -2.645567521263    -0.693396722789     1.248646771454     1.007825032070
           C         -2.082718521263    -0.435175722789     0.373081771454    12.000000000000
           O         -0.806798521263    -0.177803722789     0.748317771454    15.994914619560
           F         -2.118138521263    -1.433741722789    -0.506761228546    18.998403224000
           F         -2.621070521263     0.619952277211    -0.229495228546    18.998403224000
           C          0.084858478737     0.222939277211    -0.229966228546    12.000000000000
           C          1.398697478737    -0.497529722789     0.043733771454    12.000000000000
          CL          0.316448478737     1.978545277211    -0.192138228546    34.968852682000
           H         -0.246259521263    -0.041394722789    -1.219037228546     1.007825032070
           F          2.297770478737    -0.173272722789    -0.861067228546    18.998403224000
           F          1.193367478737    -1.797417722789    -0.030894228546    18.998403224000
           F          1.876715478737    -0.220286722789     1.232265771454    18.998403224000

  Charge       = 0
  Multiplicity = 1
  Basis Set: 6-31G*
  Basis Set:

    Orbital Energies (a.u.)
    -----------------------

    Doubly Occupied:

       1A   -104.842871     2A    -26.360206     3A    -26.358594
       4A    -26.357802     5A    -26.346351     6A    -26.345859
       7A    -20.649898     8A    -11.527922     9A    -11.489502
      10A    -11.400588    11A    -10.577653    12A     -8.047015
      13A     -8.043468    14A     -8.043379    15A     -1.761141
      16A     -1.717669    17A     -1.657720    18A     -1.656205
      19A     -1.638307    20A     -1.486116    21A     -1.179515
      22A     -1.052261    23A     -0.986359    24A     -0.919563
      25A     -0.860048    26A     -0.852280    27A     -0.845549
      28A     -0.822664    29A     -0.810851    30A     -0.789840
      31A     -0.727462    32A     -0.726535    33A     -0.706588
      34A     -0.701275    35A     -0.678756    36A     -0.675055
      37A     -0.658316    38A     -0.657447    39A     -0.645418
      40A     -0.633993    41A     -0.597369    42A     -0.580571
      43A     -0.524010    44A     -0.475915    45A     -0.468392

  @DF-RHF Final Energy: -1146.31430672162855

   => Energetics <=

    Nuclear Repulsion Energy =            737.8593146904127025
    One-Electron Energy =               -3058.5784497585736972
    Two-Electron Energy =                1174.4048283465326676
    DFT Exchange-Correlation Energy =       0.0000000000000000
    Empirical Dispersion Energy =           0.0000000000000000
    PCM Polarization Energy =               0.0000000000000000
    EFP Energy =                            0.0000000000000000
    Total Energy =                      -1146.3143067216283271

  Mulliken Charges: (a.u.)
   Center  Symbol    Alpha    Beta     Spin     Total
       1     H     0.40126  0.40126  0.00000  0.19748
       2     C     2.56437  2.56437  0.00000  0.87127
       3     O     4.29896  4.29896  0.00000 -0.59792
       4     F     4.68643  4.68643  0.00000 -0.37286
       5     F     4.68399  4.68399  0.00000 -0.36798
       6     C     3.04669  3.04669  0.00000 -0.09339
       7     C     2.43296  2.43296  0.00000  1.13408
       8    CL     8.50009  8.50009  0.00000 -0.00017
       9     H     0.36696  0.36696  0.00000  0.26609
      10     F     4.67400  4.67400  0.00000 -0.34800
      11     F     4.67589  4.67589  0.00000 -0.35178
      12     F     4.66840  4.66840  0.00000 -0.33681

   Total alpha = 45.00000, Total beta = 45.00000, Total charge =  0.00000
