  ==> Input File <==

--------------------------------------------------------------------------
set {
	reference rhf
	basis 6-31G*
}

set_num_threads( 4 )
memory 2 gb

molecule MOL {
0 1

O	 -2.042549	 -1.228399	 -0.269030
C	 -1.653912	 -0.146171	 0.050137
C	 -0.332303	 0.024011	 0.778412
C	 -2.438579	 1.106236	 -0.272369
C	 0.845713	 -0.001731	 -0.208243
H	 -0.323783	 0.953829	 1.340327
H	 -0.235459	 -0.796807	 1.480410
C	 2.046938	 0.804581	 0.287690
H	 0.526145	 0.388040	 -1.173146
H	 1.138113	 -1.034709	 -0.371335
C	 3.223128	 0.773343	 -0.687404
H	 1.744966	 1.835748	 0.457788
H	 2.365599	 0.415323	 1.251797
H	 2.944804	 1.188273	 -1.651987
H	 3.568325	 -0.243105	 -0.852071
H	 4.060814	 1.350308	 -0.308697
H	 -3.277823	 0.863061	 -0.908988
H	 -1.806773	 1.843019	 -0.759671
H	 -2.802853	 1.554979	 0.648059

	symmetry c1
}
set optking {
	frozen_dihedral = ("
		9 5 3 2
	")
}

ee = optimize('scf')
oeprop('DIPOLE', 'QUADRUPOLE', 'MULLIKEN_CHARGES')
f=open( 'psi4out.xyz', 'w' )
f.write( "19  " )
f.write( str(ee) + "\n" )
f.write( MOL.save_string_xyz() )
f.close()
--------------------------------------------------------------------------

    Molecular point group: c1
  Charge       = 0
  Multiplicity = 1
  Basis Set: 6-31G*
  Basis Set:
  @DF-RHF Final Energy:  -309.06233129800273
    Total Energy =                       -309.0623312980023911
    Molecular point group: c1
  Basis Set: 6-31G*
  Basis Set:
  Basis Set: 6-31G*
  Basis Set:
  @DF-RHF Final Energy:  -309.06250670269833
    Total Energy =                       -309.0625067026982151
  Basis Set: 6-31G*
  Basis Set:
  Basis Set: 6-31G*
  Basis Set:
  @DF-RHF Final Energy:  -309.06263699496378
    Total Energy =                       -309.0626369949632135
  Basis Set: 6-31G*
  Basis Set:
  Basis Set: 6-31G*
  Basis Set:
  @DF-RHF Final Energy:  -309.06272123583904
    Total Energy =                       -309.0627212358390352
  Basis Set: 6-31G*
  Basis Set:
  Basis Set: 6-31G*
  Basis Set:
  @DF-RHF Final Energy:  -309.06274231693550
    Total Energy =                       -309.0627423169354415
  Basis Set: 6-31G*
  Basis Set:
  Basis Set: 6-31G*
  Basis Set:
  @DF-RHF Final Energy:  -309.06275153458546
    Total Energy =                       -309.0627515345852316
  Basis Set: 6-31G*
  Basis Set:
  Basis Set: 6-31G*
  Basis Set:
  @DF-RHF Final Energy:  -309.06275561915368
    Total Energy =                       -309.0627556191536769
  Basis Set: 6-31G*
  Basis Set:
  Charge       = 0
  Multiplicity = 1
  Basis Set: 6-31G*
  Basis Set:

    Orbital Energies (a.u.)
    -----------------------

    Doubly Occupied:

       1A    -20.547276     2A    -11.324352     3A    -11.232323
       4A    -11.229596     5A    -11.228164     6A    -11.226906
       7A    -11.216360     8A     -1.392775     9A     -1.092275
      10A     -1.030003    11A     -0.983049    12A     -0.892002
      13A     -0.809352    14A     -0.734068    15A     -0.660266
      16A     -0.647180    17A     -0.621808    18A     -0.613548
      19A     -0.583786    20A     -0.574689    21A     -0.551661
      22A     -0.539405    23A     -0.508145    24A     -0.505944
      25A     -0.484342    26A     -0.475385    27A     -0.467664
      28A     -0.396680

  @DF-RHF Final Energy:  -309.06275617125556

   => Energetics <=

    Nuclear Repulsion Energy =            301.5886294804400336
    One-Electron Energy =               -1016.1647638664255737
    Two-Electron Energy =                 405.5133782147299257
    DFT Exchange-Correlation Energy =       0.0000000000000000
    Empirical Dispersion Energy =           0.0000000000000000
    PCM Polarization Energy =               0.0000000000000000
    EFP Energy =                            0.0000000000000000
    Total Energy =                       -309.0627561712556712
    Molecular point group: c1
  Basis Set: 6-31G*
  Basis Set:

  -Total Gradient:
     Atom            X                  Y                   Z
    ------   -----------------  -----------------  -----------------
       1        0.000015268645     0.000016511106    -0.000018555999
       2       -0.000283929865     0.002826213165    -0.000143197450
       3        0.000122703374    -0.004752001539    -0.000093994290
       4       -0.000008961218     0.000009897237     0.000017851482
       5        0.001117599845     0.005541638814     0.001539882966
       6       -0.000012234362     0.000001229500    -0.000006057263
       7        0.000001866240    -0.000004589443    -0.000008740441
       8        0.000000186756     0.000005152412     0.000007139221
       9       -0.000966415716    -0.003634994669    -0.001286384609
      10        0.000003296514     0.000002064536     0.000016702031
      11       -0.000001972070     0.000003780434    -0.000009580761
      12       -0.000002521110    -0.000006829941     0.000013109724
      13        0.000005150754    -0.000011328169    -0.000007613518
      14        0.000000064475    -0.000006994123    -0.000001405437
      15        0.000004499000     0.000001834675     0.000003664721
      16        0.000001415782     0.000006682910    -0.000002519636
      17       -0.000008709300    -0.000002830592     0.000008755030
      18       -0.000005752281    -0.000005150046    -0.000022885191
      19        0.000018444531     0.000009713736    -0.000006170582

  **** Optimization is complete! (in 8 steps) ****
    Final optimized geometry and variables:
    Molecular point group: c1

    Geometry (in Angstrom), charge = 0, multiplicity = 1:

    O           -2.077599669784    -1.441406300093    -0.072896744234
    C           -1.614050808629    -0.362295906181     0.138263831022
    C           -0.275663145625    -0.196666683906     0.832726755660
    C           -2.328669502064     0.902664803464    -0.287715782618
    C            0.881472666179    -0.145096652338    -0.187803244769
    H           -0.288258392834     0.721508021396     1.414845814742
    H           -0.137151083727    -1.025071590451     1.516128136852
    C            2.103727056088     0.616321650004     0.323552531374
    H            0.539312571756     0.282466120732    -1.128181002850
    H            1.163507471207    -1.165394054853    -0.431771068014
    C            3.270611506811     0.595972675847    -0.662490130516
    H            1.823720647413     1.646272026105     0.533618409914
    H            2.421761675302     0.186791415050     1.270985414690
    H            2.989701202713     1.042688200851    -1.612027152357
    H            3.599297556889    -0.420081491733    -0.859960042223
    H            4.120045468937     1.149441267070    -0.275035077193
    H           -3.156508755149     0.656335291398    -0.937969172490
    H           -1.654047227799     1.587982699421    -0.791021808124
    H           -2.707670143954     1.413882837240     0.593488731192

  Mulliken Charges: (a.u.)
   Center  Symbol    Alpha    Beta     Spin     Total
       1     O     4.26092  4.26092  0.00000 -0.52183
       2     C     2.73911  2.73911  0.00000  0.52178
       3     C     3.20090  3.20090  0.00000 -0.40179
       4     C     3.28954  3.28954  0.00000 -0.57909
       5     C     3.16096  3.16096  0.00000 -0.32192
       6     H     0.41654  0.41654  0.00000  0.16692
       7     H     0.39925  0.39925  0.00000  0.20149
       8     C     3.15290  3.15290  0.00000 -0.30579
       9     H     0.41852  0.41852  0.00000  0.16297
      10     H     0.40892  0.40892  0.00000  0.18216
      11     C     3.24077  3.24077  0.00000 -0.48154
      12     H     0.42225  0.42225  0.00000  0.15551
      13     H     0.41929  0.41929  0.00000  0.16143
      14     H     0.42059  0.42059  0.00000  0.15881
      15     H     0.41891  0.41891  0.00000  0.16218
      16     H     0.41720  0.41720  0.00000  0.16561
      17     H     0.39683  0.39683  0.00000  0.20633
      18     H     0.41048  0.41048  0.00000  0.17903
      19     H     0.40612  0.40612  0.00000  0.18776

   Total alpha = 28.00000, Total beta = 28.00000, Total charge = -0.00000
