  ==> Input File <==

--------------------------------------------------------------------------
set {
	reference rhf
	basis 6-31G*
}

set_num_threads( 4 )
memory 2 gb

molecule MOL {
0 1

H	 3.780450	 -0.573468	 0.526315
O	 2.879711	 -0.787032	 0.749509
C	 2.077727	 -0.067559	 -0.035091
C	 0.624473	 -0.343591	 0.253101
O	 2.501441	 0.687056	 -0.848749
C	 -0.265902	 0.883932	 0.072916
H	 0.324016	 -1.163849	 -0.390541
H	 0.565024	 -0.726111	 1.268924
C	 -1.728698	 0.646073	 0.462102
H	 -0.209144	 1.219470	 -0.958188
H	 0.135059	 1.692851	 0.673903
C	 -2.482460	 -0.343073	 -0.431425
H	 -2.245265	 1.602650	 0.432430
H	 -1.779332	 0.308348	 1.496285
C	 -3.960546	 -0.461025	 -0.060175
H	 -2.395034	 -0.026811	 -1.468912
H	 -2.024850	 -1.327147	 -0.371646
H	 -4.472726	 -1.168004	 -0.705284
H	 -4.465146	 0.496508	 -0.151489
H	 -4.081218	 -0.800940	 0.964585

	symmetry c1
}
set optking {
	frozen_dihedral = ("
		5 3 4 7
	")
}

ee = optimize('scf')
oeprop('DIPOLE', 'QUADRUPOLE', 'MULLIKEN_CHARGES')
f=open( 'psi4out.xyz', 'w' )
f.write( "20  " )
f.write( str(ee) + "\n" )
f.write( MOL.save_string_xyz() )
f.close()
--------------------------------------------------------------------------

    Molecular point group: c1
  Charge       = 0
  Multiplicity = 1
  Basis Set: 6-31G*
  Basis Set:
  @DF-RHF Final Energy:  -383.94758439210011
    Total Energy =                       -383.9475843921001115
    Molecular point group: c1
  Basis Set: 6-31G*
  Basis Set:
  Basis Set: 6-31G*
  Basis Set:
  @DF-RHF Final Energy:  -383.94713184633059
    Total Energy =                       -383.9471318463306488
  Basis Set: 6-31G*
  Basis Set:
  Basis Set: 6-31G*
  Basis Set:
  @DF-RHF Final Energy:  -383.94771208962271
    Total Energy =                       -383.9477120896229962
  Basis Set: 6-31G*
  Basis Set:
  Basis Set: 6-31G*
  Basis Set:
  @DF-RHF Final Energy:  -383.94799206577176
    Total Energy =                       -383.9479920657717003
  Basis Set: 6-31G*
  Basis Set:
  Basis Set: 6-31G*
  Basis Set:
  @DF-RHF Final Energy:  -383.94798069711561
    Total Energy =                       -383.9479806971156677
  Basis Set: 6-31G*
  Basis Set:
  Basis Set: 6-31G*
  Basis Set:
  @DF-RHF Final Energy:  -383.94799346566333
    Total Energy =                       -383.9479934656634441
  Basis Set: 6-31G*
  Basis Set:
  Charge       = 0
  Multiplicity = 1
  Basis Set: 6-31G*
  Basis Set:

    Orbital Energies (a.u.)
    -----------------------

    Doubly Occupied:

       1A    -20.613746     2A    -20.549938     3A    -11.381044
       4A    -11.239738     5A    -11.225004     6A    -11.221213
       7A    -11.220457     8A    -11.212564     9A     -1.474868
      10A     -1.365049    11A     -1.096562    12A     -1.040861
      13A     -0.960983    14A     -0.868393    15A     -0.817996
      16A     -0.778489    17A     -0.700367    18A     -0.689645
      19A     -0.660814    20A     -0.633427    21A     -0.607516
      22A     -0.594011    23A     -0.575647    24A     -0.556688
      25A     -0.538882    26A     -0.514297    27A     -0.495740
      28A     -0.480770    29A     -0.469765    30A     -0.466882
      31A     -0.459286    32A     -0.440855

  @DF-RHF Final Energy:  -383.94799365850042

   => Energetics <=

    Nuclear Repulsion Energy =            375.9660526127079265
    One-Electron Energy =               -1267.9250922883209114
    Two-Electron Energy =                 508.0110460171125624
    DFT Exchange-Correlation Energy =       0.0000000000000000
    Empirical Dispersion Energy =           0.0000000000000000
    PCM Polarization Energy =               0.0000000000000000
    EFP Energy =                            0.0000000000000000
    Total Energy =                       -383.9479936585004225
    Molecular point group: c1
  Basis Set: 6-31G*
  Basis Set:

  -Total Gradient:
     Atom            X                  Y                   Z
    ------   -----------------  -----------------  -----------------
       1        0.000011026270    -0.000000938672     0.000002213238
       2       -0.000019732991     0.000010832418    -0.000001034847
       3       -0.000045762645     0.001394220015     0.000986993135
       4        0.000376783900    -0.001261372681     0.000556512127
       5       -0.000035732567    -0.000873044756    -0.000776020597
       6        0.000009351753     0.000019660236     0.000007498998
       7       -0.000317881970     0.000711663996    -0.000768051994
       8        0.000010988585     0.000004079800     0.000000023301
       9       -0.000008602761     0.000004961860    -0.000022597793
      10       -0.000002038384     0.000006814797     0.000002963032
      11        0.000002185159    -0.000007883689    -0.000002406206
      12        0.000007761413    -0.000011493656     0.000014142753
      13       -0.000010574021    -0.000002872180    -0.000000548001
      14        0.000011051718     0.000000307569    -0.000003571470
      15       -0.000002549208     0.000008775114    -0.000002666172
      16        0.000007890447    -0.000000874036     0.000008415940
      17        0.000008502060    -0.000005852781    -0.000000058965
      18        0.000000065340     0.000002402963    -0.000002410130
      19       -0.000003660399     0.000002073163     0.000002523578
      20        0.000000928298    -0.000001459478    -0.000001919927

  **** Optimization is complete! (in 7 steps) ****
    Final optimized geometry and variables:
    Molecular point group: c1

    Geometry (in Angstrom), charge = 0, multiplicity = 1:

    H            3.794799457080    -0.635328776174     0.371203635618
    O            2.908415565411    -0.826756514023     0.662567029199
    C            2.069599729260    -0.076343523687    -0.048900979660
    C            0.626728422316    -0.349014487491     0.292584212578
    O            2.451715956298     0.684869752688    -0.877772816299
    C           -0.266809725464     0.874672055998     0.077573344529
    H            0.317739583990    -1.166797270760    -0.352889396837
    H            0.568305042776    -0.712040913245     1.311960848933
    C           -1.735559986325     0.637200606942     0.443673430180
    H           -0.187627914467     1.193874511602    -0.955747990444
    H            0.115937678289     1.694407543812     0.678961050761
    C           -2.469619681426    -0.364809680203    -0.451868152508
    H           -2.253724385969     1.592003147094     0.391934388994
    H           -1.804752599881     0.312462681959     1.480784027523
    C           -3.955266620635    -0.477831186355    -0.110281994022
    H           -2.359841756516    -0.063398797148    -1.491505253752
    H           -2.013794282469    -1.347940638839    -0.368031568088
    H           -4.453406531622    -1.194385497560    -0.755774811891
    H           -4.457950672502     0.478016524903    -0.226423998946
    H           -4.097684365145    -0.802790029441     0.916536013820

  Mulliken Charges: (a.u.)
   Center  Symbol    Alpha    Beta     Spin     Total
       1     H     0.26821  0.26821  0.00000  0.46358
       2     O     4.35061  4.35061  0.00000 -0.70123
       3     C     2.62145  2.62145  0.00000  0.75709
       4     C     3.21257  3.21257  0.00000 -0.42514
       5     O     4.28007  4.28007  0.00000 -0.56013
       6     C     3.15804  3.15804  0.00000 -0.31609
       7     H     0.39632  0.39632  0.00000  0.20735
       8     H     0.39948  0.39948  0.00000  0.20103
       9     C     3.15468  3.15468  0.00000 -0.30935
      10     H     0.40527  0.40527  0.00000  0.18946
      11     H     0.41407  0.41407  0.00000  0.17186
      12     C     3.15511  3.15511  0.00000 -0.31022
      13     H     0.41791  0.41791  0.00000  0.16419
      14     H     0.42331  0.42331  0.00000  0.15337
      15     C     3.23929  3.23929  0.00000 -0.47858
      16     H     0.42051  0.42051  0.00000  0.15898
      17     H     0.42296  0.42296  0.00000  0.15408
      18     H     0.41818  0.41818  0.00000  0.16363
      19     H     0.42062  0.42062  0.00000  0.15876
      20     H     0.42132  0.42132  0.00000  0.15736

   Total alpha = 32.00000, Total beta = 32.00000, Total charge =  0.00000
