  ==> Input File <==

--------------------------------------------------------------------------
set {
	reference rhf
	basis cc-pvtz
}

set_num_threads( 4 )
memory 2 gb

molecule MOL {
0 1

O	 -2.440701	 -0.934798	 -0.415053
C	 -1.922978	 0.063265	 -0.045005
C	 -2.632749	 1.372204	 0.158357
O	 -0.637375	 0.157174	 0.243149
H	 -2.187724	 2.129143	 -0.474664
H	 -3.677681	 1.257276	 -0.079438
H	 -2.516788	 1.693160	 1.185542
C	 0.162530	 -1.009518	 0.097799
C	 1.587210	 -0.664190	 0.477086
H	 0.096803	 -1.356267	 -0.924704
H	 -0.233803	 -1.785900	 0.736810
C	 2.256770	 0.342732	 -0.454344
H	 2.154716	 -1.590834	 0.479041
H	 1.598751	 -0.289614	 1.496104
C	 3.727449	 0.025646	 -0.703692
H	 1.725268	 0.359445	 -1.402145
H	 2.166846	 1.337344	 -0.033031
H	 4.176534	 0.752536	 -1.370281
H	 3.847951	 -0.954316	 -1.153743
H	 4.291793	 0.034274	 0.222838

	symmetry c1
}
set optking {
	frozen_dihedral = ("
		16 12 9 8
	")
}

ee = optimize('scf')
oeprop('DIPOLE', 'QUADRUPOLE', 'MULLIKEN_CHARGES')
f=open( 'psi4out.xyz', 'w' )
f.write( "20  " )
f.write( str(ee) + "\n" )
f.write( MOL.save_string_xyz() )
f.close()
--------------------------------------------------------------------------

    Molecular point group: c1
  Charge       = 0
  Multiplicity = 1
  Basis Set: CC-PVTZ
  Basis Set:
  @DF-RHF Final Energy:  -384.08382042307915
    Total Energy =                       -384.0838204230797146
    Molecular point group: c1
  Basis Set: CC-PVTZ
  Basis Set:
  Basis Set: CC-PVTZ
  Basis Set:
  @DF-RHF Final Energy:  -384.08412096099755
    Total Energy =                       -384.0841209609974385
  Basis Set: CC-PVTZ
  Basis Set:
  Basis Set: CC-PVTZ
  Basis Set:
  @DF-RHF Final Energy:  -384.08400796634135
    Total Energy =                       -384.0840079663418010
  Basis Set: CC-PVTZ
  Basis Set:
  Basis Set: CC-PVTZ
  Basis Set:
  @DF-RHF Final Energy:  -384.08418469881309
    Total Energy =                       -384.0841846988126917
  Basis Set: CC-PVTZ
  Basis Set:
  Basis Set: CC-PVTZ
  Basis Set:
  @DF-RHF Final Energy:  -384.08418693772921
    Total Energy =                       -384.0841869377288731
  Basis Set: CC-PVTZ
  Basis Set:
  Basis Set: CC-PVTZ
  Basis Set:
  @DF-RHF Final Energy:  -384.08418929512658
    Total Energy =                       -384.0841892951268619
  Basis Set: CC-PVTZ
  Basis Set:
  Charge       = 0
  Multiplicity = 1
  Basis Set: CC-PVTZ
  Basis Set:

    Orbital Energies (a.u.)
    -----------------------

    Doubly Occupied:

       1A    -20.594012     2A    -20.532495     3A    -11.366417
       4A    -11.280289     5A    -11.231451     6A    -11.223455
       7A    -11.219395     8A    -11.212350     9A     -1.470744
      10A     -1.364877    11A     -1.086030    12A     -1.028880
      13A     -0.982591    14A     -0.881399    15A     -0.814169
      16A     -0.774748    17A     -0.692008    18A     -0.689324
      19A     -0.669753    20A     -0.629923    21A     -0.599627
      22A     -0.593486    23A     -0.573077    24A     -0.555344
      25A     -0.547542    26A     -0.531476    27A     -0.511281
      28A     -0.486385    29A     -0.476049    30A     -0.469948
      31A     -0.452032    32A     -0.441627

  @DF-RHF Final Energy:  -384.08418936408037

   => Energetics <=

    Nuclear Repulsion Energy =            385.5884460595462429
    One-Electron Energy =               -1287.3809029359772467
    Two-Electron Energy =                 517.7082675123508579
    DFT Exchange-Correlation Energy =       0.0000000000000000
    Empirical Dispersion Energy =           0.0000000000000000
    PCM Polarization Energy =               0.0000000000000000
    EFP Energy =                            0.0000000000000000
    Total Energy =                       -384.0841893640802027
    Molecular point group: c1
  Basis Set: CC-PVTZ
  Basis Set:

  -Total Gradient:
     Atom            X                  Y                   Z
    ------   -----------------  -----------------  -----------------
       1        0.000007558243     0.000002924418     0.000001855134
       2       -0.000007599795     0.000004525905    -0.000006475299
       3       -0.000004314373     0.000000336278     0.000004598345
       4        0.000000704623    -0.000003601364    -0.000002202969
       5       -0.000000111006    -0.000001070554    -0.000001265269
       6       -0.000001242200     0.000001793753    -0.000000107358
       7        0.000000536465     0.000000805296    -0.000001308634
       8        0.000924646632    -0.002147527996    -0.001680474015
       9       -0.001849655533     0.003666845137     0.002729195426
      10        0.000000685698    -0.000002021369    -0.000001876221
      11        0.000002051406     0.000001324442    -0.000002370267
      12        0.003222839299    -0.004318143100    -0.002481103247
      13       -0.000000420203    -0.000001346129     0.000000476667
      14       -0.000001855784    -0.000003768024    -0.000002474660
      15        0.000008167248     0.000000801840    -0.000001177291
      16       -0.002301374207     0.002797937837     0.001446993001
      17       -0.000002193748     0.000001602915    -0.000003573277
      18       -0.000000711200    -0.000001730375     0.000000356857
      19        0.000000734807    -0.000000660816     0.000001078288
      20        0.000001553623     0.000000971902    -0.000000145212

  **** Optimization is complete! (in 7 steps) ****
    Final optimized geometry and variables:
    Molecular point group: c1

    Geometry (in Angstrom), charge = 0, multiplicity = 1:

    O           -2.448790770686    -0.848943324752    -0.318077040445
    C           -1.919564728118     0.148140150871     0.038179946515
    C           -2.612036144404     1.469824189098     0.214698470634
    O           -0.634198694787     0.228695143411     0.330950514721
    H           -2.151892124126     2.209332434913    -0.427950300126
    H           -3.657034742473     1.365748359522    -0.027832627544
    H           -2.497723718592     1.806156770339     1.237084362335
    C            0.150243852216    -0.951706806210     0.208676355231
    C            1.581977199594    -0.612536824922     0.560876953108
    H            0.073662021551    -1.321556039072    -0.804611390314
    H           -0.249076161664    -1.707572879333     0.870258673060
    C            2.237048247598     0.412616308590    -0.377256932561
    H            2.133555784277    -1.547842209879     0.519370377350
    H            1.632369977249    -0.272399606209     1.589149397141
    C            3.715353139508     0.141915438048    -0.629567594057
    H            1.693054496187     0.450092640244    -1.315802275214
    H            2.124244964750     1.403833052816     0.048218705111
    H            4.152308175865     0.908021752602    -1.259410103417
    H            3.860830946956    -0.814737167899    -1.120095891746
    H            4.272492840343     0.122353849056     0.301477451367

  Mulliken Charges: (a.u.)
   Center  Symbol    Alpha    Beta     Spin     Total
       1     O     4.19752  4.19752  0.00000 -0.39505
       2     C     2.80948  2.80948  0.00000  0.38103
       3     C     3.13811  3.13811  0.00000 -0.27622
       4     O     4.15410  4.15410  0.00000 -0.30819
       5     H     0.44596  0.44596  0.00000  0.10808
       6     H     0.43803  0.43803  0.00000  0.12394
       7     H     0.44574  0.44574  0.00000  0.10852
       8     C     2.99252  2.99252  0.00000  0.01496
       9     C     3.08701  3.08701  0.00000 -0.17403
      10     H     0.45150  0.45150  0.00000  0.09701
      11     H     0.44479  0.44479  0.00000  0.11043
      12     C     3.08361  3.08361  0.00000 -0.16722
      13     H     0.45340  0.45340  0.00000  0.09319
      14     H     0.44922  0.44922  0.00000  0.10157
      15     C     3.14850  3.14850  0.00000 -0.29701
      16     H     0.45340  0.45340  0.00000  0.09319
      17     H     0.44931  0.44931  0.00000  0.10139
      18     H     0.44811  0.44811  0.00000  0.10377
      19     H     0.45561  0.45561  0.00000  0.08879
      20     H     0.45407  0.45407  0.00000  0.09186

   Total alpha = 32.00000, Total beta = 32.00000, Total charge =  0.00000
