  ==> Input File <==

--------------------------------------------------------------------------
set {
	reference rhf
	basis 6-31G*
}

set_num_threads( 4 )
memory 2 gb

molecule MOL {
0 1

H	 -2.273092	 1.173159	 0.000295
O	 -1.438904	 1.618192	 0.000114
C	 -0.409536	 0.736003	 0.000030
C	 -0.731335	 -0.594895	 0.215332
C	 0.910732	 1.130909	 -0.204621
H	 -1.761969	 -0.856116	 0.368788
C	 0.265646	 -1.551637	 0.228899
C	 1.892573	 0.147740	 -0.185787
C	 1.259798	 2.583536	 -0.439217
H	 0.009376	 -2.582530	 0.396465
C	 1.586559	 -1.184548	 0.027872
H	 2.917478	 0.436582	 -0.342265
H	 0.973991	 3.211542	 0.402130
H	 2.326788	 2.702938	 -0.577971
H	 0.774733	 2.979865	 -1.328954
H	 2.367142	 -1.923334	 0.037122

	symmetry c1
}
set optking {
	frozen_dihedral = ("
		4 3 2 1
	")
}

ee = optimize('scf')
oeprop('DIPOLE', 'QUADRUPOLE', 'MULLIKEN_CHARGES')
f=open( 'psi4out.xyz', 'w' )
f.write( "16  " )
f.write( str(ee) + "\n" )
f.write( MOL.save_string_xyz() )
f.close()
--------------------------------------------------------------------------

    Molecular point group: c1
  Charge       = 0
  Multiplicity = 1
  Basis Set: 6-31G*
  Basis Set:
  @DF-RHF Final Energy:  -344.59215468707896
    Total Energy =                       -344.5921546870789598
    Molecular point group: c1
  Basis Set: 6-31G*
  Basis Set:
  Basis Set: 6-31G*
  Basis Set:
  @DF-RHF Final Energy:  -344.59466306120112
    Total Energy =                       -344.5946630612010040
  Basis Set: 6-31G*
  Basis Set:
  Basis Set: 6-31G*
  Basis Set:
  @DF-RHF Final Energy:  -344.59490527385805
    Total Energy =                       -344.5949052738581031
  Basis Set: 6-31G*
  Basis Set:
  Basis Set: 6-31G*
  Basis Set:
  @DF-RHF Final Energy:  -344.59492854990185
    Total Energy =                       -344.5949285499016810
  Basis Set: 6-31G*
  Basis Set:
  Basis Set: 6-31G*
  Basis Set:
  @DF-RHF Final Energy:  -344.59493332582883
    Total Energy =                       -344.5949333258290608
  Basis Set: 6-31G*
  Basis Set:
  Charge       = 0
  Multiplicity = 1
  Basis Set: 6-31G*
  Basis Set:

    Orbital Energies (a.u.)
    -----------------------

    Doubly Occupied:

       1A    -20.589358     2A    -11.292594     3A    -11.231458
       4A    -11.229744     5A    -11.227981     6A    -11.226000
       7A    -11.219334     8A    -11.212666     9A     -1.407182
      10A     -1.147972    11A     -1.043519    12A     -1.002617
      13A     -0.928570    14A     -0.844182    15A     -0.798778
      16A     -0.730716    17A     -0.671055    18A     -0.649843
      19A     -0.603329    20A     -0.596504    21A     -0.576809
      22A     -0.556821    23A     -0.547580    24A     -0.538900
      25A     -0.499403    26A     -0.480465    27A     -0.472430
      28A     -0.329341    29A     -0.303670

  @DF-RHF Final Energy:  -344.59493345907930

   => Energetics <=

    Nuclear Repulsion Energy =            350.2133651061291744
    One-Electron Energy =               -1161.6989543869663066
    Two-Electron Energy =                 466.8906558217578322
    DFT Exchange-Correlation Energy =       0.0000000000000000
    Empirical Dispersion Energy =           0.0000000000000000
    PCM Polarization Energy =               0.0000000000000000
    EFP Energy =                            0.0000000000000000
    Total Energy =                       -344.5949334590792432
    Molecular point group: c1
  Basis Set: 6-31G*
  Basis Set:

  -Total Gradient:
     Atom            X                  Y                   Z
    ------   -----------------  -----------------  -----------------
       1        0.000005780153    -0.000003870705    -0.000981797954
       2        0.000003895566     0.000080814500     0.001550407202
       3       -0.000108611914    -0.000151025467    -0.001205112958
       4        0.000066436816     0.000093215995     0.000710586145
       5        0.000019348900    -0.000014908335    -0.000039891869
       6       -0.000001117626    -0.000001577904    -0.000004597206
       7       -0.000004362494    -0.000020227818    -0.000022591229
       8       -0.000010198697     0.000012601901    -0.000042667406
       9        0.000003135959    -0.000004444801     0.000009843970
      10        0.000006075216     0.000000825229    -0.000002698588
      11        0.000009841107     0.000015666817     0.000024564586
      12        0.000004378102     0.000004070891     0.000006323921
      13       -0.000000497507    -0.000007463313    -0.000000585869
      14        0.000006538311     0.000004827404    -0.000003003661
      15        0.000000413350    -0.000005882719    -0.000000049138
      16       -0.000001055236    -0.000002621678     0.000001270052

  **** Optimization is complete! (in 6 steps) ****
    Final optimized geometry and variables:
    Molecular point group: c1

    Geometry (in Angstrom), charge = 0, multiplicity = 1:

    H           -2.601480273509     0.876928681899     0.036155719757
    O           -1.735036079167     1.258601730592     0.032773931508
    C           -0.787345849884     0.287934691707     0.046259212412
    C           -1.103790965617    -1.040069683915     0.266009470786
    C            0.533930564353     0.690963665353    -0.153610372490
    H           -2.130056375118    -1.326514753722     0.426147177885
    C           -0.100661494701    -1.998799854657     0.280582026893
    C            1.514717648518    -0.285580463077    -0.130134467914
    C            0.853837064923     2.147172928096    -0.384708262551
    H           -0.355094639519    -3.029879356789     0.449342755133
    C            1.213048137703    -1.625100901758     0.083128687400
    H            2.539210091363     0.006042166069    -0.283604177725
    H            0.545676786497     2.755364230141     0.459280947961
    H            1.918327416878     2.286342186147    -0.533067951283
    H            0.335164882101     2.528409669650    -1.257955986674
    H            1.997583704048    -2.359756209943     0.093941138793

  Mulliken Charges: (a.u.)
   Center  Symbol    Alpha    Beta     Spin     Total
       1     H     0.27158  0.27158  0.00000  0.45685
       2     O     4.38055  4.38055  0.00000 -0.76109
       3     C     2.80657  2.80657  0.00000  0.38686
       4     C     3.13892  3.13892  0.00000 -0.27783
       5     C     3.00835  3.00835  0.00000 -0.01670
       6     H     0.40527  0.40527  0.00000  0.18946
       7     C     3.09558  3.09558  0.00000 -0.19116
       8     C     3.10738  3.10738  0.00000 -0.21476
       9     C     3.24188  3.24188  0.00000 -0.48375
      10     H     0.39934  0.39934  0.00000  0.20133
      11     C     3.10800  3.10800  0.00000 -0.21601
      12     H     0.40098  0.40098  0.00000  0.19804
      13     H     0.40797  0.40797  0.00000  0.18406
      14     H     0.41788  0.41788  0.00000  0.16423
      15     H     0.40856  0.40856  0.00000  0.18289
      16     H     0.40120  0.40120  0.00000  0.19759

   Total alpha = 29.00000, Total beta = 29.00000, Total charge = -0.00000
