  ==> Input File <==

--------------------------------------------------------------------------
set {
	reference rhf
	basis 6-31G*
}

set_num_threads( 1 )
memory 2 gb

molecule MOL {
0 1

H	 4.529490	 0.167147	 -0.893803
C	 3.703481	 -0.412796	 -0.494898
C	 2.405274	 0.392945	 -0.514964
H	 3.614826	 -1.314910	 -1.093694
H	 3.967988	 -0.711774	 0.515496
C	 1.217350	 -0.386724	 0.039429
H	 2.172336	 0.703279	 -1.528780
H	 2.538439	 1.304494	 0.065327
N	 0.000003	 0.397874	 -0.023260
H	 1.067988	 -1.283591	 -0.555789
H	 1.443431	 -0.724638	 1.056326
C	 -1.217365	 -0.386708	 0.039277
H	 -0.000031	 1.072115	 0.718656
C	 -2.452633	 0.504241	 -0.042481
H	 -1.215291	 -1.074557	 -0.802042
H	 -1.269739	 -1.003477	 0.942735
C	 -3.758029	 -0.289423	 -0.010781
H	 -2.394220	 1.093569	 -0.952170
H	 -2.440793	 1.210787	 0.785871
H	 -3.816659	 -0.981993	 -0.845726
H	 -4.617837	 0.370165	 -0.069296
H	 -3.847478	 -0.867502	 0.904682

	symmetry c1
}
set optking {
	frozen_dihedral = ("
		15 12 14 18
	")
}

ee = energy('scf')
oeprop('DIPOLE', 'QUADRUPOLE', 'MULLIKEN_CHARGES')
f=open( 'psi4out.xyz', 'w' )
f.write( "22  " )
f.write( str(ee) + "\n" )
f.write( MOL.save_string_xyz() )
f.close()
--------------------------------------------------------------------------

    Molecular point group: c1

    Geometry (in Angstrom), charge = 0, multiplicity = 1:

       Center              X                  Y                   Z               Mass
    ------------   -----------------  -----------------  -----------------  -----------------
           H          4.544251263283     0.201037048445    -0.756297226954     1.007825032070
           C          3.718242263283    -0.378905951555    -0.357392226954    12.000000000000
           C          2.420035263283     0.426835048445    -0.377458226954    12.000000000000
           H          3.629587263283    -1.281019951555    -0.956188226954     1.007825032070
           H          3.982749263283    -0.677883951555     0.653001773046     1.007825032070
           C          1.232111263283    -0.352833951555     0.176934773046    12.000000000000
           H          2.187097263283     0.737169048445    -1.391274226954     1.007825032070
           H          2.553200263283     1.338384048445     0.202832773046     1.007825032070
           N          0.014764263283     0.431764048445     0.114245773046    14.003074004780
           H          1.082749263283    -1.249700951555    -0.418283226954     1.007825032070
           H          1.458192263283    -0.690747951555     1.193831773046     1.007825032070
           C         -1.202603736717    -0.352817951555     0.176782773046    12.000000000000
           H          0.014730263283     1.106005048445     0.856161773046     1.007825032070
           C         -2.437871736717     0.538131048445     0.095024773046    12.000000000000
           H         -1.200529736717    -1.040666951555    -0.664536226954     1.007825032070
           H         -1.254977736717    -0.969586951555     1.080240773046     1.007825032070
           C         -3.743267736717    -0.255532951555     0.126724773046    12.000000000000
           H         -2.379458736717     1.127459048445    -0.814664226954     1.007825032070
           H         -2.426031736717     1.244677048445     0.923376773046     1.007825032070
           H         -3.801897736717    -0.948102951555    -0.708220226954     1.007825032070
           H         -4.603075736717     0.404055048445     0.068209773046     1.007825032070
           H         -3.832716736717    -0.833611951555     1.042187773046     1.007825032070

  Charge       = 0
  Multiplicity = 1
  Basis Set: 6-31G*
  Basis Set:

    Orbital Energies (a.u.)
    -----------------------

    Doubly Occupied:

       1A    -15.533388     2A    -11.238482     3A    -11.237969
       4A    -11.213623     5A    -11.209887     6A    -11.209659
       7A    -11.207539     8A     -1.205585     9A     -1.058176
      10A     -1.025217    11A     -0.927649    12A     -0.868855
      13A     -0.809043    14A     -0.792899    15A     -0.671193
      16A     -0.627145    17A     -0.614196    18A     -0.607298
      19A     -0.576155    20A     -0.561843    21A     -0.532353
      22A     -0.520921    23A     -0.516870    24A     -0.485210
      25A     -0.483545    26A     -0.473321    27A     -0.465216
      28A     -0.450638    29A     -0.357661

  @DF-RHF Final Energy:  -290.38197717289205

   => Energetics <=

    Nuclear Repulsion Energy =            313.3102637555464867
    One-Electron Energy =               -1012.4214485656005991
    Two-Electron Energy =                 408.7292076371600729
    DFT Exchange-Correlation Energy =       0.0000000000000000
    Empirical Dispersion Energy =           0.0000000000000000
    PCM Polarization Energy =               0.0000000000000000
    EFP Energy =                            0.0000000000000000
    Total Energy =                       -290.3819771728939827

  Mulliken Charges: (a.u.)
   Center  Symbol    Alpha    Beta     Spin     Total
       1     H     0.41802  0.41802  0.00000  0.16395
       2     C     3.24442  3.24442  0.00000 -0.48884
       3     C     3.14786  3.14786  0.00000 -0.29571
       4     H     0.42185  0.42185  0.00000  0.15630
       5     H     0.42258  0.42258  0.00000  0.15485
       6     C     3.05218  3.05218  0.00000 -0.10435
       7     H     0.41462  0.41462  0.00000  0.17076
       8     H     0.42607  0.42607  0.00000  0.14787
       9     N     3.85738  3.85738  0.00000 -0.71477
      10     H     0.42229  0.42229  0.00000  0.15542
      11     H     0.43424  0.43424  0.00000  0.13152
      12     C     3.04703  3.04703  0.00000 -0.09406
      13     H     0.33461  0.33461  0.00000  0.33079
      14     C     3.15584  3.15584  0.00000 -0.31167
      15     H     0.42135  0.42135  0.00000  0.15731
      16     H     0.43663  0.43663  0.00000  0.12674
      17     C     3.24328  3.24328  0.00000 -0.48657
      18     H     0.41299  0.41299  0.00000  0.17402
      19     H     0.42670  0.42670  0.00000  0.14660
      20     H     0.42075  0.42075  0.00000  0.15850
      21     H     0.41768  0.41768  0.00000  0.16464
      22     H     0.42164  0.42164  0.00000  0.15673

   Total alpha = 29.00000, Total beta = 29.00000, Total charge =  0.00000
