                              Psi4 1.0.54 Driver

  ==> Input File <==

--------------------------------------------------------------------------
set {
	reference rhf
	basis cc-pvtz
}

set_num_threads( 4 )
memory 2 gb

molecule MOL {
0 1

H	 -1.000894	 -3.586158	 1.001138
O	 -1.192568	 -2.751091	 0.601585
C	 -0.087100	 -2.011812	 0.620124
C	 -0.310616	 -0.658853	 0.000791
O	 0.926998	 -2.408190	 1.081056
C	 0.926581	 0.227233	 0.000178
H	 -1.129683	 -0.192841	 0.539020
H	 -0.677114	 -0.825841	 -1.006935
C	 2.220156	 -0.582071	 -0.000088
H	 0.899945	 0.878221	 -0.866390
H	 0.900542	 0.878581	 0.866486
C	 3.466689	 0.296012	 -0.000457
H	 2.239073	 -1.234095	 -0.869382
H	 2.239505	 -1.233985	 0.869270
H	 3.493549	 0.935857	 -0.875887
H	 4.368821	 -0.304526	 -0.001199
H	 3.494559	 0.935166	 0.875458

	symmetry c1
}
set optking {
	frozen_dihedral = ("
		7 4 6 10
	")
}

ee,wfn = optimize('scf', return_wfn=True)
oeprop( wfn, 'DIPOLE', 'QUADRUPOLE', 'MULLIKEN_CHARGES')
f=open( 'psi4out.xyz', 'w' )
f.write( "17  " )
f.write( str(ee) + "\n" )
f.write( MOL.save_string_xyz() )
f.close()
--------------------------------------------------------------------------

    Molecular point group: c1
  Charge       = 0
  Multiplicity = 1
  Basis Set: CC-PVTZ
  Basis Set:
  @DF-RHF Final Energy:  -345.02036190439321
    Total Energy =                       -345.0203619043932690
    Molecular point group: c1
  Basis Set: CC-PVTZ
  Basis Set:
  Basis Set: CC-PVTZ
  Basis Set:
  @DF-RHF Final Energy:  -345.03588744520778
    Total Energy =                       -345.0358874452078908
  Basis Set: CC-PVTZ
  Basis Set:
  Basis Set: CC-PVTZ
  Basis Set:
  @DF-RHF Final Energy:  -345.03839028061554
    Total Energy =                       -345.0383902806154879
  Basis Set: CC-PVTZ
  Basis Set:
  Basis Set: CC-PVTZ
  Basis Set:
  @DF-RHF Final Energy:  -345.03650713766547
    Total Energy =                       -345.0365071376654669
  Basis Set: CC-PVTZ
  Basis Set:
  @DF-RHF Final Energy:  -345.03999031655644
    Total Energy =                       -345.0399903165566116
  @DF-RHF Final Energy:  -345.04064426508745
    Total Energy =                       -345.0406442650873373
  @DF-RHF Final Energy:  -345.03717716277720
    Total Energy =                       -345.0371771627773114
  @DF-RHF Final Energy:  -345.04155933722905
    Total Energy =                       -345.0415593372290459
  @DF-RHF Final Energy:  -345.04188152997045
    Total Energy =                       -345.0418815299701123
  @DF-RHF Final Energy:  -345.04211720449331
    Total Energy =                       -345.0421172044930245
  @DF-RHF Final Energy:  -345.04217119107727
    Total Energy =                       -345.0421711910771023
  @DF-RHF Final Energy:  -345.04223900138777
    Total Energy =                       -345.0422390013878271
  @DF-RHF Final Energy:  -345.04231027967023
    Total Energy =                       -345.0423102796704029
  @DF-RHF Final Energy:  -345.04236457256127
    Total Energy =                       -345.0423645725612687
  Basis Set: CC-PVTZ
  Basis Set:
  @DF-RHF Final Energy:  -345.04239923798377
    Total Energy =                       -345.0423992379836022
  Basis Set: CC-PVTZ
  Basis Set:
  Basis Set: CC-PVTZ
  Basis Set:
  @DF-RHF Final Energy:  -345.04242105364125
    Total Energy =                       -345.0424210536415899
  Basis Set: CC-PVTZ
  Basis Set:
  Basis Set: CC-PVTZ
  Basis Set:
  @DF-RHF Final Energy:  -345.04242776696566
    Total Energy =                       -345.0424277669654316
  Basis Set: CC-PVTZ
  Basis Set:
  Charge       = 0
  Multiplicity = 1
  Basis Set: CC-PVTZ
  Basis Set:

    Orbital Energies (a.u.)
    -----------------------

    Doubly Occupied:

       1A    -20.605810     2A    -20.536981     3A    -11.372601
       4A    -11.238010     5A    -11.230876     6A    -11.220095
       7A    -11.211776     8A     -1.477529     9A     -1.367406
      10A     -1.092510    11A     -1.017564    12A     -0.911797
      13A     -0.838104    14A     -0.789429    15A     -0.706342
      16A     -0.685190    17A     -0.649677    18A     -0.642620
      19A     -0.593431    20A     -0.587091    21A     -0.575756
      22A     -0.540941    23A     -0.521425    24A     -0.489445
      25A     -0.484778    26A     -0.473279    27A     -0.466725
      28A     -0.440407

  @DF-RHF Final Energy:  -345.04242833441583

   => Energetics <=

    Nuclear Repulsion Energy =            314.1065984542509568
    One-Electron Energy =               -1092.7628621112705787
    Two-Electron Energy =                 433.6138353226037907
    DFT Exchange-Correlation Energy =       0.0000000000000000
    Empirical Dispersion Energy =           0.0000000000000000
    PCM Polarization Energy =               0.0000000000000000
    EFP Energy =                            0.0000000000000000
    Total Energy =                       -345.0424283344158312
    Molecular point group: c1
  Basis Set: CC-PVTZ
  Basis Set:

  -Total Gradient:
     Atom            X                  Y                   Z
    ------   -----------------  -----------------  -----------------
       1       -0.000002076038     0.000030736751    -0.000000018983
       2        0.000014367035    -0.000080400699    -0.000110924040
       3        0.000006733294     0.000069674530     0.000034480343
       4       -0.001509057542     0.002131309021    -0.006829716841
       5        0.000002970910     0.000003437685     0.000113129822
       6       -0.003103813875     0.004304827051     0.004648996131
       7        0.001698175847    -0.002420831262     0.005038486519
       8       -0.000002260892    -0.000005566218    -0.000021514380
       9       -0.000016430115     0.000034709537    -0.000044803799
      10        0.002900514527    -0.004030062413    -0.002881574637
      11        0.000001824863    -0.000000107666     0.000000851603
      12        0.000021906546     0.000010230381     0.000005038089
      13        0.000001473243    -0.000003527978     0.000012421036
      14       -0.000001395775    -0.000026727437     0.000033196883
      15       -0.000013543808    -0.000010089337    -0.000001247483
      16        0.000002211177    -0.000002769177    -0.000000803214
      17       -0.000001599396    -0.000004842767     0.000004002956

  **** Optimization is complete! (in 18 steps) ****
    Final optimized geometry and variables:
    Molecular point group: c1

    Geometry (in Angstrom), charge = 0, multiplicity = 1:

    H           -0.771639014043    -2.662406505154     0.187991556081
    O           -0.891761169921    -1.909252627025    -0.371466485419
    C           -1.006190668718    -0.831962508282     0.397349777797
    C           -1.193182640216     0.443003399563    -0.386160318857
    O           -0.961408623323    -0.895682284385     1.578595247897
    C            0.063240245068     1.341401835044    -0.374236125539
    H           -2.000415130121     0.952293709909     0.123078349490
    H           -1.490013767684     0.201908064621    -1.395529746398
    C            1.398425358025     0.594391079545    -0.398318688434
    H            0.028464073039     1.954778019588    -1.267901545889
    H            0.033444389442     1.997143479031     0.486326114825
    C            2.587115240189     1.544538265532    -0.497145394200
    H            1.414392528129    -0.092509480733    -1.239571333716
    H            1.500114702158    -0.007893837383     0.497757695092
    H            2.542237650863     2.137826215398    -1.404344277420
    H            3.522819948804     0.998158118263    -0.505339485947
    H            2.611165372572     2.228617099909     0.344395109295

  Mulliken Charges: (a.u.)
   Center  Symbol    Alpha    Beta     Spin     Total
       1     H     0.38055  0.38055  0.00000  0.23889
       2     O     4.16575  4.16575  0.00000 -0.33149
       3     C     2.79040  2.79040  0.00000  0.41919
       4     C     3.10483  3.10483  0.00000 -0.20966
       5     O     4.20338  4.20338  0.00000 -0.40676
       6     C     3.08883  3.08883  0.00000 -0.17767
       7     H     0.43547  0.43547  0.00000  0.12905
       8     H     0.43760  0.43760  0.00000  0.12481
       9     C     3.09581  3.09581  0.00000 -0.19163
      10     H     0.45034  0.45034  0.00000  0.09931
      11     H     0.44594  0.44594  0.00000  0.10813
      12     C     3.15108  3.15108  0.00000 -0.30217
      13     H     0.44777  0.44777  0.00000  0.10447
      14     H     0.44642  0.44642  0.00000  0.10717
      15     H     0.45531  0.45531  0.00000  0.08938
      16     H     0.44698  0.44698  0.00000  0.10604
      17     H     0.45353  0.45353  0.00000  0.09294

   Total alpha = 28.00000, Total beta = 28.00000, Total charge =  0.00000

*** Psi4 exiting successfully. Buy a developer a beer!
