                              Psi4 1.0.54 Driver

  ==> Input File <==

--------------------------------------------------------------------------
set {
	reference rhf
	basis cc-pvtz
}

set_num_threads( 4 )
memory 2 gb

molecule MOL {
0 1

H	 2.036630	 -0.752532	 1.275156
C	 1.948180	 -0.217873	 0.320185
C	 0.692262	 0.592428	 0.156232
O	 2.804527	 -0.308595	 -0.489798
C	 -0.554654	 -0.292621	 0.086567
H	 0.791858	 1.203694	 -0.731051
H	 0.617379	 1.254358	 1.016534
C	 -1.846385	 0.513195	 -0.016346
H	 -0.473986	 -0.956115	 -0.769708
H	 -0.597929	 -0.929215	 0.966651
C	 -3.089953	 -0.365049	 -0.098564
H	 -1.798267	 1.154820	 -0.891143
H	 -1.925398	 1.173265	 0.842889
H	 -3.055079	 -1.012299	 -0.968245
H	 -3.988403	 0.236438	 -0.170014
H	 -3.183055	 -0.995885	 0.779079

	symmetry c1
}
set optking {
	frozen_dihedral = ("
		4 2 3 6
	")
}

ee,wfn = optimize('scf', return_wfn=True)
oeprop( wfn, 'DIPOLE', 'QUADRUPOLE', 'MULLIKEN_CHARGES')
f=open( 'psi4out.xyz', 'w' )
f.write( "16  " )
f.write( str(ee) + "\n" )
f.write( MOL.save_string_xyz() )
f.close()
--------------------------------------------------------------------------

    Molecular point group: c1
  Charge       = 0
  Multiplicity = 1
  Basis Set: CC-PVTZ
  Basis Set:
  @DF-RHF Final Energy:  -270.11913284743099
    Total Energy =                       -270.1191328474312741
    Molecular point group: c1
  Basis Set: CC-PVTZ
  Basis Set:
  Basis Set: CC-PVTZ
  Basis Set:
  @DF-RHF Final Energy:  -270.11879646088482
    Total Energy =                       -270.1187964608847665
  Basis Set: CC-PVTZ
  Basis Set:
  Basis Set: CC-PVTZ
  Basis Set:
  @DF-RHF Final Energy:  -270.11915052510153
    Total Energy =                       -270.1191505251017588
  Basis Set: CC-PVTZ
  Basis Set:
  Basis Set: CC-PVTZ
  Basis Set:
  @DF-RHF Final Energy:  -270.11915686715110
    Total Energy =                       -270.1191568671514460
  Basis Set: CC-PVTZ
  Basis Set:
  Basis Set: CC-PVTZ
  Basis Set:
  @DF-RHF Final Energy:  -270.11915695243994
    Total Energy =                       -270.1191569524399938
  Basis Set: CC-PVTZ
  Basis Set:
  Charge       = 0
  Multiplicity = 1
  Basis Set: CC-PVTZ
  Basis Set:

    Orbital Energies (a.u.)
    -----------------------

    Doubly Occupied:

       1A    -20.552123     2A    -11.321218     3A    -11.234769
       4A    -11.233837     5A    -11.227331     6A    -11.216486
       7A     -1.406861     8A     -1.097641     9A     -1.019937
      10A     -0.906883    11A     -0.812717    12A     -0.792928
      13A     -0.682459    14A     -0.648402    15A     -0.633742
      16A     -0.604592    17A     -0.580892    18A     -0.553558
      19A     -0.529146    20A     -0.511883    21A     -0.488332
      22A     -0.481927    23A     -0.480265    24A     -0.411370

  @DF-RHF Final Energy:  -270.11915850941421

   => Energetics <=

    Nuclear Repulsion Energy =            229.6895608241203206
    One-Electron Energy =                -820.7588371604140320
    Two-Electron Energy =                 320.9501178268794774
    DFT Exchange-Correlation Energy =       0.0000000000000000
    Empirical Dispersion Energy =           0.0000000000000000
    PCM Polarization Energy =               0.0000000000000000
    EFP Energy =                            0.0000000000000000
    Total Energy =                       -270.1191585094142056
    Molecular point group: c1
  Basis Set: CC-PVTZ
  Basis Set:

  -Total Gradient:
     Atom            X                  Y                   Z
    ------   -----------------  -----------------  -----------------
       1       -0.000006678783     0.000006274974    -0.000004746815
       2        0.000491236523     0.000781605396     0.000411630387
       3       -0.000441275184    -0.000758273019    -0.000494456680
       4       -0.000292853275    -0.000475651846    -0.000228135071
       5        0.000022544632     0.000017992716     0.000003215522
       6        0.000238193294     0.000431867887     0.000307062348
       7        0.000004518125     0.000006198783     0.000001503653
       8       -0.000012553728     0.000000060293     0.000008751625
       9       -0.000003975992    -0.000004571607    -0.000002939086
      10       -0.000003816694    -0.000002980014     0.000003034013
      11        0.000003127903     0.000000967485    -0.000006480686
      12        0.000003068954    -0.000001845409     0.000000593482
      13        0.000002546296    -0.000000565662     0.000002981338
      14       -0.000001214841    -0.000004014167    -0.000003011768
      15       -0.000003323087     0.000001768396    -0.000002175967
      16        0.000000455864     0.000001165795     0.000003173707

  **** Optimization is complete! (in 6 steps) ****
    Final optimized geometry and variables:
    Molecular point group: c1

    Geometry (in Angstrom), charge = 0, multiplicity = 1:

    H            2.036458873494    -0.738986432665     1.285935063820
    C            1.956238072837    -0.196936660872     0.334510319219
    C            0.706519607433     0.622230359172     0.168467230668
    O            2.808429946970    -0.299828579661    -0.478508929895
    C           -0.538987714301    -0.266808892737     0.099519746685
    H            0.806679231547     1.226602180481    -0.723521021495
    H            0.627101190466     1.288469717094     1.024318225866
    C           -1.832667076300     0.536139828235    -0.001556154025
    H           -0.455285324617    -0.928605074472    -0.757315364587
    H           -0.579776988705    -0.904156194852     0.979313651079
    C           -3.073683798373    -0.345492420161    -0.086441486606
    H           -1.785735100770     1.179773023183    -0.874938214396
    H           -1.913851556164     1.193877354080     0.859230740822
    H           -3.036144790449    -0.991151682797    -0.957172502384
    H           -3.973719154977     0.253672462673    -0.157689561166
    H           -3.165833487167    -0.978055669006     0.790063684140

  Mulliken Charges: (a.u.)
   Center  Symbol    Alpha    Beta     Spin     Total
       1     H     0.46432  0.46432  0.00000  0.07136
       2     C     2.91007  2.91007  0.00000  0.17986
       3     C     3.07626  3.07626  0.00000 -0.15252
       4     O     4.16502  4.16502  0.00000 -0.33003
       5     C     3.10161  3.10161  0.00000 -0.20323
       6     H     0.44278  0.44278  0.00000  0.11445
       7     H     0.45109  0.45109  0.00000  0.09783
       8     C     3.08470  3.08470  0.00000 -0.16940
       9     H     0.44466  0.44466  0.00000  0.11068
      10     H     0.45196  0.45196  0.00000  0.09608
      11     C     3.14912  3.14912  0.00000 -0.29824
      12     H     0.45072  0.45072  0.00000  0.09855
      13     H     0.45337  0.45337  0.00000  0.09327
      14     H     0.45304  0.45304  0.00000  0.09391
      15     H     0.44672  0.44672  0.00000  0.10656
      16     H     0.45457  0.45457  0.00000  0.09086

   Total alpha = 24.00000, Total beta = 24.00000, Total charge = -0.00000

*** Psi4 exiting successfully. Buy a developer a beer!
