  ==> Input File <==

--------------------------------------------------------------------------
set {
	reference rhf
	basis 6-31G*
}

set_num_threads( 4 )
memory 2 gb

molecule MOL {
0 1

O	 -2.407301	 -0.878265	 -0.581996
C	 -1.921153	 0.064240	 -0.045697
C	 -2.670520	 1.299468	 0.375026
O	 -0.632575	 0.154573	 0.251549
H	 -2.252489	 2.168065	 -0.120692
H	 -3.714457	 1.194687	 0.119974
H	 -2.562127	 1.447368	 1.443265
C	 0.160891	 -1.019931	 0.106212
C	 1.589627	 -0.672828	 0.480843
H	 0.089836	 -1.367806	 -0.916050
H	 -0.238459	 -1.792301	 0.749618
C	 2.246377	 0.346236	 -0.452210
H	 2.163194	 -1.597435	 0.473358
H	 1.604769	 -0.303424	 1.502885
C	 3.691736	 0.652107	 -0.061850
H	 2.219579	 -0.032311	 -1.472055
H	 1.666466	 1.263317	 -0.447249
H	 4.134505	 1.377213	 -0.737283
H	 4.305508	 -0.243868	 -0.089969
H	 3.748266	 1.059562	 0.943567

	symmetry c1
}
set optking {
	frozen_dihedral = ("
		1 2 4 8
	")
}

ee = optimize('scf')
oeprop('DIPOLE', 'QUADRUPOLE', 'MULLIKEN_CHARGES')
f=open( 'psi4out.xyz', 'w' )
f.write( "20  " )
f.write( str(ee) + "\n" )
f.write( MOL.save_string_xyz() )
f.close()
--------------------------------------------------------------------------

    Molecular point group: c1
  Charge       = 0
  Multiplicity = 1
  Basis Set: 6-31G*
  Basis Set:
  @DF-RHF Final Energy:  -383.94506073067885
    Total Energy =                       -383.9450607306789607
    Molecular point group: c1
  Basis Set: 6-31G*
  Basis Set:
  Basis Set: 6-31G*
  Basis Set:
  @DF-RHF Final Energy:  -383.94418732719515
    Total Energy =                       -383.9441873271950953
  Basis Set: 6-31G*
  Basis Set:
  Basis Set: 6-31G*
  Basis Set:
  @DF-RHF Final Energy:  -383.94510141981465
    Total Energy =                       -383.9451014198147050
  Basis Set: 6-31G*
  Basis Set:
  Basis Set: 6-31G*
  Basis Set:
  @DF-RHF Final Energy:  -383.94512311831181
    Total Energy =                       -383.9451231183116988
  Basis Set: 6-31G*
  Basis Set:
  Basis Set: 6-31G*
  Basis Set:
  @DF-RHF Final Energy:  -383.94512471029907
    Total Energy =                       -383.9451247102994103
  Basis Set: 6-31G*
  Basis Set:
  Charge       = 0
  Multiplicity = 1
  Basis Set: 6-31G*
  Basis Set:

    Orbital Energies (a.u.)
    -----------------------

    Doubly Occupied:

       1A    -20.601324     2A    -20.544338     3A    -11.374608
       4A    -11.282638     5A    -11.233460     6A    -11.225581
       7A    -11.220373     8A    -11.213292     9A     -1.467675
      10A     -1.362316    11A     -1.085992    12A     -1.028054
      13A     -0.981507    14A     -0.880137    15A     -0.811508
      16A     -0.774804    17A     -0.689853    18A     -0.683341
      19A     -0.667256    20A     -0.631070    21A     -0.601198
      22A     -0.592447    23A     -0.572633    24A     -0.548331
      25A     -0.545103    26A     -0.534325    27A     -0.510576
      28A     -0.484116    29A     -0.474651    30A     -0.471148
      31A     -0.449126    32A     -0.438623

  @DF-RHF Final Energy:  -383.94512534647043

   => Energetics <=

    Nuclear Repulsion Energy =            384.9805459446707232
    One-Electron Energy =               -1285.8885413430145945
    Two-Electron Energy =                 516.9628700518730966
    DFT Exchange-Correlation Energy =       0.0000000000000000
    Empirical Dispersion Energy =           0.0000000000000000
    PCM Polarization Energy =               0.0000000000000000
    EFP Energy =                            0.0000000000000000
    Total Energy =                       -383.9451253464708316
    Molecular point group: c1
  Basis Set: 6-31G*
  Basis Set:

  -Total Gradient:
     Atom            X                  Y                   Z
    ------   -----------------  -----------------  -----------------
       1        0.000486036941     0.001377337420    -0.003190727528
       2       -0.000900045909    -0.002390138046     0.006073166765
       3        0.000015545920    -0.000016390723     0.000029943243
       4        0.000850189480     0.001596352164    -0.005395797213
       5       -0.000000283995     0.000004693500    -0.000032782004
       6        0.000005550523    -0.000005025607    -0.000006432240
       7        0.000011679346     0.000020359759    -0.000025371442
       8       -0.000454705770    -0.000603111287     0.002552418892
       9       -0.000016421151     0.000030437850     0.000031089653
      10       -0.000011939821    -0.000015205048    -0.000018618468
      11        0.000005885002     0.000016855401    -0.000004870760
      12        0.000007209774    -0.000014333014    -0.000014817407
      13       -0.000014255625     0.000001126611    -0.000009102184
      14        0.000020281067    -0.000001603893     0.000012447921
      15       -0.000010399819     0.000006866540     0.000010939548
      16        0.000005104899    -0.000001185469    -0.000009203008
      17        0.000005179410    -0.000009532934    -0.000003501940
      18       -0.000004121052     0.000003364653     0.000002065560
      19       -0.000004403591     0.000001972776    -0.000005230482
      20        0.000003914374    -0.000002840652     0.000004383094

  **** Optimization is complete! (in 6 steps) ****
    Final optimized geometry and variables:
    Molecular point group: c1

    Geometry (in Angstrom), charge = 0, multiplicity = 1:

    O           -2.429422546949    -0.903610280734    -0.516441385791
    C           -1.926848283049     0.056919263576    -0.029811929034
    C           -2.661464227266     1.311476757085     0.358564612658
    O           -0.626855889103     0.162899991902     0.208712168774
    H           -2.243592313736     2.158994536686    -0.172427389786
    H           -3.709592837958     1.206182489436     0.121505143120
    H           -2.537163954765     1.495215022444     1.419575413927
    C            0.167400840269    -1.011365149715     0.063969120791
    C            1.593073853327    -0.667015344318     0.452372475631
    H            0.105465148831    -1.356287795982    -0.959646827288
    H           -0.238551183994    -1.785288535708     0.701905158229
    C            2.257438559135     0.356150368171    -0.470666262188
    H            2.166293185437    -1.591879753963     0.445233617561
    H            1.600170250289    -0.302103318714     1.476096034044
    C            3.698102315226     0.663504329443    -0.064384150039
    H            2.241820366193    -0.019596490289    -1.491684125737
    H            1.675556830379     1.272013558849    -0.469305336822
    H            4.146771310899     1.390697580715    -0.733646911913
    H            4.313766331645    -0.231359182081    -0.087724050541
    H            3.743389052738     1.069099910622     0.942366044312

  Mulliken Charges: (a.u.)
   Center  Symbol    Alpha    Beta     Spin     Total
       1     O     4.28267  4.28267  0.00000 -0.56534
       2     C     2.61918  2.61918  0.00000  0.76164
       3     C     3.28174  3.28174  0.00000 -0.56349
       4     O     4.30895  4.30895  0.00000 -0.61789
       5     H     0.40017  0.40017  0.00000  0.19967
       6     H     0.39691  0.39691  0.00000  0.20617
       7     H     0.40131  0.40131  0.00000  0.19739
       8     C     3.00273  3.00273  0.00000 -0.00546
       9     C     3.16451  3.16451  0.00000 -0.32901
      10     H     0.40933  0.40933  0.00000  0.18135
      11     H     0.40985  0.40985  0.00000  0.18031
      12     C     3.15511  3.15511  0.00000 -0.31021
      13     H     0.41832  0.41832  0.00000  0.16337
      14     H     0.41500  0.41500  0.00000  0.16999
      15     C     3.24040  3.24040  0.00000 -0.48081
      16     H     0.42240  0.42240  0.00000  0.15520
      17     H     0.41155  0.41155  0.00000  0.17690
      18     H     0.41748  0.41748  0.00000  0.16505
      19     H     0.42172  0.42172  0.00000  0.15657
      20     H     0.42069  0.42069  0.00000  0.15862

   Total alpha = 32.00000, Total beta = 32.00000, Total charge =  0.00000
