  ==> Input File <==

--------------------------------------------------------------------------
set {
	reference rhf
	basis 6-31G*
}

set_num_threads( 1 )
memory 2 gb

molecule MOL {
0 1

O	 -1.766130	 -0.126053	 -2.171424
C	 -2.109299	 -0.630772	 -1.150587
C	 -3.304237	 -1.540317	 -1.023627
O	 -1.481751	 -0.454642	 0.000584
H	 -3.171947	 -2.383725	 -1.690729
H	 -3.438222	 -1.890610	 -0.010819
H	 -4.187122	 -1.002009	 -1.347074
C	 -0.334255	 0.388708	 0.000906
C	 0.891947	 -0.504646	 0.000751
H	 -0.365390	 1.025305	 -0.873475
H	 -0.365484	 1.024911	 0.875569
C	 2.191998	 0.301789	 0.000897
H	 0.855148	 -1.151283	 -0.871571
H	 0.855132	 -1.151660	 0.872805
C	 3.441114	 -0.581407	 0.000108
H	 2.215074	 0.954890	 -0.869742
H	 2.215465	 0.953923	 0.872248
C	 4.739576	 0.224112	 -0.001102
H	 3.419457	 -1.233487	 -0.870178
H	 3.420834	 -1.233096	 0.870717
H	 4.804918	 0.861552	 -0.878265
H	 5.606527	 -0.429058	 -0.001824
H	 4.806469	 0.861674	 0.875853

	symmetry c1
}
set optking {
	frozen_dihedral = ("
		13 9 8 10,
		16 12 9 13,
		19 15 12 16,
		1 2 4 8
	")
}

ee = energy('scf')
oeprop('DIPOLE', 'QUADRUPOLE', 'MULLIKEN_CHARGES')
f=open( 'psi4out.xyz', 'w' )
f.write( "23  " )
f.write( str(ee) + "\n" )
f.write( MOL.save_string_xyz() )
f.close()
--------------------------------------------------------------------------

    Molecular point group: c1

    Geometry (in Angstrom), charge = 0, multiplicity = 1:

       Center              X                  Y                   Z               Mass
    ------------   -----------------  -----------------  -----------------  -----------------
           O         -2.004823357272     0.198535317532    -1.680533325128    15.994914619560
           C         -2.347992357272    -0.306183682468    -0.659696325128    12.000000000000
           C         -3.542930357272    -1.215728682468    -0.532736325128    12.000000000000
           O         -1.720444357272    -0.130053682468     0.491474674872    15.994914619560
           H         -3.410640357272    -2.059136682468    -1.199838325128     1.007825032070
           H         -3.676915357272    -1.566021682468     0.480071674872     1.007825032070
           H         -4.425815357272    -0.677420682468    -0.856183325128     1.007825032070
           C         -0.572948357272     0.713296317532     0.491796674872    12.000000000000
           C          0.653253642728    -0.180057682468     0.491641674872    12.000000000000
           H         -0.604083357272     1.349893317532    -0.382584325128     1.007825032070
           H         -0.604177357272     1.349499317532     1.366459674872     1.007825032070
           C          1.953304642728     0.626377317532     0.491787674872    12.000000000000
           H          0.616454642728    -0.826694682468    -0.380680325128     1.007825032070
           H          0.616438642728    -0.827071682468     1.363695674872     1.007825032070
           C          3.202420642728    -0.256818682468     0.490998674872    12.000000000000
           H          1.976380642728     1.279478317532    -0.378851325128     1.007825032070
           H          1.976771642728     1.278511317532     1.363138674872     1.007825032070
           C          4.500882642728     0.548700317532     0.489788674872    12.000000000000
           H          3.180763642728    -0.908898682468    -0.379287325128     1.007825032070
           H          3.182140642728    -0.908507682468     1.361607674872     1.007825032070
           H          4.566224642728     1.186140317532    -0.387374325128     1.007825032070
           H          5.367833642728    -0.104469682468     0.489066674872     1.007825032070
           H          4.567775642728     1.186262317532     1.366743674872     1.007825032070

  Charge       = 0
  Multiplicity = 1
  Basis Set: 6-31G*
  Basis Set:

    Orbital Energies (a.u.)
    -----------------------

    Doubly Occupied:

       1A    -20.603040     2A    -20.540637     3A    -11.376027
       4A    -11.278623     5A    -11.233266     6A    -11.221062
       7A    -11.220371     8A    -11.219205     9A    -11.211003
      10A     -1.469095    11A     -1.361584    12A     -1.091233
      13A     -1.041091    14A     -1.002402    15A     -0.930104
      16A     -0.846659    17A     -0.799082    18A     -0.770552
      19A     -0.700603    20A     -0.680654    21A     -0.656737
      22A     -0.648245    23A     -0.603205    24A     -0.588099
      25A     -0.585221    26A     -0.572575    27A     -0.549552
      28A     -0.539222    29A     -0.521529    30A     -0.511154
      31A     -0.485186    32A     -0.478218    33A     -0.473561
      34A     -0.468244    35A     -0.439072    36A     -0.434562

  @DF-RHF Final Energy:  -422.97709348259878

   => Energetics <=

    Nuclear Repulsion Energy =            456.1458027117037091
    One-Electron Energy =               -1479.9444631083581498
    Two-Electron Energy =                 600.8215669140555519
    DFT Exchange-Correlation Energy =       0.0000000000000000
    Empirical Dispersion Energy =           0.0000000000000000
    PCM Polarization Energy =               0.0000000000000000
    EFP Energy =                            0.0000000000000000
    Total Energy =                       -422.9770934825988888

  Mulliken Charges: (a.u.)
   Center  Symbol    Alpha    Beta     Spin     Total
       1     O     4.28529  4.28529  0.00000 -0.57058
       2     C     2.61496  2.61496  0.00000  0.77008
       3     C     3.28841  3.28841  0.00000 -0.57683
       4     O     4.31074  4.31074  0.00000 -0.62147
       5     H     0.39752  0.39752  0.00000  0.20495
       6     H     0.39940  0.39940  0.00000  0.20121
       7     H     0.39709  0.39709  0.00000  0.20582
       8     C     3.01149  3.01149  0.00000 -0.02298
       9     C     3.16292  3.16292  0.00000 -0.32584
      10     H     0.39433  0.39433  0.00000  0.21133
      11     H     0.41155  0.41155  0.00000  0.17690
      12     C     3.16147  3.16147  0.00000 -0.32294
      13     H     0.41257  0.41257  0.00000  0.17486
      14     H     0.41560  0.41560  0.00000  0.16881
      15     C     3.15138  3.15138  0.00000 -0.30276
      16     H     0.41881  0.41881  0.00000  0.16239
      17     H     0.42323  0.42323  0.00000  0.15355
      18     C     3.23980  3.23980  0.00000 -0.47960
      19     H     0.42062  0.42062  0.00000  0.15876
      20     H     0.42220  0.42220  0.00000  0.15560
      21     H     0.42057  0.42057  0.00000  0.15887
      22     H     0.41836  0.41836  0.00000  0.16328
      23     H     0.42170  0.42170  0.00000  0.15660

   Total alpha = 36.00000, Total beta = 36.00000, Total charge = -0.00000
