                              Psi4 1.0.54 Driver

  ==> Input File <==

--------------------------------------------------------------------------
set {
	reference rhf
	basis cc-pvtz
}

set_num_threads( 4 )
memory 2 gb

molecule MOL {
0 1

H	 3.889604	 0.356866	 -0.089510
N	 3.091268	 -0.241216	 -0.065538
C	 1.860978	 0.530248	 0.016256
H	 3.192566	 -0.835836	 0.730398
C	 0.644130	 -0.381765	 -0.031064
H	 1.835721	 1.204666	 -0.833114
H	 1.808789	 1.151975	 0.911067
C	 -0.678115	 0.376691	 0.025731
H	 0.693998	 -0.977147	 -0.936845
H	 0.693309	 -1.082142	 0.800523
C	 -0.528717	 1.816484	 0.509343
H	 -1.366726	 -0.149954	 0.682552
H	 -1.139307	 0.377715	 -0.959242
C	 -1.853552	 2.569284	 0.570826
H	 -0.067678	 1.817692	 1.493077
H	 0.155982	 2.346046	 -0.147559
H	 -2.548765	 2.083394	 1.247457
H	 -1.711981	 3.586514	 0.917535
H	 -2.323482	 2.615499	 -0.406090

	symmetry c1
}
set optking {
	frozen_dihedral = ("
		12 8 5 9
	")
}

ee,wfn = optimize('scf', return_wfn=True)
oeprop( wfn, 'DIPOLE', 'QUADRUPOLE', 'MULLIKEN_CHARGES')
f=open( 'psi4out.xyz', 'w' )
f.write( "19  " )
f.write( str(ee) + "\n" )
f.write( MOL.save_string_xyz() )
f.close()
--------------------------------------------------------------------------

    Molecular point group: c1
  Charge       = 0
  Multiplicity = 1
  Basis Set: CC-PVTZ
  Basis Set:
  @DF-RHF Final Energy:  -251.43544019153850
    Total Energy =                       -251.4354401915386461
    Molecular point group: c1
  Basis Set: CC-PVTZ
  Basis Set:
  Basis Set: CC-PVTZ
  Basis Set:
  @DF-RHF Final Energy:  -251.43471142596661
    Total Energy =                       -251.4347114259664977
  Basis Set: CC-PVTZ
  Basis Set:
  Basis Set: CC-PVTZ
  Basis Set:
  @DF-RHF Final Energy:  -251.43896040871061
    Total Energy =                       -251.4389604087106136
  Basis Set: CC-PVTZ
  Basis Set:
  Basis Set: CC-PVTZ
  Basis Set:
  @DF-RHF Final Energy:  -251.43935404978382
    Total Energy =                       -251.4393540497837876
  Basis Set: CC-PVTZ
  Basis Set:
  Basis Set: CC-PVTZ
  Basis Set:
  @DF-RHF Final Energy:  -251.43939066773697
    Total Energy =                       -251.4393906677371433
  Basis Set: CC-PVTZ
  Basis Set:
  Basis Set: CC-PVTZ
  Basis Set:
  @DF-RHF Final Energy:  -251.43939676567950
    Total Energy =                       -251.4393967656795894
  Basis Set: CC-PVTZ
  Basis Set:
  Basis Set: CC-PVTZ
  Basis Set:
  @DF-RHF Final Energy:  -251.43940574754552
    Total Energy =                       -251.4394057475456066
  Basis Set: CC-PVTZ
  Basis Set:
  Charge       = 0
  Multiplicity = 1
  Basis Set: CC-PVTZ
  Basis Set:

    Orbital Energies (a.u.)
    -----------------------

    Doubly Occupied:

       1A    -15.525831     2A    -11.237030     3A    -11.212511
       4A    -11.211278     5A    -11.208403     6A    -11.205851
       7A     -1.177725     8A     -1.071336     9A     -0.995537
      10A     -0.899904    11A     -0.835577    12A     -0.768508
      13A     -0.660748    14A     -0.643672    15A     -0.624100
      16A     -0.585203    17A     -0.572751    18A     -0.545752
      19A     -0.527029    20A     -0.504126    21A     -0.491209
      22A     -0.461008    23A     -0.451360    24A     -0.447681
      25A     -0.383030

  @DF-RHF Final Energy:  -251.43940576606815

   => Energetics <=

    Nuclear Repulsion Energy =            249.9231825276427799
    One-Electron Energy =                -834.2308588114402710
    Two-Electron Energy =                 332.8682705177294565
    DFT Exchange-Correlation Energy =       0.0000000000000000
    Empirical Dispersion Energy =           0.0000000000000000
    PCM Polarization Energy =               0.0000000000000000
    EFP Energy =                            0.0000000000000000
    Total Energy =                       -251.4394057660680346
    Molecular point group: c1
  Basis Set: CC-PVTZ
  Basis Set:

  -Total Gradient:
     Atom            X                  Y                   Z
    ------   -----------------  -----------------  -----------------
       1       -0.000001852272    -0.000002631513     0.000006108599
       2        0.000015312189    -0.000002880060     0.000023090713
       3       -0.000009682397     0.000004411244    -0.000097148225
       4        0.000016349234    -0.000013938342     0.000010108743
       5       -0.002369294301    -0.004255540414     0.004120261198
       6        0.000011224166    -0.000004933617     0.000008755583
       7       -0.000008226393    -0.000013025598    -0.000004127606
       8       -0.001587807865    -0.002583953349    -0.005493466126
       9        0.002261524418     0.003998687616    -0.002623460569
      10       -0.000008196439    -0.000008289374     0.000002286561
      11       -0.000018462906    -0.000006408405     0.000046523561
      12        0.001716377294     0.002891801144     0.004018961337
      13       -0.000000957352    -0.000006220505    -0.000002742015
      14        0.000002717434     0.000007106853    -0.000014001273
      15       -0.000014536830     0.000004800961    -0.000005374173
      16       -0.000009519489    -0.000007708741     0.000006052055
      17        0.000006961107     0.000001834797    -0.000000373930
      18       -0.000000118289    -0.000003905147    -0.000007173156
      19       -0.000001811312     0.000000792450     0.000005718723

  **** Optimization is complete! (in 8 steps) ****
    Final optimized geometry and variables:
    Molecular point group: c1

    Geometry (in Angstrom), charge = 0, multiplicity = 1:

    H            3.511683159753    -0.595252837701    -0.350500911763
    N            2.671511963897    -1.131512121666    -0.301814579239
    C            1.507071267988    -0.267133387409    -0.174894062359
    H            2.754219886641    -1.735373702983     0.489543198252
    C            0.237018328212    -1.113744863807    -0.149512564898
    H            1.491593473370     0.389107547439    -1.038144582743
    H            1.554934887127     0.370272878713     0.705338571681
    C           -1.104242044095    -0.344790053498    -0.128422465552
    H            0.281224576640    -1.726251851164    -1.041850319278
    H            0.291261041273    -1.783094057986     0.703801465149
    C           -1.063577476469     1.107721918553     0.355620583711
    H           -1.785822286305    -0.865903886594     0.536489234252
    H           -1.548510958406    -0.363927986354    -1.117800804750
    C           -2.448491313727     1.747578410768     0.360603161547
    H           -0.650677938055     1.149842587732     1.359143196433
    H           -0.405392485320     1.698380800017    -0.272219880631
    H           -3.127965710565     1.207558739678     1.011692506643
    H           -2.405436418856     2.774127992126     0.706325207302
    H           -2.880987976132     1.751804535776    -0.634494403404

  Mulliken Charges: (a.u.)
   Center  Symbol    Alpha    Beta     Spin     Total
       1     H     0.43015  0.43015  0.00000  0.13969
       2     N     3.69169  3.69169  0.00000 -0.38338
       3     C     3.02817  3.02817  0.00000 -0.05635
       4     H     0.43104  0.43104  0.00000  0.13793
       5     C     3.09078  3.09078  0.00000 -0.18156
       6     H     0.45524  0.45524  0.00000  0.08952
       7     H     0.46389  0.46389  0.00000  0.07222
       8     C     3.09589  3.09589  0.00000 -0.19178
       9     H     0.44579  0.44579  0.00000  0.10842
      10     H     0.45732  0.45732  0.00000  0.08535
      11     C     3.09308  3.09308  0.00000 -0.18616
      12     H     0.45229  0.45229  0.00000  0.09542
      13     H     0.45055  0.45055  0.00000  0.09891
      14     C     3.15036  3.15036  0.00000 -0.30071
      15     H     0.45339  0.45339  0.00000  0.09322
      16     H     0.45178  0.45178  0.00000  0.09644
      17     H     0.45508  0.45508  0.00000  0.08983
      18     H     0.44846  0.44846  0.00000  0.10308
      19     H     0.45505  0.45505  0.00000  0.08989

   Total alpha = 25.00000, Total beta = 25.00000, Total charge = -0.00000

*** Psi4 exiting successfully. Buy a developer a beer!
