                              Psi4 1.0.54 Driver

  ==> Input File <==

--------------------------------------------------------------------------
set {
	reference rhf
	basis cc-pvtz
}

set_num_threads( 4 )
memory 2 gb

molecule MOL {
0 1

H	 -3.556840	 0.181810	 -1.850009
C	 -2.859109	 -0.468502	 -1.363620
C	 -2.105997	 -0.000418	 -0.398703
H	 -2.796759	 -1.491122	 -1.680100
O	 -1.189946	 -0.765863	 0.237511
H	 -2.166215	 1.020399	 -0.067897
C	 0.026572	 -0.995256	 -0.379403
C	 1.057223	 0.049888	 -0.004615
H	 -0.054361	 -1.010670	 -1.459674
H	 0.397526	 -1.952058	 -0.044198
F	 2.203233	 -0.234060	 -0.590375
F	 0.698147	 1.254887	 -0.392621
F	 1.266440	 0.094219	 1.288722

	symmetry c1
}
set optking {
	frozen_dihedral = ("
		6 3 5 7
	")
}

ee,wfn = optimize('scf', return_wfn=True)
oeprop( wfn, 'DIPOLE', 'QUADRUPOLE', 'MULLIKEN_CHARGES')
f=open( 'psi4out.xyz', 'w' )
f.write( "13  " )
f.write( str(ee) + "\n" )
f.write( MOL.save_string_xyz() )
f.close()
--------------------------------------------------------------------------

    Molecular point group: c1
  Charge       = 0
  Multiplicity = 1
  Basis Set: CC-PVTZ
  Basis Set:
  @DF-RHF Final Energy:  -527.73757653074699
    Total Energy =                       -527.7375765307467645
    Molecular point group: c1
  Basis Set: CC-PVTZ
  Basis Set:
  Basis Set: CC-PVTZ
  Basis Set:
  @DF-RHF Final Energy:  -527.73783242286549
    Total Energy =                       -527.7378324228654947
  Basis Set: CC-PVTZ
  Basis Set:
  Basis Set: CC-PVTZ
  Basis Set:
  @DF-RHF Final Energy:  -527.73805154712568
    Total Energy =                       -527.7380515471254512
  Basis Set: CC-PVTZ
  Basis Set:
  Basis Set: CC-PVTZ
  Basis Set:
  @DF-RHF Final Energy:  -527.73805898111686
    Total Energy =                       -527.7380589811167511
  Basis Set: CC-PVTZ
  Basis Set:
  Charge       = 0
  Multiplicity = 1
  Basis Set: CC-PVTZ
  Basis Set:

    Orbital Energies (a.u.)
    -----------------------

    Doubly Occupied:

       1A    -26.338968     2A    -26.337994     3A    -26.335240
       4A    -20.592745     5A    -11.494224     6A    -11.314792
       7A    -11.295964     8A    -11.227837     9A     -1.747417
      10A     -1.644150    11A     -1.642235    12A     -1.431585
      13A     -1.082360    14A     -1.023828    15A     -0.932239
      16A     -0.840329    17A     -0.836690    18A     -0.833146
      19A     -0.770402    20A     -0.723987    21A     -0.719890
      22A     -0.707985    23A     -0.679225    24A     -0.664584
      25A     -0.656524    26A     -0.651202    27A     -0.648291
      28A     -0.596277    29A     -0.567402    30A     -0.532299
      31A     -0.470062    32A     -0.382150

  @DF-RHF Final Energy:  -527.73805991209611

   => Energetics <=

    Nuclear Repulsion Energy =            414.0445242148780949
    One-Electron Energy =               -1552.1211249055222652
    Two-Electron Energy =                 610.3385407785481220
    DFT Exchange-Correlation Energy =       0.0000000000000000
    Empirical Dispersion Energy =           0.0000000000000000
    PCM Polarization Energy =               0.0000000000000000
    EFP Energy =                            0.0000000000000000
    Total Energy =                       -527.7380599120961051
    Molecular point group: c1
  Basis Set: CC-PVTZ
  Basis Set:

  -Total Gradient:
     Atom            X                  Y                   Z
    ------   -----------------  -----------------  -----------------
       1        0.000016256761    -0.000015872910     0.000013699760
       2        0.000038219547     0.000009241370     0.000032318670
       3        0.000493194761    -0.000069686961    -0.000705975941
       4       -0.000019293067     0.000007304258    -0.000017188646
       5        0.000084370578     0.000669226438     0.000452433648
       6       -0.000463653206    -0.000153457586     0.000451852504
       7       -0.000195122427    -0.000472219516    -0.000223613976
       8       -0.000026509877     0.000012755882    -0.000001412332
       9       -0.000001735833     0.000012943788     0.000012262951
      10        0.000019474349     0.000005447326    -0.000006180998
      11        0.000026481348    -0.000004808882    -0.000021442340
      12        0.000042550759    -0.000010336942     0.000019510398
      13       -0.000014233688     0.000009463733    -0.000006263690

  **** Optimization is complete! (in 5 steps) ****
    Final optimized geometry and variables:
    Molecular point group: c1

    Geometry (in Angstrom), charge = 0, multiplicity = 1:

    H           -3.663052618999     0.263611676372    -1.663994067325
    C           -2.942593826572    -0.380008916909    -1.200283762262
    C           -2.145021509101     0.093077168884    -0.274656467963
    H           -2.904001700792    -1.407166706869    -1.509889554098
    O           -1.230081030930    -0.673555260477     0.386420668270
    H           -2.190739604453     1.111606751720     0.062382271315
    C           -0.001291814862    -0.909658086390    -0.215919129749
    C            1.021372961809     0.137062565037     0.173251135698
    H           -0.073321427320    -0.925640477513    -1.295224394827
    H            0.365585152882    -1.864137976894     0.131417622777
    F            2.172463843113    -0.128909892226    -0.410474487427
    F            0.654932944741     1.346208969202    -0.198469845189
    F            1.226482038986     0.168690715972     1.468979539143

  Mulliken Charges: (a.u.)
   Center  Symbol    Alpha    Beta     Spin     Total
       1     H     0.42333  0.42333  0.00000  0.15334
       2     C     3.17971  3.17971  0.00000 -0.35943
       3     C     2.97632  2.97632  0.00000  0.04737
       4     H     0.42223  0.42223  0.00000  0.15555
       5     O     4.16865  4.16865  0.00000 -0.33729
       6     H     0.42094  0.42094  0.00000  0.15812
       7     C     3.00190  3.00190  0.00000 -0.00379
       8     C     2.67666  2.67666  0.00000  0.64668
       9     H     0.45632  0.45632  0.00000  0.08736
      10     H     0.44067  0.44067  0.00000  0.11866
      11     F     4.61250  4.61250  0.00000 -0.22500
      12     F     4.61233  4.61233  0.00000 -0.22466
      13     F     4.60845  4.60845  0.00000 -0.21690

   Total alpha = 32.00000, Total beta = 32.00000, Total charge = -0.00000

*** Psi4 exiting successfully. Buy a developer a beer!
