                              Psi4 1.0.54 Driver

  ==> Input File <==

--------------------------------------------------------------------------
set {
	reference rhf
	basis cc-pvtz
}

set_num_threads( 4 )
memory 2 gb

molecule MOL {
0 1

H	 2.614283	 2.028610	 0.296620
O	 3.358864	 1.662087	 -0.142800
C	 3.565468	 0.338079	 0.273842
C	 3.967207	 -0.597717	 -0.856458
H	 4.358564	 0.379851	 1.008168
H	 2.679657	 -0.043740	 0.777831
C	 2.885372	 -0.804287	 -1.914196
H	 4.866487	 -0.208246	 -1.324183
H	 4.229616	 -1.557624	 -0.418145
C	 3.312227	 -1.774696	 -3.014623
H	 2.628477	 0.152677	 -2.356042
H	 1.982356	 -1.181207	 -1.436934
C	 2.239133	 -2.076265	 -4.062373
H	 4.198093	 -1.385013	 -3.510220
H	 3.612557	 -2.710665	 -2.551771
C	 1.855836	 -0.896154	 -4.953531
H	 2.597386	 -2.884168	 -4.694414
H	 1.349071	 -2.455285	 -3.565092
C	 0.856795	 -1.271642	 -6.045015
H	 2.753323	 -0.489929	 -5.415015
H	 1.433704	 -0.096039	 -4.353013
C	 0.469076	 -0.094862	 -6.934259
H	 1.277125	 -2.063383	 -6.659055
H	 -0.037101	 -1.685527	 -5.585981
H	 1.337904	 0.321479	 -7.433292
H	 -0.238038	 -0.396063	 -7.698705
H	 0.010490	 0.699676	 -6.354811

	symmetry c1
}
set optking {
	frozen_dihedral = ("
		4 3 2 1
	")
}

ee,wfn = optimize('scf', return_wfn=True)
oeprop( wfn, 'DIPOLE', 'QUADRUPOLE', 'MULLIKEN_CHARGES')
f=open( 'psi4out.xyz', 'w' )
f.write( "27  " )
f.write( str(ee) + "\n" )
f.write( MOL.save_string_xyz() )
f.close()
--------------------------------------------------------------------------

    Molecular point group: c1
  Charge       = 0
  Multiplicity = 1
  Basis Set: CC-PVTZ
  Basis Set:
  @DF-RHF Final Energy:  -388.42631366170912
    Total Energy =                       -388.4263136617091732
    Molecular point group: c1
  Basis Set: CC-PVTZ
  Basis Set:
  Basis Set: CC-PVTZ
  Basis Set:
  @DF-RHF Final Energy:  -388.42392517992107
    Total Energy =                       -388.4239251799207295
  Basis Set: CC-PVTZ
  Basis Set:
  Basis Set: CC-PVTZ
  Basis Set:
  @DF-RHF Final Energy:  -388.42736674898526
    Total Energy =                       -388.4273667489845820
  Basis Set: CC-PVTZ
  Basis Set:
  Basis Set: CC-PVTZ
  Basis Set:
  @DF-RHF Final Energy:  -388.42739002954016
    Total Energy =                       -388.4273900295407884
  Basis Set: CC-PVTZ
  Basis Set:
  @DF-RHF Final Energy:  -388.42745877492803
    Total Energy =                       -388.4274587749276861
  Basis Set: CC-PVTZ
  Basis Set:
  @DF-RHF Final Energy:  -388.42746027986175
    Total Energy =                       -388.4274602798612932
  Basis Set: CC-PVTZ
  Basis Set:
  Basis Set: CC-PVTZ
  Basis Set:
  @DF-RHF Final Energy:  -388.42746206990660
    Total Energy =                       -388.4274620699060279
  Basis Set: CC-PVTZ
  Basis Set:
  Basis Set: CC-PVTZ
  Basis Set:
  @DF-RHF Final Energy:  -388.42746327110723
    Total Energy =                       -388.4274632711078539
  Basis Set: CC-PVTZ
  Basis Set:
  Charge       = 0
  Multiplicity = 1
  Basis Set: CC-PVTZ
  Basis Set:

    Orbital Energies (a.u.)
    -----------------------

    Doubly Occupied:

       1A    -20.545595     2A    -11.266092     3A    -11.209988
       4A    -11.209892     5A    -11.208484     6A    -11.207882
       7A    -11.206524     8A    -11.206146     9A    -11.203825
      10A     -1.362998    11A     -1.090615    12A     -1.058479
      13A     -1.009753    14A     -0.945162    15A     -0.881957
      16A     -0.813043    17A     -0.795803    18A     -0.772501
      19A     -0.708897    20A     -0.646790    21A     -0.628956
      22A     -0.625871    23A     -0.589249    24A     -0.579884
      25A     -0.577274    26A     -0.548258    27A     -0.538013
      28A     -0.520330    29A     -0.507901    30A     -0.483817
      31A     -0.478437    32A     -0.476529    33A     -0.462154
      34A     -0.455008    35A     -0.452206    36A     -0.440548
      37A     -0.421977

  @DF-RHF Final Energy:  -388.42746330605559

   => Energetics <=

    Nuclear Repulsion Energy =            460.4765788054585869
    One-Electron Energy =               -1439.5344038869811811
    Two-Electron Energy =                 590.6303617754672359
    DFT Exchange-Correlation Energy =       0.0000000000000000
    Empirical Dispersion Energy =           0.0000000000000000
    PCM Polarization Energy =               0.0000000000000000
    EFP Energy =                            0.0000000000000000
    Total Energy =                       -388.4274633060554152
    Molecular point group: c1
  Basis Set: CC-PVTZ
  Basis Set:

  -Total Gradient:
     Atom            X                  Y                   Z
    ------   -----------------  -----------------  -----------------
       1       -0.000664487196    -0.000496912874    -0.000984055854
       2        0.000545385351     0.000511417785     0.001158383428
       3        0.000854664046     0.000245323544     0.000006968255
       4       -0.000723617549    -0.000290145755    -0.000180747538
       5       -0.000002671426     0.000016224025     0.000006537331
       6       -0.000011397450     0.000009977045     0.000001895361
       7        0.000006324761     0.000004406414    -0.000008051170
       8       -0.000005596492     0.000001394902     0.000004147561
       9        0.000007628199    -0.000006972209    -0.000002354992
      10       -0.000003070870     0.000003005407    -0.000001683485
      11        0.000000314145     0.000007244318    -0.000004877331
      12        0.000000119114    -0.000000089749    -0.000002384291
      13       -0.000002233030    -0.000008936729     0.000000903567
      14       -0.000000867018     0.000002287659     0.000001232098
      15        0.000001343831     0.000001183713     0.000002619839
      16        0.000000388379     0.000003924067     0.000000333428
      17        0.000001466528    -0.000001800988     0.000000371604
      18       -0.000003043793    -0.000003455357    -0.000001814487
      19       -0.000000533860    -0.000004547960     0.000000951339
      20        0.000000661380     0.000001165911    -0.000000631133
      21       -0.000002064314     0.000002817871    -0.000002065906
      22        0.000000042546     0.000003892273     0.000002960730
      23        0.000002566709    -0.000002275281     0.000001746279
      24       -0.000001016290    -0.000002245892     0.000000488072
      25        0.000000437352     0.000001667798    -0.000001427501
      26        0.000001043645    -0.000001141166     0.000001107506
      27       -0.000001786695     0.000002591229    -0.000000552710

  **** Optimization is complete! (in 9 steps) ****
    Final optimized geometry and variables:
    Molecular point group: c1

    Geometry (in Angstrom), charge = 0, multiplicity = 1:

    H           -0.327882261074     2.262292511981     3.418333607849
    O            0.481155108929     2.032869932263     3.003402447884
    C            0.884998539699     0.740632773639     3.385937683855
    C            1.460060950638     0.000533117923     2.192306480527
    H            1.633586934665     0.814760417525     4.168945031561
    H            0.043919233583     0.184298421120     3.791883771204
    C            0.437644258297    -0.295662051731     1.099110414797
    H            2.273217855671     0.593331439706     1.783631627123
    H            1.898519420135    -0.928180432700     2.549160347655
    C            1.050626308398    -1.009529909203    -0.104270111365
    H           -0.020187040681     0.635237169081     0.790317531015
    H           -0.357902347481    -0.913603169480     1.512188650678
    C            0.052567087269    -1.410347424180    -1.192204098672
    H            1.820789136385    -0.377840674719    -0.540606765586
    H            1.557322915811    -1.906169139238     0.243082889157
    C           -0.598699620305    -0.242925727419    -1.931393528108
    H            0.568302761505    -2.034055954478    -1.917369080882
    H           -0.722513482130    -2.035637577782    -0.754550401006
    C           -1.516598845931    -0.691172938131    -3.065687154150
    H            0.178361922133     0.402770451831    -2.334665865226
    H           -1.169643572741     0.365921362942    -1.237401519549
    C           -2.170441305106     0.472173134363    -3.803944676475
    H           -0.948809684500    -1.291373936611    -3.771475888915
    H           -2.289020967768    -1.342740743212    -2.665747043585
    H           -1.424085753377     1.125052170115    -4.244310603183
    H           -2.813504269224     0.119869824541    -4.602457048167
    H           -2.775893884647     1.071541926828    -3.132055139070

  Mulliken Charges: (a.u.)
   Center  Symbol    Alpha    Beta     Spin     Total
       1     H     0.39210  0.39210  0.00000  0.21580
       2     O     4.20460  4.20460  0.00000 -0.40921
       3     C     2.97821  2.97821  0.00000  0.04358
       4     C     3.08693  3.08693  0.00000 -0.17386
       5     H     0.45944  0.45944  0.00000  0.08112
       6     H     0.47235  0.47235  0.00000  0.05531
       7     C     3.09537  3.09537  0.00000 -0.19074
       8     H     0.45147  0.45147  0.00000  0.09706
       9     H     0.45340  0.45340  0.00000  0.09321
      10     C     3.09918  3.09918  0.00000 -0.19836
      11     H     0.44484  0.44484  0.00000  0.11032
      12     H     0.45929  0.45929  0.00000  0.08142
      13     C     3.09785  3.09785  0.00000 -0.19570
      14     H     0.45262  0.45262  0.00000  0.09475
      15     H     0.45000  0.45000  0.00000  0.10001
      16     C     3.08754  3.08754  0.00000 -0.17507
      17     H     0.44901  0.44901  0.00000  0.10198
      18     H     0.45480  0.45480  0.00000  0.09040
      19     C     3.08387  3.08387  0.00000 -0.16773
      20     H     0.45472  0.45472  0.00000  0.09056
      21     H     0.45331  0.45331  0.00000  0.09338
      22     C     3.14962  3.14962  0.00000 -0.29925
      23     H     0.45447  0.45447  0.00000  0.09106
      24     H     0.45531  0.45531  0.00000  0.08938
      25     H     0.45507  0.45507  0.00000  0.08986
      26     H     0.44902  0.44902  0.00000  0.10197
      27     H     0.45562  0.45562  0.00000  0.08875

   Total alpha = 37.00000, Total beta = 37.00000, Total charge =  0.00000

*** Psi4 exiting successfully. Buy a developer a beer!
