  ==> Input File <==

--------------------------------------------------------------------------
set {
	reference rhf
	basis cc-pvtz
}

set_num_threads( 4 )
memory 2 gb

molecule MOL {
0 1

H	 -1.156317	 1.683434	 -1.731726
C	 -0.928050	 0.940375	 -0.997089
C	 -1.911816	 0.469892	 -0.069725
C	 0.297866	 0.417287	 -0.916205
H	 -2.907365	 0.870565	 -0.108447
C	 -1.599980	 -0.459743	 0.838633
H	 1.087594	 0.718627	 -1.575497
N	 0.640204	 -0.530428	 -0.000115
H	 -2.309445	 -0.834712	 1.547166
C	 -0.262393	 -1.027928	 0.923813
C	 2.006991	 -1.033007	 -0.000020
O	 0.055999	 -1.863946	 1.725027
H	 2.182444	 -1.636914	 -0.880881
H	 2.678769	 -0.195442	 -0.002236
H	 2.183828	 -1.633244	 0.883082

	symmetry c1
}
set optking {
	frozen_dihedral = ("
		10 8 11 13
	")
}

ee = optimize('scf')
oeprop('DIPOLE', 'QUADRUPOLE', 'MULLIKEN_CHARGES')
f=open( 'psi4out.xyz', 'w' )
f.write( "15  " )
f.write( str(ee) + "\n" )
f.write( MOL.save_string_xyz() )
f.close()
--------------------------------------------------------------------------

    Molecular point group: c1
  Charge       = 0
  Multiplicity = 1
  Basis Set: CC-PVTZ
  Basis Set:
  @DF-RHF Final Energy:  -360.72233864586588
    Total Energy =                       -360.7223386458660457
    Molecular point group: c1
  Basis Set: CC-PVTZ
  Basis Set:
  Basis Set: CC-PVTZ
  Basis Set:
  @DF-RHF Final Energy:  -360.72255627615334
    Total Energy =                       -360.7225562761530000
  Basis Set: CC-PVTZ
  Basis Set:
  Basis Set: CC-PVTZ
  Basis Set:
  @DF-RHF Final Energy:  -360.72256543311198
    Total Energy =                       -360.7225654331119813
  Basis Set: CC-PVTZ
  Basis Set:
  Basis Set: CC-PVTZ
  Basis Set:
  @DF-RHF Final Energy:  -360.72257482535861
    Total Energy =                       -360.7225748253587199
  Basis Set: CC-PVTZ
  Basis Set:
  Charge       = 0
  Multiplicity = 1
  Basis Set: CC-PVTZ
  Basis Set:

    Orbital Energies (a.u.)
    -----------------------

    Doubly Occupied:

       1A    -20.501765     2A    -15.616471     3A    -11.339561
       4A    -11.293214     5A    -11.263537     6A    -11.258219
       7A    -11.230697     8A    -11.228387     9A     -1.390558
      10A     -1.285770    11A     -1.118804    12A     -1.028872
      13A     -0.972306    14A     -0.875758    15A     -0.838561
      16A     -0.719124    17A     -0.703092    18A     -0.663399
      19A     -0.652656    20A     -0.625213    21A     -0.611933
      22A     -0.574081    23A     -0.558059    24A     -0.550517
      25A     -0.529369    26A     -0.482788    27A     -0.420133
      28A     -0.410794    29A     -0.311007

  @DF-RHF Final Energy:  -360.72257938373531

   => Energetics <=

    Nuclear Repulsion Energy =            358.4527366324697937
    One-Electron Energy =               -1200.2413342900699718
    Two-Electron Energy =                 481.0660182738647563
    DFT Exchange-Correlation Energy =       0.0000000000000000
    Empirical Dispersion Energy =           0.0000000000000000
    PCM Polarization Energy =               0.0000000000000000
    EFP Energy =                            0.0000000000000000
    Total Energy =                       -360.7225793837353649
    Molecular point group: c1
  Basis Set: CC-PVTZ
  Basis Set:

  -Total Gradient:
     Atom            X                  Y                   Z
    ------   -----------------  -----------------  -----------------
       1        0.000002984393    -0.000002914680     0.000003419288
       2        0.000011866538    -0.000005347956     0.000006008474
       3       -0.000016365299    -0.000013081237     0.000005721202
       4       -0.000003314250     0.000004496195    -0.000005987268
       5       -0.000003640973     0.000001424336     0.000006744032
       6       -0.000013759874     0.000007417596    -0.000008620503
       7        0.000009452398    -0.000005017387     0.000002829524
       8       -0.000095746428    -0.000208067554    -0.000266362165
       9       -0.000003603896     0.000000727879    -0.000002608885
      10        0.000062130519     0.000220617593     0.000157693491
      11       -0.000071602206    -0.000181087986     0.000211809678
      12        0.000026813592    -0.000000370560    -0.000024005268
      13        0.000090507338     0.000244212457    -0.000144302970
      14       -0.000023333676    -0.000024846558     0.000003283432
      15        0.000027611818    -0.000038162139     0.000054377932

  **** Optimization is complete! (in 5 steps) ****
    Final optimized geometry and variables:
    Molecular point group: c1

    Geometry (in Angstrom), charge = 0, multiplicity = 1:

    H           -1.005816836321     2.104070978812    -1.947363559143
    C           -0.775067957866     1.363764527602    -1.210715992834
    C           -1.756346811918     0.895143289497    -0.279560856617
    C            0.452716824234     0.845014139960    -1.128976399455
    H           -2.752493675447     1.294441849873    -0.317397624714
    C           -1.441183240639    -0.030661462078     0.631471090697
    H            1.240848393860     1.146935127285    -1.789833695797
    N            0.798956286833    -0.097109324292    -0.208710114352
    H           -2.148605132109    -0.404951033877     1.342514551860
    C           -0.103464695366    -0.599498003016     0.712621941730
    C            2.164116133240    -0.603765069625    -0.210626387741
    O            0.215928744938    -1.440780405092     1.507689887591
    H            2.344916753572    -1.204209638080    -1.093417037792
    H            2.861444101801     0.223018851789    -0.196360065638
    H            2.306580641846    -1.209543539130     0.664622801879

  Mulliken Charges: (a.u.)
   Center  Symbol    Alpha    Beta     Spin     Total
       1     H     0.41409  0.41409  0.00000  0.17181
       2     C     3.10220  3.10220  0.00000 -0.20439
       3     C     3.06191  3.06191  0.00000 -0.12383
       4     C     3.03296  3.03296  0.00000 -0.06591
       5     H     0.41833  0.41833  0.00000  0.16333
       6     C     3.11618  3.11618  0.00000 -0.23236
       7     H     0.42058  0.42058  0.00000  0.15883
       8     N     3.51259  3.51259  0.00000 -0.02518
       9     H     0.40888  0.40888  0.00000  0.18223
      10     C     2.84550  2.84550  0.00000  0.30899
      11     C     3.10882  3.10882  0.00000 -0.21764
      12     O     4.23659  4.23659  0.00000 -0.47319
      13     H     0.44817  0.44817  0.00000  0.10367
      14     H     0.45192  0.45192  0.00000  0.09615
      15     H     0.42126  0.42126  0.00000  0.15747

   Total alpha = 29.00000, Total beta = 29.00000, Total charge = -0.00000
