  ==> Input File <==

--------------------------------------------------------------------------
set {
	reference rhf
	basis cc-pvtz
}

set_num_threads( 4 )
memory 2 gb

molecule MOL {
0 1

H	 1.630835	 -0.646928	 2.322561
O	 0.948872	 -0.097032	 1.984043
C	 1.135873	 0.113391	 0.608264
C	 0.027642	 1.012027	 0.090274
H	 1.104723	 -0.832466	 0.073333
H	 2.108788	 0.559599	 0.421725
C	 -1.138737	 0.285728	 -0.581921
H	 0.464661	 1.708096	 -0.618252
H	 -0.340737	 1.603071	 0.925246
C	 -1.933983	 -0.631436	 0.343653
H	 -0.763151	 -0.285569	 -1.422081
H	 -1.808359	 1.035291	 -0.992333
H	 -2.789188	 -1.049673	 -0.174718
H	 -1.335629	 -1.461368	 0.700418
H	 -2.305435	 -0.092167	 1.209725

	symmetry c1
}
set optking {
	frozen_dihedral = ("
		2 3 4 8
	")
}

ee = optimize('scf')
oeprop('DIPOLE', 'QUADRUPOLE', 'MULLIKEN_CHARGES')
f=open( 'psi4out.xyz', 'w' )
f.write( "15  " )
f.write( str(ee) + "\n" )
f.write( MOL.save_string_xyz() )
f.close()
--------------------------------------------------------------------------

    Molecular point group: c1
  Charge       = 0
  Multiplicity = 1
  Basis Set: CC-PVTZ
  Basis Set:
  @DF-RHF Final Energy:  -232.23379811558021
    Total Energy =                       -232.2337981155802140
    Molecular point group: c1
  Basis Set: CC-PVTZ
  Basis Set:
  Basis Set: CC-PVTZ
  Basis Set:
  @DF-RHF Final Energy:  -232.23419792013027
    Total Energy =                       -232.2341979201302138
  Basis Set: CC-PVTZ
  Basis Set:
  Basis Set: CC-PVTZ
  Basis Set:
  @DF-RHF Final Energy:  -232.23425244346726
    Total Energy =                       -232.2342524434671418
  Basis Set: CC-PVTZ
  Basis Set:
  Basis Set: CC-PVTZ
  Basis Set:
  @DF-RHF Final Energy:  -232.23425614916573
    Total Energy =                       -232.2342561491657875
  Basis Set: CC-PVTZ
  Basis Set:
  Basis Set: CC-PVTZ
  Basis Set:
  @DF-RHF Final Energy:  -232.23425752185290
    Total Energy =                       -232.2342575218530101
  Basis Set: CC-PVTZ
  Basis Set:
  Charge       = 0
  Multiplicity = 1
  Basis Set: CC-PVTZ
  Basis Set:

    Orbital Energies (a.u.)
    -----------------------

    Doubly Occupied:

       1A    -20.546146     2A    -11.266277     3A    -11.212169
       4A    -11.210125     5A    -11.199757     6A     -1.363373
       7A     -1.066017     8A     -0.969600     9A     -0.866582
      10A     -0.782135    11A     -0.703968    12A     -0.649084
      13A     -0.610839    14A     -0.574552    15A     -0.556172
      16A     -0.541496    17A     -0.503837    18A     -0.478502
      19A     -0.468557    20A     -0.456538    21A     -0.429579

  @DF-RHF Final Energy:  -232.23425806872288

   => Energetics <=

    Nuclear Repulsion Energy =            191.7402238754712869
    One-Electron Energy =                -695.0383532319538062
    Two-Electron Energy =                 271.0638712877594116
    DFT Exchange-Correlation Energy =       0.0000000000000000
    Empirical Dispersion Energy =           0.0000000000000000
    PCM Polarization Energy =               0.0000000000000000
    EFP Energy =                            0.0000000000000000
    Total Energy =                       -232.2342580687230793
    Molecular point group: c1
  Basis Set: CC-PVTZ
  Basis Set:

  -Total Gradient:
     Atom            X                  Y                   Z
    ------   -----------------  -----------------  -----------------
       1       -0.000001669179    -0.000006430471     0.000011807992
       2        0.001487144844     0.002148527646     0.000561222482
       3       -0.001785475926    -0.002268809849    -0.000180867672
       4       -0.000271511615    -0.002106582998    -0.003059295504
       5       -0.000011450033     0.000012501514     0.000008041972
       6        0.000001737402    -0.000007231189     0.000016080982
       7        0.000023569511     0.000018749947     0.000020760848
       8        0.000571964815     0.002189202545     0.002585644652
       9       -0.000018250234     0.000004430057     0.000021624904
      10       -0.000009914444    -0.000010255447    -0.000014551639
      11        0.000006033374     0.000012833749     0.000013808169
      12        0.000002059809     0.000008174374    -0.000000345302
      13        0.000019926797     0.000002498484     0.000011440710
      14        0.000000384119    -0.000006366165    -0.000003625172
      15       -0.000014549241     0.000008757804     0.000008252579

  **** Optimization is complete! (in 6 steps) ****
    Final optimized geometry and variables:
    Molecular point group: c1

    Geometry (in Angstrom), charge = 0, multiplicity = 1:

    H            1.753946766567    -0.821338354407     1.767514583546
    O            1.098447148802    -0.232842775149     1.440891415757
    C            1.300884008105    -0.000626465502     0.069011379420
    C            0.189066928959     0.904455242138    -0.457366156879
    H            1.319594402927    -0.939428073254    -0.479622332255
    H            2.263952364360     0.479972990889    -0.078453980118
    C           -0.984192752203     0.180912769327    -1.116576736930
    H            0.617313890923     1.618678873391    -1.152849428161
    H           -0.167798308469     1.491259666549     0.382826848901
    C           -1.768191054597    -0.730077857779    -0.175807533504
    H           -0.617791022980    -0.398739525970    -1.960141688084
    H           -1.657642686213     0.924279390084    -1.532109071363
    H           -2.591192700423    -1.204403346473    -0.698598471080
    H           -1.142976068759    -1.510176324061     0.240427582205
    H           -2.178988108266    -0.167641260826     0.655285464468

  Mulliken Charges: (a.u.)
   Center  Symbol    Alpha    Beta     Spin     Total
       1     H     0.39533  0.39533  0.00000  0.20935
       2     O     4.20003  4.20003  0.00000 -0.40006
       3     C     2.97940  2.97940  0.00000  0.04120
       4     C     3.09583  3.09583  0.00000 -0.19166
       5     H     0.47069  0.47069  0.00000  0.05861
       6     H     0.46152  0.46152  0.00000  0.07695
       7     C     3.09344  3.09344  0.00000 -0.18687
       8     H     0.44692  0.44692  0.00000  0.10616
       9     H     0.44925  0.44925  0.00000  0.10151
      10     C     3.13937  3.13937  0.00000 -0.27873
      11     H     0.45749  0.45749  0.00000  0.08502
      12     H     0.45049  0.45049  0.00000  0.09903
      13     H     0.45158  0.45158  0.00000  0.09685
      14     H     0.45456  0.45456  0.00000  0.09089
      15     H     0.45411  0.45411  0.00000  0.09178

   Total alpha = 21.00000, Total beta = 21.00000, Total charge = -0.00000
