  ==> Input File <==

--------------------------------------------------------------------------
set {
	reference rhf
	basis cc-pvtz
}

set_num_threads( 4 )
memory 2 gb

molecule MOL {
0 1

H	 -3.144994	 -1.202467	 -0.018751
O	 -2.321472	 -0.864941	 -0.318626
C	 -2.021813	 0.336996	 0.342658
C	 -0.669613	 0.837286	 -0.127252
H	 -2.780861	 1.084746	 0.127159
H	 -2.006390	 0.184138	 1.420053
C	 0.490865	 -0.082543	 0.241244
H	 -0.708709	 0.967192	 -1.204587
H	 -0.507562	 1.822272	 0.303070
C	 1.808740	 0.328983	 -0.408725
H	 0.245753	 -1.098369	 -0.046979
H	 0.611976	 -0.089333	 1.322636
C	 2.970713	 -0.585234	 -0.034815
H	 1.688787	 0.333986	 -1.488674
H	 2.049106	 1.350414	 -0.124835
H	 2.775343	 -1.608430	 -0.337828
H	 3.890580	 -0.268330	 -0.513062
H	 3.138864	 -0.586125	 1.037179

	symmetry c1
}
set optking {
	frozen_dihedral = ("
		10 7 4 8
	")
}

ee = optimize('scf')
oeprop('DIPOLE', 'QUADRUPOLE', 'MULLIKEN_CHARGES')
f=open( 'psi4out.xyz', 'w' )
f.write( "18  " )
f.write( str(ee) + "\n" )
f.write( MOL.save_string_xyz() )
f.close()
--------------------------------------------------------------------------

    Molecular point group: c1
  Charge       = 0
  Multiplicity = 1
  Basis Set: CC-PVTZ
  Basis Set:
  @DF-RHF Final Energy:  -271.28673194040397
    Total Energy =                       -271.2867319404039108
    Molecular point group: c1
  Basis Set: CC-PVTZ
  Basis Set:
  Basis Set: CC-PVTZ
  Basis Set:
  @DF-RHF Final Energy:  -271.28674944786718
    Total Energy =                       -271.2867494478671802
  Basis Set: CC-PVTZ
  Basis Set:
  Basis Set: CC-PVTZ
  Basis Set:
  @DF-RHF Final Energy:  -271.28675625230483
    Total Energy =                       -271.2867562523050537
  Basis Set: CC-PVTZ
  Basis Set:
  Charge       = 0
  Multiplicity = 1
  Basis Set: CC-PVTZ
  Basis Set:

    Orbital Energies (a.u.)
    -----------------------

    Doubly Occupied:

       1A    -20.546376     2A    -11.266108     3A    -11.210402
       4A    -11.208964     5A    -11.204894     6A    -11.202664
       7A     -1.364253     8A     -1.076450     9A     -1.010203
      10A     -0.914484    11A     -0.818404    12A     -0.784877
      13A     -0.708681    14A     -0.641320    15A     -0.628690
      16A     -0.583210    17A     -0.571555    18A     -0.559294
      19A     -0.524460    20A     -0.500648    21A     -0.489806
      22A     -0.468692    23A     -0.459194    24A     -0.449628
      25A     -0.431235

  @DF-RHF Final Energy:  -271.28675646264298

   => Energetics <=

    Nuclear Repulsion Energy =            249.3704460815522452
    One-Electron Energy =                -862.0654182821757558
    Two-Electron Energy =                 341.4082157379804698
    DFT Exchange-Correlation Energy =       0.0000000000000000
    Empirical Dispersion Energy =           0.0000000000000000
    PCM Polarization Energy =               0.0000000000000000
    EFP Energy =                            0.0000000000000000
    Total Energy =                       -271.2867564626430408
    Molecular point group: c1
  Basis Set: CC-PVTZ
  Basis Set:

  -Total Gradient:
     Atom            X                  Y                   Z
    ------   -----------------  -----------------  -----------------
       1       -0.000002551406    -0.000000142787    -0.000003005389
       2        0.000002932541     0.000006491347     0.000001130137
       3        0.000006714835    -0.000011071499     0.000002402439
       4       -0.001098633336    -0.001538911801    -0.000401065762
       5        0.000003314856    -0.000008280605    -0.000006672702
       6        0.000005572728     0.000007082366    -0.000000794317
       7        0.000474648730     0.001031799321     0.001099410610
       8        0.000822517510     0.001063582055     0.000121271918
       9        0.000000055547     0.000022542362    -0.000007902420
      10       -0.000204217702    -0.000574564194    -0.000801637209
      11        0.000001121215    -0.000019840058    -0.000007629174
      12       -0.000014255873     0.000004956363    -0.000014788520
      13        0.000001380450     0.000015713445     0.000021832923
      14       -0.000008106691    -0.000004385129     0.000003700893
      15        0.000011993871     0.000002999120    -0.000006624978
      16       -0.000004457181     0.000005932533    -0.000007645293
      17       -0.000001327350     0.000005239645     0.000005300355
      18        0.000003297257    -0.000009142485     0.000002716489

  **** Optimization is complete! (in 4 steps) ****
    Final optimized geometry and variables:
    Molecular point group: c1

    Geometry (in Angstrom), charge = 0, multiplicity = 1:

    H           -3.146168084625    -1.159013443945     0.035167077424
    O           -2.325084371483    -0.822518590789    -0.272234100275
    C           -2.009377660956     0.369783820423     0.398941505423
    C           -0.658066295382     0.864488413272    -0.078236939793
    H           -2.764530999222     1.125586614402     0.198845232409
    H           -1.984827877012     0.205240803621     1.474481430177
    C            0.503131660935    -0.057193383743     0.285670247803
    H           -0.697813828782     1.001662228181    -1.154492250158
    H           -0.489955962745     1.849026018363     0.351283941803
    C            1.821451292999     0.358328945009    -0.360681709714
    H            0.260940647483    -1.069720727843    -0.017032924963
    H            0.619907059580    -0.076710772850     1.367074726177
    C            2.987242782392    -0.546162100613     0.024511337316
    H            1.704481559237     0.354012441672    -1.440679954644
    H            2.055273925235     1.383433929126    -0.083984781901
    H            2.797248529081    -1.573283896511    -0.268533758328
    H            3.906287694471    -0.229651167020    -0.455531518657
    H            3.153732756275    -0.535394113011     1.096677518458

  Mulliken Charges: (a.u.)
   Center  Symbol    Alpha    Beta     Spin     Total
       1     H     0.39559  0.39559  0.00000  0.20881
       2     O     4.19874  4.19874  0.00000 -0.39749
       3     C     2.97358  2.97358  0.00000  0.05285
       4     C     3.09102  3.09102  0.00000 -0.18203
       5     H     0.46483  0.46483  0.00000  0.07033
       6     H     0.47365  0.47365  0.00000  0.05271
       7     C     3.08745  3.08745  0.00000 -0.17489
       8     H     0.45259  0.45259  0.00000  0.09482
       9     H     0.45414  0.45414  0.00000  0.09171
      10     C     3.08358  3.08358  0.00000 -0.16716
      11     H     0.44524  0.44524  0.00000  0.10951
      12     H     0.45910  0.45910  0.00000  0.08179
      13     C     3.14986  3.14986  0.00000 -0.29971
      14     H     0.45376  0.45376  0.00000  0.09248
      15     H     0.45698  0.45698  0.00000  0.08605
      16     H     0.45444  0.45444  0.00000  0.09113
      17     H     0.44934  0.44934  0.00000  0.10131
      18     H     0.45610  0.45610  0.00000  0.08779

   Total alpha = 25.00000, Total beta = 25.00000, Total charge = -0.00000
