  ==> Input File <==

--------------------------------------------------------------------------
set {
	reference rhf
	basis 6-31G*
}

set_num_threads( 4 )
memory 2 gb

molecule MOL {
0 1

O	 0.869914	 1.073807	 -0.662862
C	 0.576249	 0.131685	 -0.000108
C	 -0.766779	 -0.556801	 -0.000461
O	 1.414992	 -0.450442	 0.847419
C	 -1.945214	 0.412366	 0.000161
H	 -0.796911	 -1.211249	 -0.867467
H	 -0.796854	 -1.212390	 0.865687
C	 -3.287791	 -0.317055	 0.000105
H	 -1.876087	 1.060580	 -0.866812
H	 -1.875822	 1.059691	 0.867761
H	 -3.394745	 -0.949193	 -0.877058
H	 -4.111778	 0.388953	 0.000015
H	 -3.394954	 -0.949187	 0.877259
C	 2.715807	 0.100573	 0.944731
H	 3.220069	 0.055136	 -0.009836
H	 3.237490	 -0.501398	 1.672292
H	 2.669370	 1.128843	 1.273386

	symmetry c1
}
set optking {
	frozen_dihedral = ("
		1 2 3 6
	")
}

ee = optimize('scf')
oeprop('DIPOLE', 'QUADRUPOLE', 'MULLIKEN_CHARGES')
f=open( 'psi4out.xyz', 'w' )
f.write( "17  " )
f.write( str(ee) + "\n" )
f.write( MOL.save_string_xyz() )
f.close()
--------------------------------------------------------------------------

    Molecular point group: c1
  Charge       = 0
  Multiplicity = 1
  Basis Set: 6-31G*
  Basis Set:
  @DF-RHF Final Energy:  -344.90538072626731
    Total Energy =                       -344.9053807262674809
    Molecular point group: c1
  Basis Set: 6-31G*
  Basis Set:
  Basis Set: 6-31G*
  Basis Set:
  @DF-RHF Final Energy:  -344.90542232001786
    Total Energy =                       -344.9054223200176921
  Basis Set: 6-31G*
  Basis Set:
  Basis Set: 6-31G*
  Basis Set:
  @DF-RHF Final Energy:  -344.90514147869635
    Total Energy =                       -344.9051414786963505
  Basis Set: 6-31G*
  Basis Set:
  Basis Set: 6-31G*
  Basis Set:
  @DF-RHF Final Energy:  -344.90588504120808
    Total Energy =                       -344.9058850412080233
  Basis Set: 6-31G*
  Basis Set:
  Basis Set: 6-31G*
  Basis Set:
  @DF-RHF Final Energy:  -344.90588838414209
    Total Energy =                       -344.9058883841420879
  Basis Set: 6-31G*
  Basis Set:
  Basis Set: 6-31G*
  Basis Set:
  @DF-RHF Final Energy:  -344.90588971172559
    Total Energy =                       -344.9058897117261040
  Basis Set: 6-31G*
  Basis Set:
  Charge       = 0
  Multiplicity = 1
  Basis Set: 6-31G*
  Basis Set:

    Orbital Energies (a.u.)
    -----------------------

    Doubly Occupied:

       1A    -20.605976     2A    -20.543666     3A    -11.372465
       4A    -11.281190     5A    -11.235183     6A    -11.225183
       7A    -11.215658     8A     -1.470217     9A     -1.362356
      10A     -1.080958    11A     -1.001024    12A     -0.940832
      13A     -0.827755    14A     -0.770013    15A     -0.699486
      16A     -0.682052    17A     -0.672476    18A     -0.636924
      19A     -0.594588    20A     -0.579773    21A     -0.563701
      22A     -0.531435    23A     -0.524038    24A     -0.500549
      25A     -0.485228    26A     -0.479778    27A     -0.455886
      28A     -0.436050

  @DF-RHF Final Energy:  -344.90588982022695

   => Energetics <=

    Nuclear Repulsion Energy =            312.5698687584962840
    One-Electron Energy =               -1089.4026369326452368
    Two-Electron Energy =                 431.9268783539218930
    DFT Exchange-Correlation Energy =       0.0000000000000000
    Empirical Dispersion Energy =           0.0000000000000000
    PCM Polarization Energy =               0.0000000000000000
    EFP Energy =                            0.0000000000000000
    Total Energy =                       -344.9058898202270029
    Molecular point group: c1
  Basis Set: 6-31G*
  Basis Set:

  -Total Gradient:
     Atom            X                  Y                   Z
    ------   -----------------  -----------------  -----------------
       1        0.000317119360    -0.000616573498    -0.000719130132
       2       -0.000534656869     0.001011772586     0.000931951775
       3        0.000606462322    -0.001130421993     0.000297563051
       4        0.000003784805     0.000018015474     0.000004974445
       5       -0.000010718718     0.000008142797     0.000002043608
       6       -0.000380012642     0.000710409961    -0.000512073437
       7        0.000002490869     0.000003739594    -0.000001467919
       8       -0.000002087378    -0.000000261409     0.000003443633
       9        0.000004856075    -0.000003121349     0.000003608151
      10       -0.000004735516     0.000001740640    -0.000010833033
      11       -0.000006129283     0.000002882787    -0.000003245522
      12       -0.000001986431     0.000000735959     0.000004788794
      13        0.000005453607    -0.000003827163    -0.000005063616
      14       -0.000007488139    -0.000009590096    -0.000001122416
      15        0.000000767567     0.000000357131     0.000001509996
      16        0.000003752782     0.000002257563     0.000001166485
      17        0.000003127586     0.000003741018     0.000001886132

  **** Optimization is complete! (in 7 steps) ****
    Final optimized geometry and variables:
    Molecular point group: c1

    Geometry (in Angstrom), charge = 0, multiplicity = 1:

    O            0.854331644399     1.023281467825    -0.787806074412
    C            0.596302764240     0.073538523225    -0.119484291099
    C           -0.740395419263    -0.629433066110    -0.108749325050
    O            1.476298911214    -0.509444517465     0.681708302040
    C           -1.916286415305     0.348038820487    -0.173059650406
    H           -0.755949054027    -1.273617508415    -0.985254687596
    H           -0.802437700440    -1.269750127217     0.762229836484
    C           -3.260960575465    -0.373546111448    -0.239653407994
    H           -1.793147249531     0.990002896287    -1.037041457287
    H           -1.893459902028     0.995489595457     0.699489870338
    H           -3.326394804853    -1.002180989298    -1.123265747270
    H           -4.079945715958     0.337188781166    -0.278898811243
    H           -3.414321297694    -1.007208342977     0.629259469388
    C            2.780949260643     0.041403775076     0.711014489117
    H            3.232645878021    -0.000126325676    -0.269617722184
    H            3.340705493149    -0.563411628393     1.407233117076
    H            2.751499244538     1.068312739855     1.045429308796

  Mulliken Charges: (a.u.)
   Center  Symbol    Alpha    Beta     Spin     Total
       1     O     4.28680  4.28680  0.00000 -0.57360
       2     C     2.60530  2.60530  0.00000  0.78940
       3     C     3.20643  3.20643  0.00000 -0.41285
       4     O     4.30531  4.30531  0.00000 -0.61062
       5     C     3.15798  3.15798  0.00000 -0.31596
       6     H     0.40085  0.40085  0.00000  0.19831
       7     H     0.40063  0.40063  0.00000  0.19874
       8     C     3.24199  3.24199  0.00000 -0.48397
       9     H     0.40282  0.40282  0.00000  0.19436
      10     H     0.41678  0.41678  0.00000  0.16645
      11     H     0.42023  0.42023  0.00000  0.15955
      12     H     0.41516  0.41516  0.00000  0.16969
      13     H     0.42083  0.42083  0.00000  0.15833
      14     C     3.09349  3.09349  0.00000 -0.18698
      15     H     0.40877  0.40877  0.00000  0.18245
      16     H     0.40829  0.40829  0.00000  0.18342
      17     H     0.40836  0.40836  0.00000  0.18328

   Total alpha = 28.00000, Total beta = 28.00000, Total charge = -0.00000
