  ==> Input File <==

--------------------------------------------------------------------------
set {
	reference rhf
	basis 6-31G*
}

set_num_threads( 1 )
memory 2 gb

molecule MOL {
0 1

H	 1.741172	 -0.976163	 0.891017
O	 1.586534	 -0.678666	 -0.000226
C	 0.489431	 0.077273	 0.000046
C	 -0.764129	 -0.759190	 0.000191
O	 0.537743	 1.263962	 0.000257
C	 -2.038368	 0.075731	 -0.000248
H	 -0.717284	 -1.412404	 -0.866059
H	 -0.717458	 -1.411724	 0.866967
H	 -2.086483	 0.712501	 -0.875098
H	 -2.908485	 -0.571682	 -0.000042
H	 -2.086576	 0.713280	 0.874068

	symmetry c1
}
set optking {
	frozen_dihedral = ("
		2 3 4 7
	")
}

ee = energy('scf')
oeprop('DIPOLE', 'QUADRUPOLE', 'MULLIKEN_CHARGES')
f=open( 'psi4out.xyz', 'w' )
f.write( "11  " )
f.write( str(ee) + "\n" )
f.write( MOL.save_string_xyz() )
f.close()
--------------------------------------------------------------------------

    Molecular point group: c1

    Geometry (in Angstrom), charge = 0, multiplicity = 1:

       Center              X                  Y                   Z               Mass
    ------------   -----------------  -----------------  -----------------  -----------------
           H          1.749374575067    -0.964253804240     0.878885356747     1.007825032070
           O          1.594736575067    -0.666756804240    -0.012357643253    15.994914619560
           C          0.497633575067     0.089182195760    -0.012085643253    12.000000000000
           C         -0.755926424933    -0.747280804240    -0.011940643253    12.000000000000
           O          0.545945575067     1.275871195760    -0.011874643253    15.994914619560
           C         -2.030165424933     0.087640195760    -0.012379643253    12.000000000000
           H         -0.709081424933    -1.400494804240    -0.878190643253     1.007825032070
           H         -0.709255424933    -1.399814804240     0.854835356747     1.007825032070
           H         -2.078280424933     0.724410195760    -0.887229643253     1.007825032070
           H         -2.900282424933    -0.559772804240    -0.012173643253     1.007825032070
           H         -2.078373424933     0.725189195760     0.861936356747     1.007825032070

  Charge       = 0
  Multiplicity = 1
  Basis Set: 6-31G*
  Basis Set:

    Orbital Energies (a.u.)
    -----------------------

    Doubly Occupied:

       1A    -20.599951     2A    -20.561269     3A    -11.380861
       4A    -11.246733     5A    -11.221739     6A     -1.469809
       7A     -1.370869     8A     -1.065469     9A     -0.909496
      10A     -0.813785    11A     -0.714802    12A     -0.677676
      13A     -0.661686    14A     -0.618778    15A     -0.570780
      16A     -0.529701    17A     -0.519445    18A     -0.498281
      19A     -0.491361    20A     -0.446299

  @DF-RHF Final Energy:  -266.82270917601790

   => Energetics <=

    Nuclear Repulsion Energy =            179.8435375618794865
    One-Electron Energy =                -720.5949344736915236
    Two-Electron Energy =                 273.9286877357947105
    DFT Exchange-Correlation Energy =       0.0000000000000000
    Empirical Dispersion Energy =           0.0000000000000000
    PCM Polarization Energy =               0.0000000000000000
    EFP Energy =                            0.0000000000000000
    Total Energy =                       -266.8227091760172698

  Mulliken Charges: (a.u.)
   Center  Symbol    Alpha    Beta     Spin     Total
       1     H     0.26597  0.26597  0.00000  0.46806
       2     O     4.35530  4.35530  0.00000 -0.71059
       3     C     2.63641  2.63641  0.00000  0.72717
       4     C     3.20891  3.20891  0.00000 -0.41783
       5     O     4.25075  4.25075  0.00000 -0.50151
       6     C     3.23990  3.23990  0.00000 -0.47979
       7     H     0.39599  0.39599  0.00000  0.20802
       8     H     0.41157  0.41157  0.00000  0.17686
       9     H     0.40729  0.40729  0.00000  0.18542
      10     H     0.41747  0.41747  0.00000  0.16505
      11     H     0.41043  0.41043  0.00000  0.17913

   Total alpha = 20.00000, Total beta = 20.00000, Total charge =  0.00000
