  ==> Input File <==

--------------------------------------------------------------------------
set {
	reference rhf
	basis cc-pvtz
}

set_num_threads( 4 )
memory 2 gb

molecule MOL {
0 1

H	 3.459101	 0.139266	 -0.762951
C	 2.749156	 -0.051729	 0.031265
C	 1.322304	 0.099773	 -0.484271
H	 2.929445	 -1.053887	 0.403481
H	 2.954281	 0.646699	 0.834672
C	 0.308557	 -0.162619	 0.622645
H	 1.143368	 -0.594400	 -1.295960
H	 1.169532	 1.100095	 -0.870217
N	 -1.069352	 -0.004081	 0.085342
H	 0.371632	 -1.172932	 0.991288
H	 0.400391	 0.548875	 1.426218
O	 -1.784830	 -0.947294	 0.140263
O	 -1.349902	 1.045790	 -0.387949

	symmetry c1
}
set optking {
	frozen_dihedral = ("
		12 9 6 3
	")
}

ee = optimize('scf')
oeprop('DIPOLE', 'QUADRUPOLE', 'MULLIKEN_CHARGES')
f=open( 'psi4out.xyz', 'w' )
f.write( "13  " )
f.write( str(ee) + "\n" )
f.write( MOL.save_string_xyz() )
f.close()
--------------------------------------------------------------------------

    Molecular point group: c1
  Charge       = 0
  Multiplicity = 1
  Basis Set: CC-PVTZ
  Basis Set:
  @DF-RHF Final Energy:  -321.86097794766954
    Total Energy =                       -321.8609779476695394
    Molecular point group: c1
  Basis Set: CC-PVTZ
  Basis Set:
  Basis Set: CC-PVTZ
  Basis Set:
  @DF-RHF Final Energy:  -321.85639992145201
    Total Energy =                       -321.8563999214518390
  Basis Set: CC-PVTZ
  Basis Set:
  Basis Set: CC-PVTZ
  Basis Set:
  @DF-RHF Final Energy:  -321.86105573894969
    Total Energy =                       -321.8610557389496876
  Basis Set: CC-PVTZ
  Basis Set:
  Basis Set: CC-PVTZ
  Basis Set:
  @DF-RHF Final Energy:  -321.86125751142657
    Total Energy =                       -321.8612575114264587
  Basis Set: CC-PVTZ
  Basis Set:
  Basis Set: CC-PVTZ
  Basis Set:
  @DF-RHF Final Energy:  -321.86125943770264
    Total Energy =                       -321.8612594377028699
  Basis Set: CC-PVTZ
  Basis Set:
  Charge       = 0
  Multiplicity = 1
  Basis Set: CC-PVTZ
  Basis Set:

    Orbital Energies (a.u.)
    -----------------------

    Doubly Occupied:

       1A    -20.592517     2A    -20.588988     3A    -15.837406
       4A    -11.297739     5A    -11.251966     6A    -11.236456
       7A     -1.636446     8A     -1.420648     9A     -1.133324
      10A     -1.027581    11A     -0.884342    12A     -0.832372
      13A     -0.762690    14A     -0.741270    15A     -0.728862
      16A     -0.669720    17A     -0.604688    18A     -0.585612
      19A     -0.551376    20A     -0.521708    21A     -0.511993
      22A     -0.487650    23A     -0.474672    24A     -0.453793

  @DF-RHF Final Energy:  -321.86126041300020

   => Energetics <=

    Nuclear Repulsion Energy =            247.8300107727894499
    One-Electron Energy =                -929.7149073206314824
    Two-Electron Energy =                 360.0236361348414675
    DFT Exchange-Correlation Energy =       0.0000000000000000
    Empirical Dispersion Energy =           0.0000000000000000
    PCM Polarization Energy =               0.0000000000000000
    EFP Energy =                            0.0000000000000000
    Total Energy =                       -321.8612604130005366
    Molecular point group: c1
  Basis Set: CC-PVTZ
  Basis Set:

  -Total Gradient:
     Atom            X                  Y                   Z
    ------   -----------------  -----------------  -----------------
       1        0.000011438319    -0.000002269825     0.000001339255
       2       -0.000000301102    -0.000005643019    -0.000008871682
       3        0.000001340090     0.000353899211     0.000087494776
       4       -0.000000249135     0.000002714063     0.000001932122
       5       -0.000001663298    -0.000000667952    -0.000004165461
       6       -0.000073527030    -0.000429583042     0.000055639541
       7        0.000000422025     0.000003772928     0.000011583246
       8       -0.000000227293     0.000008090808    -0.000006658567
       9        0.000225050455     0.000044559238    -0.000582549997
      10       -0.000008066460    -0.000002629074    -0.000000911862
      11        0.000008225560     0.000003878116    -0.000009879883
      12       -0.000180854578     0.000094385915     0.000428715284
      13        0.000018412447    -0.000070507370     0.000026333227

  **** Optimization is complete! (in 6 steps) ****
    Final optimized geometry and variables:
    Molecular point group: c1

    Geometry (in Angstrom), charge = 0, multiplicity = 1:

    H            3.477580563243     0.134801400934    -0.757345676537
    C            2.759089289842    -0.052412883718     0.030032176361
    C            1.337883016223     0.112683610288    -0.497950591248
    H            2.930070663827    -1.055922766110     0.403051849476
    H            2.962489296390     0.643638501020     0.836239367659
    C            0.316916562160    -0.151764455261     0.598429168518
    H            1.165211005163    -0.577560976885    -1.316239605136
    H            1.192618921950     1.112152659990    -0.882640931275
    N           -1.072659641769    -0.008203447002     0.080991736039
    H            0.382999057562    -1.150426127615     0.993765904001
    H            0.399943001494     0.572142837409     1.395723455900
    O           -1.782027987504    -0.954574398293     0.145077973652
    O           -1.378660648651     1.050635298154    -0.356275064791

  Mulliken Charges: (a.u.)
   Center  Symbol    Alpha    Beta     Spin     Total
       1     H     0.44157  0.44157  0.00000  0.11685
       2     C     3.15132  3.15132  0.00000 -0.30264
       3     C     3.09620  3.09620  0.00000 -0.19239
       4     H     0.45197  0.45197  0.00000  0.09605
       5     H     0.45204  0.45204  0.00000  0.09592
       6     C     3.04009  3.04009  0.00000 -0.08017
       7     H     0.44284  0.44284  0.00000  0.11432
       8     H     0.43363  0.43363  0.00000  0.13275
       9     N     3.27685  3.27685  0.00000  0.44631
      10     H     0.43266  0.43266  0.00000  0.13469
      11     H     0.43710  0.43710  0.00000  0.12580
      12     O     4.16909  4.16909  0.00000 -0.33819
      13     O     4.17464  4.17464  0.00000 -0.34929

   Total alpha = 24.00000, Total beta = 24.00000, Total charge = -0.00000
