                              Psi4 1.0.54 Driver

  ==> Input File <==

--------------------------------------------------------------------------
set {
	reference rhf
	basis cc-pvtz
}

set_num_threads( 4 )
memory 2 gb

molecule MOL {
0 1

H	 -2.420711	 -1.502593	 -0.447227
O	 -2.658848	 -0.704215	 -0.000460
C	 -1.605397	 0.107680	 0.001145
C	 -0.310616	 -0.658853	 0.000791
O	 -1.718351	 1.284629	 -0.000627
C	 0.926581	 0.227233	 0.000178
H	 -0.327628	 -1.313681	 -0.864448
H	 -0.327041	 -1.313334	 0.866298
C	 2.220156	 -0.582071	 -0.000088
H	 0.899945	 0.878221	 -0.866390
H	 0.900542	 0.878581	 0.866486
C	 3.466689	 0.296012	 -0.000457
H	 2.239073	 -1.234095	 -0.869382
H	 2.239505	 -1.233985	 0.869270
H	 3.493549	 0.935857	 -0.875887
H	 4.368821	 -0.304526	 -0.001199
H	 3.494559	 0.935166	 0.875458

	symmetry c1
}
set optking {
	frozen_dihedral = ("
		1 2 3 5
	")
}

ee,wfn = optimize('scf', return_wfn=True)
oeprop( wfn, 'DIPOLE', 'QUADRUPOLE', 'MULLIKEN_CHARGES')
f=open( 'psi4out.xyz', 'w' )
f.write( "17  " )
f.write( str(ee) + "\n" )
f.write( MOL.save_string_xyz() )
f.close()
--------------------------------------------------------------------------

    Molecular point group: c1
  Charge       = 0
  Multiplicity = 1
  Basis Set: CC-PVTZ
  Basis Set:
  @DF-RHF Final Energy:  -345.03534624255633
    Total Energy =                       -345.0353462425567272
    Molecular point group: c1
  Basis Set: CC-PVTZ
  Basis Set:
  Basis Set: CC-PVTZ
  Basis Set:
  @DF-RHF Final Energy:  -345.03655006667998
    Total Energy =                       -345.0365500666796947
  Basis Set: CC-PVTZ
  Basis Set:
  Basis Set: CC-PVTZ
  Basis Set:
  @DF-RHF Final Energy:  -345.03671135399327
    Total Energy =                       -345.0367113539931552
  Basis Set: CC-PVTZ
  Basis Set:
  Basis Set: CC-PVTZ
  Basis Set:
  @DF-RHF Final Energy:  -345.03652248402710
    Total Energy =                       -345.0365224840272163
  Basis Set: CC-PVTZ
  Basis Set:
  Basis Set: CC-PVTZ
  Basis Set:
  @DF-RHF Final Energy:  -345.03675160793614
    Total Energy =                       -345.0367516079360826
  Basis Set: CC-PVTZ
  Basis Set:
  Basis Set: CC-PVTZ
  Basis Set:
  @DF-RHF Final Energy:  -345.03675275170718
    Total Energy =                       -345.0367527517072403
  Basis Set: CC-PVTZ
  Basis Set:
  Charge       = 0
  Multiplicity = 1
  Basis Set: CC-PVTZ
  Basis Set:

    Orbital Energies (a.u.)
    -----------------------

    Doubly Occupied:

       1A    -20.600142     2A    -20.539721     3A    -11.373068
       4A    -11.249072     5A    -11.226144     6A    -11.225398
       7A    -11.213987     8A     -1.469182     9A     -1.373404
      10A     -1.097048    11A     -1.020673    12A     -0.909075
      13A     -0.834559    14A     -0.806546    15A     -0.717257
      16A     -0.676881    17A     -0.662680    18A     -0.637270
      19A     -0.603805    20A     -0.585002    21A     -0.564287
      22A     -0.544411    23A     -0.515366    24A     -0.490276
      25A     -0.485006    26A     -0.479805    27A     -0.476539
      28A     -0.443250

  @DF-RHF Final Energy:  -345.03675279608109

   => Energetics <=

    Nuclear Repulsion Energy =            304.6364310533650155
    One-Electron Energy =               -1073.7066553844845203
    Two-Electron Energy =                 424.0334715350383021
    DFT Exchange-Correlation Energy =       0.0000000000000000
    Empirical Dispersion Energy =           0.0000000000000000
    PCM Polarization Energy =               0.0000000000000000
    EFP Energy =                            0.0000000000000000
    Total Energy =                       -345.0367527960812595
    Molecular point group: c1
  Basis Set: CC-PVTZ
  Basis Set:

  -Total Gradient:
     Atom            X                  Y                   Z
    ------   -----------------  -----------------  -----------------
       1       -0.001682780264     0.002469141434    -0.005323978522
       2        0.002165541516    -0.003127983352     0.004444494695
       3       -0.000508223501     0.000715286191     0.006064435650
       4       -0.000024255834    -0.000021331576     0.000059714396
       5        0.000041477237    -0.000049223574    -0.005224128944
       6        0.000008211561    -0.000000648037     0.000001501833
       7        0.000004153837     0.000015374146    -0.000018714641
       8        0.000005151768     0.000000339821    -0.000005074800
       9        0.000001706945    -0.000002963845    -0.000003355550
      10        0.000000323193    -0.000003763127     0.000001100606
      11       -0.000000497425     0.000001635044     0.000003569086
      12       -0.000005164265     0.000003432473     0.000000707242
      13       -0.000000957598    -0.000000514287    -0.000001257991
      14       -0.000002706949     0.000001116273     0.000000091491
      15        0.000000662067     0.000000274413    -0.000000801687
      16       -0.000003496625    -0.000001626490     0.000000748495
      17        0.000000854336     0.000001454498     0.000000948643

  **** Optimization is complete! (in 7 steps) ****
    Final optimized geometry and variables:
    Molecular point group: c1

    Geometry (in Angstrom), charge = 0, multiplicity = 1:

    H           -2.573804863732    -1.470937469493    -0.436597575254
    O           -2.717651577481    -0.646523782493    -0.005424835752
    C           -1.614201093906     0.115649435114     0.000112478123
    C           -0.313344324571    -0.654042935809     0.015022809483
    O           -1.702736704895     1.287480570465    -0.006605896376
    C            0.925383032775     0.230041419140     0.001481771526
    H           -0.312095856228    -1.323648873801    -0.842841021860
    H           -0.326769241775    -1.292476850934     0.893504430580
    C            2.219368634884    -0.578379755171     0.018618594022
    H            0.898890112468     0.866213194272    -0.875680425033
    H            0.893829146864     0.895012766553     0.856540675634
    C            3.464648713170     0.301372670669     0.008443179600
    H            2.242805151234    -1.244234414033    -0.840292158688
    H            2.236705316280    -1.215961651851     0.898630832762
    H            3.493815767489     0.926684025573    -0.877252554158
    H            4.367364696597    -0.298014513112     0.021041898235
    H            3.487984650199     0.954685739519     0.873805968444

  Mulliken Charges: (a.u.)
   Center  Symbol    Alpha    Beta     Spin     Total
       1     H     0.38798  0.38798  0.00000  0.22403
       2     O     4.15145  4.15145  0.00000 -0.30289
       3     C     2.80323  2.80323  0.00000  0.39354
       4     C     3.12573  3.12573  0.00000 -0.25145
       5     O     4.17131  4.17131  0.00000 -0.34263
       6     C     3.08560  3.08560  0.00000 -0.17120
       7     H     0.45114  0.45114  0.00000  0.09771
       8     H     0.43646  0.43646  0.00000  0.12709
       9     C     3.08651  3.08651  0.00000 -0.17301
      10     H     0.44443  0.44443  0.00000  0.11113
      11     H     0.44273  0.44273  0.00000  0.11453
      12     C     3.14933  3.14933  0.00000 -0.29865
      13     H     0.45561  0.45561  0.00000  0.08878
      14     H     0.45477  0.45477  0.00000  0.09045
      15     H     0.45319  0.45319  0.00000  0.09362
      16     H     0.44775  0.44775  0.00000  0.10451
      17     H     0.45278  0.45278  0.00000  0.09443

   Total alpha = 28.00000, Total beta = 28.00000, Total charge =  0.00000

*** Psi4 exiting successfully. Buy a developer a beer!
