  ==> Input File <==

--------------------------------------------------------------------------
set {
	reference rhf
	basis cc-pvtz
}

set_num_threads( 4 )
memory 2 gb

molecule MOL {
0 1

O	 0.347807	 -0.244464	 -2.286717
C	 -0.001617	 0.325125	 -1.292641
C	 -1.158640	 1.301464	 -1.346430
N	 0.622280	 0.144970	 -0.099307
H	 -0.853355	 2.292544	 -1.035132
H	 -1.501863	 1.338420	 -2.366883
H	 -1.973083	 0.983711	 -0.707141
C	 1.664396	 -0.854993	 0.000772
C	 0.110408	 0.630934	 1.159891
H	 2.462727	 -0.615153	 -0.690869
H	 1.261798	 -1.821849	 -0.240651
H	 2.081615	 -0.891605	 1.003877
H	 0.940098	 0.877018	 1.810039
H	 -0.478951	 1.522804	 1.032921
H	 -0.498784	 -0.114897	 1.665524

	symmetry c1
}
set optking {
	frozen_dihedral = ("
		2 4 8 10
	")
}

ee = optimize('scf')
oeprop('DIPOLE', 'QUADRUPOLE', 'MULLIKEN_CHARGES')
f=open( 'psi4out.xyz', 'w' )
f.write( "15  " )
f.write( str(ee) + "\n" )
f.write( MOL.save_string_xyz() )
f.close()
--------------------------------------------------------------------------

    Molecular point group: c1
  Charge       = 0
  Multiplicity = 1
  Basis Set: CC-PVTZ
  Basis Set:
  @DF-RHF Final Energy:  -286.13383523353002
    Total Energy =                       -286.1338352335301352
    Molecular point group: c1
  Basis Set: CC-PVTZ
  Basis Set:
  Basis Set: CC-PVTZ
  Basis Set:
  @DF-RHF Final Energy:  -286.13478579102167
    Total Energy =                       -286.1347857910215566
  Basis Set: CC-PVTZ
  Basis Set:
  Basis Set: CC-PVTZ
  Basis Set:
  @DF-RHF Final Energy:  -286.13487290979930
    Total Energy =                       -286.1348729097991281
  Basis Set: CC-PVTZ
  Basis Set:
  Basis Set: CC-PVTZ
  Basis Set:
  @DF-RHF Final Energy:  -286.13481797812619
    Total Energy =                       -286.1348179781259660
  Basis Set: CC-PVTZ
  Basis Set:
  Basis Set: CC-PVTZ
  Basis Set:
  @DF-RHF Final Energy:  -286.13492348952650
    Total Energy =                       -286.1349234895266136
  Basis Set: CC-PVTZ
  Basis Set:
  Basis Set: CC-PVTZ
  Basis Set:
  @DF-RHF Final Energy:  -286.13492481036849
    Total Energy =                       -286.1349248103687160
  Basis Set: CC-PVTZ
  Basis Set:
  Basis Set: CC-PVTZ
  Basis Set:
  @DF-RHF Final Energy:  -286.13492662609156
    Total Energy =                       -286.1349266260914419
  Basis Set: CC-PVTZ
  Basis Set:
  Charge       = 0
  Multiplicity = 1
  Basis Set: CC-PVTZ
  Basis Set:

    Orbital Energies (a.u.)
    -----------------------

    Doubly Occupied:

       1A    -20.503623     2A    -15.577260     3A    -11.332609
       4A    -11.264594     5A    -11.247304     6A    -11.226432
       7A     -1.387410     8A     -1.244068     9A     -1.014442
      10A     -0.974045    11A     -0.919739    12A     -0.738239
      13A     -0.681503    14A     -0.660256    15A     -0.653551
      16A     -0.588298    17A     -0.576881    18A     -0.570413
      19A     -0.566533    20A     -0.547083    21A     -0.530926
      22A     -0.502066    23A     -0.413920    24A     -0.370367

  @DF-RHF Final Energy:  -286.13492677604398

   => Energetics <=

    Nuclear Repulsion Energy =            253.0866803067036130
    One-Electron Energy =                -890.2600873651682605
    Two-Electron Energy =                 351.0384802824208919
    DFT Exchange-Correlation Energy =       0.0000000000000000
    Empirical Dispersion Energy =           0.0000000000000000
    PCM Polarization Energy =               0.0000000000000000
    EFP Energy =                            0.0000000000000000
    Total Energy =                       -286.1349267760436987
    Molecular point group: c1
  Basis Set: CC-PVTZ
  Basis Set:

  -Total Gradient:
     Atom            X                  Y                   Z
    ------   -----------------  -----------------  -----------------
       1        0.000007054504    -0.000006958919     0.000011635513
       2       -0.000649841468    -0.000589740556     0.000194981044
       3        0.000019803358    -0.000011014973     0.000004304602
       4        0.001005415650     0.001046452223    -0.000093188324
       5       -0.000001980038     0.000002762159     0.000008576798
       6       -0.000000243597     0.000000755022     0.000003318058
       7       -0.000002860904     0.000004233307     0.000002799600
       8       -0.000863380737    -0.000978251230    -0.000830364134
       9       -0.000007804967    -0.000029532228    -0.000063759266
      10        0.000502245657     0.000544919792     0.000738711838
      11        0.000005727839     0.000004433830     0.000004207346
      12        0.000000274576     0.000000173042    -0.000007773172
      13        0.000000816676    -0.000000554158     0.000006189705
      14       -0.000005945522     0.000015470078     0.000006041751
      15       -0.000009281028    -0.000003147389     0.000014318640

  **** Optimization is complete! (in 8 steps) ****
    Final optimized geometry and variables:
    Molecular point group: c1

    Geometry (in Angstrom), charge = 0, multiplicity = 1:

    O            0.098943684602    -0.471010867589    -1.627065914293
    C           -0.265484304882     0.117355228790    -0.648912313482
    C           -1.421589329354     1.091647437344    -0.727837013303
    N            0.355692068856    -0.055703503105     0.544111051927
    H           -1.126543783337     2.082580879986    -0.406467278296
    H           -1.742195603305     1.130300725680    -1.755692055183
    H           -2.249768844036     0.769341161432    -0.108503846454
    C            1.386191206599    -1.076732800631     0.599286062032
    C           -0.160878255686     0.423035640307     1.805001436516
    H            2.177984759729    -0.855814072194    -0.100623264530
    H            0.991010085380    -2.057590044528     0.364391272674
    H            1.801289858447    -1.096271354108     1.596729417753
    H            0.660105067370     0.722523756753     2.443178265517
    H           -0.794135199370     1.282625008576     1.666993483036
    H           -0.732059260319    -0.340375330283     2.327920280474

  Mulliken Charges: (a.u.)
   Center  Symbol    Alpha    Beta     Spin     Total
       1     O     4.21995  4.21995  0.00000 -0.43990
       2     C     2.84566  2.84566  0.00000  0.30869
       3     C     3.15996  3.15996  0.00000 -0.31993
       4     N     3.56256  3.56256  0.00000 -0.12511
       5     H     0.44893  0.44893  0.00000  0.10213
       6     H     0.42890  0.42890  0.00000  0.14220
       7     H     0.44926  0.44926  0.00000  0.10147
       8     C     3.08978  3.08978  0.00000 -0.17957
       9     C     3.09814  3.09814  0.00000 -0.19629
      10     H     0.44020  0.44020  0.00000  0.11960
      11     H     0.44958  0.44958  0.00000  0.10085
      12     H     0.45811  0.45811  0.00000  0.08378
      13     H     0.44858  0.44858  0.00000  0.10284
      14     H     0.44580  0.44580  0.00000  0.10839
      15     H     0.45458  0.45458  0.00000  0.09084

   Total alpha = 24.00000, Total beta = 24.00000, Total charge = -0.00000
