                              Psi4 1.0.54 Driver

  ==> Input File <==

--------------------------------------------------------------------------
set {
	reference rhf
	basis cc-pvtz
}

set_num_threads( 4 )
memory 2 gb

molecule MOL {
0 1

H	 -3.081520	 -0.721845	 1.141454
C	 -3.183657	 -0.448045	 0.082452
C	 -2.653809	 0.914422	 -0.273689
O	 -3.689234	 -1.199952	 -0.676716
C	 -1.216901	 1.136108	 0.207794
H	 -2.741291	 1.049041	 -1.343996
H	 -3.307845	 1.637467	 0.208750
C	 -0.247837	 0.040196	 -0.230469
H	 -0.872882	 2.093195	 -0.169002
H	 -1.209325	 1.218376	 1.291938
C	 1.181757	 0.280428	 0.247371
H	 -0.259600	 -0.030819	 -1.314870
H	 -0.591284	 -0.923375	 0.136958
C	 2.151032	 -0.811012	 -0.202643
H	 1.515939	 1.247397	 -0.115449
H	 1.191514	 0.341223	 1.333422
C	 3.580021	 -0.656538	 0.320835
H	 2.170545	 -0.847575	 -1.289412
H	 1.766632	 -1.772905	 0.124928
C	 4.327657	 0.562694	 -0.213579
H	 4.138806	 -1.549270	 0.057813
H	 3.561991	 -0.620783	 1.406976
H	 4.355973	 0.557257	 -1.298551
H	 3.867136	 1.491650	 0.100501
H	 5.351524	 0.571613	 0.142204

	symmetry c1
}
set optking {
	frozen_dihedral = ("
		6 3 5 8
	")
}

ee,wfn = optimize('scf', return_wfn=True)
oeprop( wfn, 'DIPOLE', 'QUADRUPOLE', 'MULLIKEN_CHARGES')
f=open( 'psi4out.xyz', 'w' )
f.write( "25  " )
f.write( str(ee) + "\n" )
f.write( MOL.save_string_xyz() )
f.close()
--------------------------------------------------------------------------

    Molecular point group: c1
  Charge       = 0
  Multiplicity = 1
  Basis Set: CC-PVTZ
  Basis Set:
  @DF-RHF Final Energy:  -387.25941958810620
    Total Energy =                       -387.2594195881061978
    Molecular point group: c1
  Basis Set: CC-PVTZ
  Basis Set:
  Basis Set: CC-PVTZ
  Basis Set:
  @DF-RHF Final Energy:  -387.25945236747020
    Total Energy =                       -387.2594523674702032
  Basis Set: CC-PVTZ
  Basis Set:
  Basis Set: CC-PVTZ
  Basis Set:
  @DF-RHF Final Energy:  -387.25938073666498
    Total Energy =                       -387.2593807366648662
  Basis Set: CC-PVTZ
  Basis Set:
  Basis Set: CC-PVTZ
  Basis Set:
  @DF-RHF Final Energy:  -387.25958263224078
    Total Energy =                       -387.2595826322401535
  Basis Set: CC-PVTZ
  Basis Set:
  Basis Set: CC-PVTZ
  Basis Set:
  @DF-RHF Final Energy:  -387.25958998401194
    Total Energy =                       -387.2595899840114271
  Basis Set: CC-PVTZ
  Basis Set:
  Basis Set: CC-PVTZ
  Basis Set:
  @DF-RHF Final Energy:  -387.25959116652211
    Total Energy =                       -387.2595911665220001
  Basis Set: CC-PVTZ
  Basis Set:
  Charge       = 0
  Multiplicity = 1
  Basis Set: CC-PVTZ
  Basis Set:

    Orbital Energies (a.u.)
    -----------------------

    Doubly Occupied:

       1A    -20.550942     2A    -11.321078     3A    -11.233738
       4A    -11.232919     5A    -11.222279     6A    -11.218062
       7A    -11.216443     8A    -11.215267     9A    -11.208935
      10A     -1.406007    11A     -1.105418    12A     -1.070928
      13A     -1.014669    14A     -0.943598    15A     -0.876604
      16A     -0.824435    17A     -0.785224    18A     -0.782304
      19A     -0.669607    20A     -0.661026    21A     -0.635612
      22A     -0.627841    23A     -0.601961    24A     -0.598178
      25A     -0.577065    26A     -0.548572    27A     -0.540543
      28A     -0.527698    29A     -0.505723    30A     -0.497775
      31A     -0.494723    32A     -0.478058    33A     -0.465284
      34A     -0.459738    35A     -0.443008    36A     -0.411765

  @DF-RHF Final Energy:  -387.25959139677531

   => Energetics <=

    Nuclear Repulsion Energy =            440.3536127320498395
    One-Electron Energy =               -1397.2803595793729983
    Two-Electron Energy =                 569.6671554505473978
    DFT Exchange-Correlation Energy =       0.0000000000000000
    Empirical Dispersion Energy =           0.0000000000000000
    PCM Polarization Energy =               0.0000000000000000
    EFP Energy =                            0.0000000000000000
    Total Energy =                       -387.2595913967757042
    Molecular point group: c1
  Basis Set: CC-PVTZ
  Basis Set:

  -Total Gradient:
     Atom            X                  Y                   Z
    ------   -----------------  -----------------  -----------------
       1        0.000004790906    -0.000001948938     0.000006345520
       2       -0.000012911085     0.000024150447    -0.000006885612
       3        0.000590871670    -0.004609331071     0.000125272106
       4        0.000011062684    -0.000012868071    -0.000005017331
       5        0.000571450159     0.002642101373    -0.002639019022
       6       -0.000647665559     0.003229932629     0.000528337410
       7        0.000009421668     0.000005992874     0.000012544628
       8       -0.000526127124    -0.001283560644     0.001981734434
       9       -0.000004851447     0.000001886034    -0.000003885806
      10        0.000004879753    -0.000002664353     0.000001046439
      11       -0.000001924841     0.000004096242     0.000005793572
      12       -0.000000963565     0.000006366218     0.000005940102
      13       -0.000002335452    -0.000005511868    -0.000006328756
      14        0.000001375550     0.000000812518    -0.000004212806
      15        0.000000056332    -0.000006948898    -0.000002609561
      16       -0.000000316154     0.000005510951    -0.000000568859
      17       -0.000002483583     0.000001153295     0.000005362989
      18        0.000001751455    -0.000002096939    -0.000001055674
      19       -0.000003032980     0.000004126725    -0.000000741868
      20        0.000001792692     0.000000685707    -0.000000705514
      21        0.000000345000     0.000001650332    -0.000001272901
      22        0.000001230970    -0.000002598422     0.000001056834
      23        0.000000674957     0.000000303869    -0.000000852768
      24        0.000001919272    -0.000002282282    -0.000000575330
      25        0.000000988729     0.000001042276     0.000000297776

  **** Optimization is complete! (in 7 steps) ****
    Final optimized geometry and variables:
    Molecular point group: c1

    Geometry (in Angstrom), charge = 0, multiplicity = 1:

    H           -3.174307446442    -0.700651261097     1.211625612778
    C           -3.253467459786    -0.421827258616     0.152115442672
    C           -2.678299327278     0.922991011236    -0.193645394917
    O           -3.776990783956    -1.153650383219    -0.614565694257
    C           -1.246161964214     1.127174590225     0.313669976473
    H           -2.751689393704     1.084189050025    -1.261333226423
    H           -3.322502714316     1.661203373014     0.280870534855
    C           -0.266054958514     0.043667639324    -0.132583508229
    H           -0.901437649101     2.097983436636    -0.024451594531
    H           -1.254779623657     1.170663298623     1.399823466322
    C            1.162468498395     0.302271662149     0.338891851401
    H           -0.281084340321    -0.030266934556    -1.217025176575
    H           -0.593962579827    -0.923593679182     0.238436658573
    C            2.141241092610    -0.783953840853    -0.103046815938
    H            1.485867425246     1.268788081993    -0.034466972475
    H            1.174460527452     0.374062325561     1.424307325402
    C            3.569765031256    -0.610477482267     0.415654843256
    H            2.158638256293    -0.830733222823    -1.189410685507
    H            1.767110256077    -1.746463310005     0.234579630328
    C            4.303947759165     0.611164899134    -0.131762355197
    H            4.136779891960    -1.499997286846     0.159464402356
    H            3.553831335276    -0.564917858021     1.501469420003
    H            4.329050726497     0.596370866684    -1.216709612886
    H            3.835459464724     1.538404173352     0.175533145322
    H            5.328735835658     0.633061150918     0.220789438885

  Mulliken Charges: (a.u.)
   Center  Symbol    Alpha    Beta     Spin     Total
       1     H     0.46285  0.46285  0.00000  0.07430
       2     C     2.90366  2.90366  0.00000  0.19267
       3     C     3.09110  3.09110  0.00000 -0.18219
       4     O     4.16742  4.16742  0.00000 -0.33484
       5     C     3.11419  3.11419  0.00000 -0.22838
       6     H     0.44143  0.44143  0.00000  0.11715
       7     H     0.44219  0.44219  0.00000  0.11561
       8     C     3.09210  3.09210  0.00000 -0.18420
       9     H     0.44305  0.44305  0.00000  0.11389
      10     H     0.44945  0.44945  0.00000  0.10110
      11     C     3.09382  3.09382  0.00000 -0.18765
      12     H     0.44789  0.44789  0.00000  0.10421
      13     H     0.44864  0.44864  0.00000  0.10271
      14     C     3.09543  3.09543  0.00000 -0.19086
      15     H     0.45093  0.45093  0.00000  0.09814
      16     H     0.45434  0.45434  0.00000  0.09131
      17     C     3.09089  3.09089  0.00000 -0.18177
      18     H     0.45261  0.45261  0.00000  0.09478
      19     H     0.44826  0.44826  0.00000  0.10349
      20     C     3.15267  3.15267  0.00000 -0.30533
      21     H     0.44763  0.44763  0.00000  0.10475
      22     H     0.45477  0.45477  0.00000  0.09046
      23     H     0.45440  0.45440  0.00000  0.09120
      24     H     0.45438  0.45438  0.00000  0.09124
      25     H     0.44589  0.44589  0.00000  0.10823

   Total alpha = 36.00000, Total beta = 36.00000, Total charge =  0.00000

*** Psi4 exiting successfully. Buy a developer a beer!
