                              Psi4 1.0.54 Driver

  ==> Input File <==

--------------------------------------------------------------------------
set {
	reference rhf
	basis cc-pvtz
}

set_num_threads( 4 )
memory 2 gb

molecule MOL {
0 1

H	 -2.335435	 -1.183953	 -0.872350
C	 -2.776330	 -0.242578	 -1.227749
C	 -2.653809	 0.914422	 -0.273689
O	 -3.305092	 -0.198829	 -2.284066
C	 -1.216901	 1.136108	 0.207794
H	 -3.055569	 1.798662	 -0.751226
H	 -3.284811	 0.680037	 0.580832
C	 -0.247837	 0.040196	 -0.230469
H	 -0.872882	 2.093195	 -0.169002
H	 -1.209325	 1.218376	 1.291938
C	 1.181757	 0.280428	 0.247371
H	 -0.259600	 -0.030819	 -1.314870
H	 -0.591284	 -0.923375	 0.136958
C	 2.151032	 -0.811012	 -0.202643
H	 1.515939	 1.247397	 -0.115449
H	 1.191514	 0.341223	 1.333422
C	 3.580021	 -0.656538	 0.320835
H	 2.170545	 -0.847575	 -1.289412
H	 1.766632	 -1.772905	 0.124928
C	 4.327657	 0.562694	 -0.213579
H	 4.138806	 -1.549270	 0.057813
H	 3.561991	 -0.620783	 1.406976
H	 4.355973	 0.557257	 -1.298551
H	 3.867136	 1.491650	 0.100501
H	 5.351524	 0.571613	 0.142204

	symmetry c1
}
set optking {
	frozen_dihedral = ("
		6 3 5 8
	")
}

ee,wfn = optimize('scf', return_wfn=True)
oeprop( wfn, 'DIPOLE', 'QUADRUPOLE', 'MULLIKEN_CHARGES')
f=open( 'psi4out.xyz', 'w' )
f.write( "25  " )
f.write( str(ee) + "\n" )
f.write( MOL.save_string_xyz() )
f.close()
--------------------------------------------------------------------------

    Molecular point group: c1
  Charge       = 0
  Multiplicity = 1
  Basis Set: CC-PVTZ
  Basis Set:
  @DF-RHF Final Energy:  -387.24918523546501
    Total Energy =                       -387.2491852354652337
    Molecular point group: c1
  Basis Set: CC-PVTZ
  Basis Set:
  Basis Set: CC-PVTZ
  Basis Set:
  @DF-RHF Final Energy:  -386.29062168603991
    Total Energy =                       -386.2906216860402537
  Basis Set: CC-PVTZ
  Basis Set:
  Basis Set: CC-PVTZ
  Basis Set:
  @DF-RHF Final Energy:  -386.53600695286229
    Total Energy =                       -386.5360069528625218
  Basis Set: CC-PVTZ
  Basis Set:
  Basis Set: CC-PVTZ
  Basis Set:
  @DF-RHF Final Energy:  -386.94016699200051
    Total Energy =                       -386.9401669920005133
  Basis Set: CC-PVTZ
  Basis Set:
  @DF-RHF Final Energy:  -387.14405614895173
    Total Energy =                       -387.1440561489519041
  @DF-RHF Final Energy:  -387.23366291326585
    Total Energy =                       -387.2336629132662438
  @DF-RHF Final Energy:  -387.24884316226604
    Total Energy =                       -387.2488431622663256
  @DF-RHF Final Energy:  -387.25182688422893
    Total Energy =                       -387.2518268842286489
  @DF-RHF Final Energy:  -387.25152881434497
    Total Energy =                       -387.2515288143451926
  @DF-RHF Final Energy:  -387.25197640783028
    Total Energy =                       -387.2519764078300568
  @DF-RHF Final Energy:  -387.25236835190015
    Total Energy =                       -387.2523683519007136
  Basis Set: CC-PVTZ
  Basis Set:
  @DF-RHF Final Energy:  -387.25238245269742
    Total Energy =                       -387.2523824526973613
  Basis Set: CC-PVTZ
  Basis Set:
  Basis Set: CC-PVTZ
  Basis Set:
  @DF-RHF Final Energy:  -387.25238234414235
    Total Energy =                       -387.2523823441421200
  Basis Set: CC-PVTZ
  Basis Set:
  Basis Set: CC-PVTZ
  Basis Set:
  @DF-RHF Final Energy:  -387.25239266006048
    Total Energy =                       -387.2523926600603090
  Basis Set: CC-PVTZ
  Basis Set:
  Charge       = 0
  Multiplicity = 1
  Basis Set: CC-PVTZ
  Basis Set:

    Orbital Energies (a.u.)
    -----------------------

    Doubly Occupied:

       1A    -20.549826     2A    -11.319478     3A    -11.233343
       4A    -11.232775     5A    -11.224860     6A    -11.218901
       7A    -11.217125     8A    -11.216275     9A    -11.209065
      10A     -1.404634    11A     -1.104104    12A     -1.068429
      13A     -1.013818    14A     -0.944163    15A     -0.878215
      16A     -0.832148    17A     -0.783693    18A     -0.772412
      19A     -0.680261    20A     -0.655483    21A     -0.631233
      22A     -0.624433    23A     -0.612455    24A     -0.588664
      25A     -0.574943    26A     -0.558030    27A     -0.536577
      28A     -0.525152    29A     -0.509665    30A     -0.499305
      31A     -0.492081    32A     -0.473270    33A     -0.466297
      34A     -0.460790    35A     -0.444660    36A     -0.409201

  @DF-RHF Final Energy:  -387.25239362411969

   => Energetics <=

    Nuclear Repulsion Energy =            440.9980981955648076
    One-Electron Energy =               -1398.5694574975823343
    Two-Electron Energy =                 570.3189656778979497
    DFT Exchange-Correlation Energy =       0.0000000000000000
    Empirical Dispersion Energy =           0.0000000000000000
    PCM Polarization Energy =               0.0000000000000000
    EFP Energy =                            0.0000000000000000
    Total Energy =                       -387.2523936241195770
    Molecular point group: c1
  Basis Set: CC-PVTZ
  Basis Set:

  -Total Gradient:
     Atom            X                  Y                   Z
    ------   -----------------  -----------------  -----------------
       1       -0.000001567266    -0.000024921553     0.000019671978
       2       -0.000031464300    -0.000006939902     0.000005974585
       3       -0.001051612792     0.001367589042     0.001923658831
       4        0.000024992731     0.000032638596    -0.000036200420
       5       -0.001770440927    -0.001243883744     0.000666042543
       6        0.001430065393    -0.000869703083    -0.001786385236
       7       -0.000008481895     0.000001140594    -0.000005292022
       8        0.001425997892     0.000718444375    -0.000760415380
       9        0.000000706872     0.000012709095     0.000009177922
      10       -0.000003631578    -0.000005261562    -0.000002328246
      11       -0.000014191664    -0.000004549301    -0.000029916788
      12       -0.000013702688     0.000006997858    -0.000016480938
      13        0.000004004359    -0.000007836393     0.000003995807
      14        0.000016204217     0.000024723001     0.000007648055
      15       -0.000009121201     0.000001440089     0.000000831304
      16       -0.000001647909    -0.000001987557     0.000006009012
      17       -0.000009353617     0.000010586646     0.000007973047
      18        0.000002698194    -0.000000284110    -0.000006693707
      19        0.000004251451    -0.000002485068    -0.000003550382
      20        0.000003204308    -0.000004310403    -0.000000241008
      21       -0.000006041743     0.000002485062     0.000000283823
      22        0.000001395068     0.000005421768    -0.000001487944
      23        0.000001980024     0.000000932978    -0.000002457524
      24        0.000002524022    -0.000012971527     0.000003956474
      25        0.000003233048     0.000000025103    -0.000003773786

  **** Optimization is complete! (in 15 steps) ****
    Final optimized geometry and variables:
    Molecular point group: c1

    Geometry (in Angstrom), charge = 0, multiplicity = 1:

    H           -2.427970100896     0.365486998871    -2.053423157310
    C           -1.966845376885     1.358627260017    -2.074503168653
    C           -1.891167710601     2.080310050452    -0.753686241289
    O           -1.585052996872     1.807690251087    -3.100396262832
    C           -0.971918506094     1.418080479624     0.308229441795
    H           -1.552862462469     3.082831766194    -0.973675638747
    H           -2.907866010456     2.139830529851    -0.376538237771
    C           -0.440877083879     0.021025167463    -0.018200165208
    H           -0.119588747422     2.069905836843     0.460392090709
    H           -1.495510002950     1.384181278859     1.256303943114
    C            0.501655925695    -0.506124304604     1.060790456353
    H            0.084732913190     0.041237161795    -0.968966590975
    H           -1.265597175464    -0.676660254212    -0.136468078915
    C            1.044574403870    -1.899093429002     0.747659642287
    H            1.321730075083     0.194135303653     1.182478924736
    H           -0.022877503030    -0.532355529399     2.013271453084
    C            1.931587727160    -2.501925095193     1.838411775595
    H            1.599898968000    -1.866191390840    -0.186781097488
    H            0.205916905884    -2.568740228035     0.577564420185
    C            3.255811256936    -1.774657378786     2.058752061172
    H            2.141733567838    -3.534136983103     1.576166754969
    H            1.378085310873    -2.534501723326     2.773230308973
    H            3.827541431085    -1.719532459028     1.137918346455
    H            3.109210880412    -0.763191872245     2.417962708006
    H            3.861808545080    -2.294625966052     2.791772659698

  Mulliken Charges: (a.u.)
   Center  Symbol    Alpha    Beta     Spin     Total
       1     H     0.46093  0.46093  0.00000  0.07813
       2     C     2.90789  2.90789  0.00000  0.18422
       3     C     3.08264  3.08264  0.00000 -0.16528
       4     O     4.16753  4.16753  0.00000 -0.33506
       5     C     3.10267  3.10267  0.00000 -0.20534
       6     H     0.44138  0.44138  0.00000  0.11723
       7     H     0.44869  0.44869  0.00000  0.10261
       8     C     3.10639  3.10639  0.00000 -0.21278
       9     H     0.44594  0.44594  0.00000  0.10811
      10     H     0.44702  0.44702  0.00000  0.10596
      11     C     3.09285  3.09285  0.00000 -0.18569
      12     H     0.44416  0.44416  0.00000  0.11167
      13     H     0.45035  0.45035  0.00000  0.09930
      14     C     3.09517  3.09517  0.00000 -0.19034
      15     H     0.45063  0.45063  0.00000  0.09873
      16     H     0.45375  0.45375  0.00000  0.09251
      17     C     3.09102  3.09102  0.00000 -0.18204
      18     H     0.45213  0.45213  0.00000  0.09575
      19     H     0.44963  0.44963  0.00000  0.10073
      20     C     3.15262  3.15262  0.00000 -0.30523
      21     H     0.44777  0.44777  0.00000  0.10445
      22     H     0.45480  0.45480  0.00000  0.09040
      23     H     0.45399  0.45399  0.00000  0.09202
      24     H     0.45409  0.45409  0.00000  0.09181
      25     H     0.44594  0.44594  0.00000  0.10812

   Total alpha = 36.00000, Total beta = 36.00000, Total charge = -0.00000

*** Psi4 exiting successfully. Buy a developer a beer!
