                              Psi4 1.0.54 Driver

  ==> Input File <==

--------------------------------------------------------------------------
set {
	reference rhf
	basis cc-pvtz
}

set_num_threads( 4 )
memory 2 gb

molecule MOL {
0 1

H	 -2.698799	 -0.000846	 0.036018
C	 -1.694291	 -0.000483	 0.434279
O	 -0.828718	 -0.000608	 -0.655022
H	 -1.576855	 0.881100	 1.056504
H	 -1.576401	 -0.881658	 1.057001
C	 0.557892	 0.000078	 -0.420099
C	 1.192032	 1.365380	 -0.661113
C	 0.920934	 -0.574034	 0.944762
H	 0.937047	 -0.677743	 -1.174698
H	 0.883583	 1.760054	 -1.621399
H	 2.272026	 1.273948	 -0.661808
H	 0.925820	 2.082328	 0.106807
H	 0.424551	 -1.524365	 1.098118
H	 1.991095	 -0.735875	 1.002508
H	 0.647430	 0.091399	 1.755278

	symmetry c1
}
set optking {
	frozen_dihedral = ("
		9 6 3 2
	")
}

ee,wfn = optimize('scf', return_wfn=True)
oeprop( wfn, 'DIPOLE', 'QUADRUPOLE', 'MULLIKEN_CHARGES')
f=open( 'psi4out.xyz', 'w' )
f.write( "15  " )
f.write( str(ee) + "\n" )
f.write( MOL.save_string_xyz() )
f.close()
--------------------------------------------------------------------------

    Molecular point group: c1
  Charge       = 0
  Multiplicity = 1
  Basis Set: CC-PVTZ
  Basis Set:
  @DF-RHF Final Energy:  -232.22121620661673
    Total Energy =                       -232.2212162066167025
    Molecular point group: c1
  Basis Set: CC-PVTZ
  Basis Set:
  Basis Set: CC-PVTZ
  Basis Set:
  @DF-RHF Final Energy:  -232.22135925388005
    Total Energy =                       -232.2213592538799389
  Basis Set: CC-PVTZ
  Basis Set:
  Basis Set: CC-PVTZ
  Basis Set:
  @DF-RHF Final Energy:  -232.22302205150243
    Total Energy =                       -232.2230220515024826
  Basis Set: CC-PVTZ
  Basis Set:
  Basis Set: CC-PVTZ
  Basis Set:
  @DF-RHF Final Energy:  -232.22312130247695
    Total Energy =                       -232.2231213024770113
  Basis Set: CC-PVTZ
  Basis Set:
  Basis Set: CC-PVTZ
  Basis Set:
  @DF-RHF Final Energy:  -232.22313054155055
    Total Energy =                       -232.2231305415507450
  Basis Set: CC-PVTZ
  Basis Set:
  Charge       = 0
  Multiplicity = 1
  Basis Set: CC-PVTZ
  Basis Set:

    Orbital Energies (a.u.)
    -----------------------

    Doubly Occupied:

       1A    -20.539468     2A    -11.272976     3A    -11.259583
       4A    -11.212685     5A    -11.204926     6A     -1.370515
       7A     -1.052882     8A     -0.947282     9A     -0.922116
      10A     -0.781518    11A     -0.676263    12A     -0.644055
      13A     -0.633416    14A     -0.580081    15A     -0.555530
      16A     -0.547567    17A     -0.535652    18A     -0.506674
      19A     -0.493579    20A     -0.446579    21A     -0.403452

  @DF-RHF Final Energy:  -232.22313131072616

   => Energetics <=

    Nuclear Repulsion Energy =            198.5657836484837730
    One-Electron Energy =                -708.4042352305093573
    Two-Electron Energy =                 277.6153202712993107
    DFT Exchange-Correlation Energy =       0.0000000000000000
    Empirical Dispersion Energy =           0.0000000000000000
    PCM Polarization Energy =               0.0000000000000000
    EFP Energy =                            0.0000000000000000
    Total Energy =                       -232.2231313107262736
    Molecular point group: c1
  Basis Set: CC-PVTZ
  Basis Set:

  -Total Gradient:
     Atom            X                  Y                   Z
    ------   -----------------  -----------------  -----------------
       1       -0.000003332572    -0.000002550576    -0.000001688468
       2       -0.000284827821    -0.003074580686    -0.000377546883
       3        0.000323966520     0.004034150295     0.000955957483
       4       -0.000004472842     0.000000970811     0.000006953631
       5        0.000001708020    -0.000008112441     0.000001405931
       6        0.000698268920     0.001976055245    -0.002481231406
       7        0.000040173674    -0.000003342664     0.000030290223
       8        0.000014142330     0.000009378210     0.000030976207
       9       -0.000788948595    -0.002939305621     0.001838341338
      10        0.000000245157    -0.000006519300    -0.000016928299
      11       -0.000001064504     0.000005684086     0.000009528577
      12        0.000004396854     0.000011035372     0.000002233194
      13       -0.000002539112    -0.000001670534    -0.000012324829
      14        0.000008365263     0.000001932897     0.000006705404
      15       -0.000006081291    -0.000003125095     0.000007327897

  **** Optimization is complete! (in 6 steps) ****
    Final optimized geometry and variables:
    Molecular point group: c1

    Geometry (in Angstrom), charge = 0, multiplicity = 1:

    H           -2.709983940976     0.151018799919    -0.148610493554
    C           -1.765539953232    -0.058788842015     0.333096676333
    O           -0.793627216389    -0.015008875569    -0.660038055245
    H           -1.607582806735     0.689985566786     1.105087325343
    H           -1.833965929458    -1.032629451907     0.805608990920
    C            0.570895035751    -0.178075110445    -0.338700316307
    C            1.256372713800     1.179842141394    -0.354712337709
    C            0.839043037889    -0.938213619452     0.956207158225
    H            0.969655277134    -0.791412966443    -1.139061633084
    H            1.071150687961     1.678602877850    -1.297178363695
    H            2.327875505118     1.075435253502    -0.224018541442
    H            0.878425223953     1.811752909159     0.442375598893
    H            0.364378105414    -1.911424823160     0.949297185438
    H            1.906750307770    -1.093121578356     1.054146105060
    H            0.503413408821    -0.396735752964     1.832462539834

  Mulliken Charges: (a.u.)
   Center  Symbol    Alpha    Beta     Spin     Total
       1     H     0.44209  0.44209  0.00000  0.11582
       2     C     3.03786  3.03786  0.00000 -0.07572
       3     O     4.18863  4.18863  0.00000 -0.37726
       4     H     0.47134  0.47134  0.00000  0.05731
       5     H     0.46798  0.46798  0.00000  0.06403
       6     C     2.92888  2.92888  0.00000  0.14224
       7     C     3.14145  3.14145  0.00000 -0.28291
       8     C     3.17102  3.17102  0.00000 -0.34204
       9     H     0.45038  0.45038  0.00000  0.09925
      10     H     0.44599  0.44599  0.00000  0.10803
      11     H     0.45701  0.45701  0.00000  0.08597
      12     H     0.45742  0.45742  0.00000  0.08516
      13     H     0.44456  0.44456  0.00000  0.11088
      14     H     0.44440  0.44440  0.00000  0.11120
      15     H     0.45099  0.45099  0.00000  0.09802

   Total alpha = 21.00000, Total beta = 21.00000, Total charge =  0.00000

*** Psi4 exiting successfully. Buy a developer a beer!
