                              Psi4 1.0.54 Driver

  ==> Input File <==

--------------------------------------------------------------------------
set {
	reference rhf
	basis cc-pvtz
}

set_num_threads( 4 )
memory 2 gb

molecule MOL {
0 1

H	 -3.144994	 -1.202467	 -0.018751
O	 -2.321472	 -0.864941	 -0.318626
C	 -2.021813	 0.336996	 0.342658
C	 -0.669613	 0.837286	 -0.127252
H	 -2.780861	 1.084746	 0.127159
H	 -2.006390	 0.184138	 1.420053
C	 0.490865	 -0.082543	 0.241244
H	 -0.708709	 0.967192	 -1.204587
H	 -0.507562	 1.822272	 0.303070
C	 0.613854	 -0.316008	 1.744233
H	 1.414578	 0.340143	 -0.137104
H	 0.361354	 -1.039604	 -0.260137
C	 1.768661	 -1.241393	 2.112836
H	 0.745168	 0.639292	 2.245094
H	 -0.315880	 -0.732694	 2.123253
H	 2.716940	 -0.834474	 1.778022
H	 1.830616	 -1.385519	 3.185540
H	 1.649576	 -2.217725	 1.654535

	symmetry c1
}
set optking {
	frozen_dihedral = ("
		10 7 4 8
	")
}

ee,wfn = optimize('scf', return_wfn=True)
oeprop( wfn, 'DIPOLE', 'QUADRUPOLE', 'MULLIKEN_CHARGES')
f=open( 'psi4out.xyz', 'w' )
f.write( "18  " )
f.write( str(ee) + "\n" )
f.write( MOL.save_string_xyz() )
f.close()
--------------------------------------------------------------------------

    Molecular point group: c1
  Charge       = 0
  Multiplicity = 1
  Basis Set: CC-PVTZ
  Basis Set:
  @DF-RHF Final Energy:  -271.28410670208814
    Total Energy =                       -271.2841067020882520
    Molecular point group: c1
  Basis Set: CC-PVTZ
  Basis Set:
  Basis Set: CC-PVTZ
  Basis Set:
  @DF-RHF Final Energy:  -270.25827241060722
    Total Energy =                       -270.2582724106072760
  Basis Set: CC-PVTZ
  Basis Set:
  Basis Set: CC-PVTZ
  Basis Set:
  @DF-RHF Final Energy:  -270.45148570613208
    Total Energy =                       -270.4514857061321891
  Basis Set: CC-PVTZ
  Basis Set:
  Basis Set: CC-PVTZ
  Basis Set:
  @DF-RHF Final Energy:  -270.80651394739220
    Total Energy =                       -270.8065139473924319
  Basis Set: CC-PVTZ
  Basis Set:
  @DF-RHF Final Energy:  -271.08594783076813
    Total Energy =                       -271.0859478307679638
  @DF-RHF Final Energy:  -271.23831490867377
    Total Energy =                       -271.2383149086737717
  @DF-RHF Final Energy:  -271.28031117945909
    Total Energy =                       -271.2803111794588631
  @DF-RHF Final Energy:  -271.28505550157956
    Total Energy =                       -271.2850555015799046
  Basis Set: CC-PVTZ
  Basis Set:
  @DF-RHF Final Energy:  -271.28522487161405
    Total Energy =                       -271.2852248716139911
  Basis Set: CC-PVTZ
  Basis Set:
  Basis Set: CC-PVTZ
  Basis Set:
  @DF-RHF Final Energy:  -271.28526646616649
    Total Energy =                       -271.2852664661664903
  Basis Set: CC-PVTZ
  Basis Set:
  Basis Set: CC-PVTZ
  Basis Set:
  @DF-RHF Final Energy:  -271.28526811347217
    Total Energy =                       -271.2852681134721706
  Basis Set: CC-PVTZ
  Basis Set:
  Charge       = 0
  Multiplicity = 1
  Basis Set: CC-PVTZ
  Basis Set:

    Orbital Energies (a.u.)
    -----------------------

    Doubly Occupied:

       1A    -20.546735     2A    -11.265215     3A    -11.210989
       4A    -11.208593     5A    -11.205019     6A    -11.202756
       7A     -1.364401     8A     -1.075721     9A     -1.008119
      10A     -0.914516    11A     -0.831974    12A     -0.770163
      13A     -0.707194    14A     -0.647207    15A     -0.626522
      16A     -0.586151    17A     -0.564528    18A     -0.553890
      19A     -0.538962    20A     -0.500900    21A     -0.489370
      22A     -0.465012    23A     -0.457002    24A     -0.449033
      25A     -0.431361

  @DF-RHF Final Energy:  -271.28526843635649

   => Energetics <=

    Nuclear Repulsion Energy =            254.0971441472657375
    One-Electron Energy =                -871.5221571998447416
    Two-Electron Energy =                 346.1397446162226288
    DFT Exchange-Correlation Energy =       0.0000000000000000
    Empirical Dispersion Energy =           0.0000000000000000
    PCM Polarization Energy =               0.0000000000000000
    EFP Energy =                            0.0000000000000000
    Total Energy =                       -271.2852684363564322
    Molecular point group: c1
  Basis Set: CC-PVTZ
  Basis Set:

  -Total Gradient:
     Atom            X                  Y                   Z
    ------   -----------------  -----------------  -----------------
       1       -0.000070775440    -0.000033964436    -0.000011721723
       2        0.000061664306     0.000000081972     0.000006569194
       3       -0.000055164491    -0.000008843498     0.000004287955
       4        0.000536340291     0.000751963272    -0.000003383903
       5        0.000001728125     0.000004416262    -0.000004080324
       6       -0.000004630579     0.000007439896    -0.000008545703
       7        0.000411535121     0.000688351096    -0.000035299307
       8       -0.000527806240    -0.000827010302    -0.000008504008
       9        0.000006430344     0.000035725169    -0.000004356431
      10       -0.000387850659    -0.000604526856     0.000039048878
      11        0.000032265652     0.000009808685     0.000009458728
      12        0.000004316291    -0.000018753635     0.000004825219
      13       -0.000034313382     0.000010007389     0.000003310171
      14        0.000002607390    -0.000007713271     0.000001265440
      15       -0.000007442568    -0.000009547388     0.000001876473
      16        0.000028444833     0.000002455041     0.000001876158
      17       -0.000003622587     0.000006401819     0.000005618675
      18        0.000006273595    -0.000006291215    -0.000002245497

  **** Optimization is complete! (in 12 steps) ****
    Final optimized geometry and variables:
    Molecular point group: c1

    Geometry (in Angstrom), charge = 0, multiplicity = 1:

    H           -1.958044163975    -1.712307290175    -1.497153079309
    O           -1.086665914401    -1.397495138047    -1.343378941313
    C           -1.047449148473     0.000129482423    -1.474503042687
    C            0.370640417102     0.481352632191    -1.223533979319
    H           -1.348838921100     0.294822645089    -2.476591371294
    H           -1.738796338975     0.465921635661    -0.778061691051
    C            0.952385962321     0.118991406039     0.144260634466
    H            1.004650852990     0.056847276781    -1.995211630727
    H            0.384792911149     1.559992979142    -1.357745068928
    C            0.167972070125     0.647391863913     1.343303306563
    H            1.967104186927     0.505284408488     0.189620733885
    H            1.030344507043    -0.959686075659     0.219960690423
    C            0.864375377289     0.363180881162     2.670460001000
    H            0.019259447348     1.719687975763     1.238405348820
    H           -0.819648678406     0.199405134370     1.361987262982
    H            1.841744084143     0.832788878769     2.708892998865
    H            0.284820476255     0.736727591658     3.507115016118
    H            1.005553195710    -0.702675069382     2.815365317781

  Mulliken Charges: (a.u.)
   Center  Symbol    Alpha    Beta     Spin     Total
       1     H     0.39548  0.39548  0.00000  0.20904
       2     O     4.20008  4.20008  0.00000 -0.40015
       3     C     2.97782  2.97782  0.00000  0.04437
       4     C     3.09974  3.09974  0.00000 -0.19948
       5     H     0.46144  0.46144  0.00000  0.07713
       6     H     0.47094  0.47094  0.00000  0.05812
       7     C     3.08886  3.08886  0.00000 -0.17773
       8     H     0.44791  0.44791  0.00000  0.10418
       9     H     0.45338  0.45338  0.00000  0.09323
      10     C     3.08758  3.08758  0.00000 -0.17516
      11     H     0.45109  0.45109  0.00000  0.09781
      12     H     0.44690  0.44690  0.00000  0.10621
      13     C     3.15013  3.15013  0.00000 -0.30026
      14     H     0.45681  0.45681  0.00000  0.08638
      15     H     0.45290  0.45290  0.00000  0.09419
      16     H     0.45538  0.45538  0.00000  0.08924
      17     H     0.44972  0.44972  0.00000  0.10055
      18     H     0.45384  0.45384  0.00000  0.09231

   Total alpha = 25.00000, Total beta = 25.00000, Total charge = -0.00000

*** Psi4 exiting successfully. Buy a developer a beer!
