                              Psi4 1.0.54 Driver

  ==> Input File <==

--------------------------------------------------------------------------
set {
	reference rhf
	basis cc-pvtz
}

set_num_threads( 4 )
memory 2 gb

molecule MOL {
0 1

H	 3.273419	 0.176595	 -0.102789
N	 2.433987	 -0.362316	 -0.080024
C	 1.263552	 0.494993	 0.021953
H	 2.497638	 -0.973615	 0.707122
C	 -0.016533	 -0.325589	 -0.026925
H	 1.280915	 1.180773	 -0.818522
H	 1.263064	 1.106893	 0.925038
C	 -1.280353	 0.525521	 0.047747
H	 -0.016686	 -0.912532	 -0.939714
H	 -0.014099	 -1.037598	 0.796369
C	 -2.421798	 -0.164823	 0.787016
H	 -1.604566	 0.775568	 -0.958895
H	 -1.054289	 1.468869	 0.537506
H	 -2.694666	 -1.096025	 0.302110
H	 -3.305155	 0.462519	 0.819789
H	 -2.142295	 -0.396031	 1.809563

	symmetry c1
}
set optking {
	frozen_dihedral = ("
		12 8 5 9
	")
}

ee,wfn = optimize('scf', return_wfn=True)
oeprop( wfn, 'DIPOLE', 'QUADRUPOLE', 'MULLIKEN_CHARGES')
f=open( 'psi4out.xyz', 'w' )
f.write( "16  " )
f.write( str(ee) + "\n" )
f.write( MOL.save_string_xyz() )
f.close()
--------------------------------------------------------------------------

    Molecular point group: c1
  Charge       = 0
  Multiplicity = 1
  Basis Set: CC-PVTZ
  Basis Set:
  @DF-RHF Final Energy:  -212.39711894377274
    Total Energy =                       -212.3971189437725684
    Molecular point group: c1
  Basis Set: CC-PVTZ
  Basis Set:
  Basis Set: CC-PVTZ
  Basis Set:
  @DF-RHF Final Energy:  -212.39738382162435
    Total Energy =                       -212.3973838216243166
  Basis Set: CC-PVTZ
  Basis Set:
  Basis Set: CC-PVTZ
  Basis Set:
  @DF-RHF Final Energy:  -212.39744964411432
    Total Energy =                       -212.3974496441142037
  Basis Set: CC-PVTZ
  Basis Set:
  Basis Set: CC-PVTZ
  Basis Set:
  @DF-RHF Final Energy:  -212.39745096242711
    Total Energy =                       -212.3974509624271150
  Basis Set: CC-PVTZ
  Basis Set:
  Charge       = 0
  Multiplicity = 1
  Basis Set: CC-PVTZ
  Basis Set:

    Orbital Energies (a.u.)
    -----------------------

    Doubly Occupied:

       1A    -15.526480     2A    -11.238164     3A    -11.212935
       4A    -11.207826     5A    -11.206118     6A     -1.178345
       7A     -1.059394     8A     -0.959702     9A     -0.843873
      10A     -0.792403    11A     -0.663545    12A     -0.641297
      13A     -0.598563    14A     -0.586831    15A     -0.565400
      16A     -0.517882    17A     -0.508066    18A     -0.469262
      19A     -0.463542    20A     -0.460203    21A     -0.384133

  @DF-RHF Final Energy:  -212.39745125249343

   => Energetics <=

    Nuclear Repulsion Energy =            186.5930720614357767
    One-Electron Energy =                -655.8131196486373256
    Two-Electron Energy =                 256.8225963347081233
    DFT Exchange-Correlation Energy =       0.0000000000000000
    Empirical Dispersion Energy =           0.0000000000000000
    PCM Polarization Energy =               0.0000000000000000
    EFP Energy =                            0.0000000000000000
    Total Energy =                       -212.3974512524933971
    Molecular point group: c1
  Basis Set: CC-PVTZ
  Basis Set:

  -Total Gradient:
     Atom            X                  Y                   Z
    ------   -----------------  -----------------  -----------------
       1        0.000010770307     0.000002050513    -0.000004331734
       2        0.000023918490    -0.000019876064    -0.000014604137
       3       -0.000024470173     0.000006603625     0.000028838839
       4        0.000001411073     0.000001935510     0.000004209828
       5       -0.002965480875    -0.004457098095     0.002378088786
       6       -0.000000464222    -0.000004092482     0.000003002969
       7        0.000002810805     0.000006406621     0.000001595697
       8        0.003274978318     0.004801958888    -0.000357470456
       9        0.001953398863     0.002971412859    -0.001932563931
      10        0.000000733503     0.000015980835    -0.000006642998
      11       -0.000002970428     0.000012239129     0.000004049933
      12       -0.002278588119    -0.003316879687    -0.000100425531
      13        0.000003359651    -0.000018884446    -0.000001584917
      14        0.000003259168     0.000006255815     0.000004232876
      15        0.000001032897    -0.000006634105     0.000005150000
      16       -0.000003699261    -0.000001378918    -0.000011545225

  **** Optimization is complete! (in 5 steps) ****
    Final optimized geometry and variables:
    Molecular point group: c1

    Geometry (in Angstrom), charge = 0, multiplicity = 1:

    H            3.247465506928     0.154822413547    -0.331243258600
    N            2.410758067581    -0.387340739682    -0.290490631599
    C            1.241844140082     0.462439184493    -0.131974494937
    H            2.503239310189    -1.014016630039     0.481682171183
    C           -0.038600789873    -0.362988020689    -0.140847115122
    H            1.222251339398     1.159464751740    -0.963614614634
    H            1.272934913044     1.062996014894     0.778213177358
    C           -1.303210901803     0.503577928404    -0.093243874929
    H           -0.028072430804    -0.959726468841    -1.045728859601
    H           -0.022446130093    -1.049112649135     0.701948485345
    C           -2.475247892588    -0.187932253857     0.599523077871
    H           -1.608696302268     0.744298411474    -1.106361367783
    H           -1.095471609167     1.442238509672     0.410864246582
    H           -2.713094036354    -1.129544936510     0.115484148414
    H           -3.366240941527     0.429343438877     0.577125759945
    H           -2.245137505052    -0.401401886737     1.638069133529

  Mulliken Charges: (a.u.)
   Center  Symbol    Alpha    Beta     Spin     Total
       1     H     0.43013  0.43013  0.00000  0.13975
       2     N     3.68995  3.68995  0.00000 -0.37989
       3     C     3.02424  3.02424  0.00000 -0.04848
       4     H     0.43095  0.43095  0.00000  0.13811
       5     C     3.08276  3.08276  0.00000 -0.16553
       6     H     0.45684  0.45684  0.00000  0.08631
       7     H     0.46936  0.46936  0.00000  0.06128
       8     C     3.08984  3.08984  0.00000 -0.17968
       9     H     0.44830  0.44830  0.00000  0.10340
      10     H     0.46042  0.46042  0.00000  0.07915
      11     C     3.14857  3.14857  0.00000 -0.29714
      12     H     0.45210  0.45210  0.00000  0.09579
      13     H     0.45667  0.45667  0.00000  0.08667
      14     H     0.45380  0.45380  0.00000  0.09239
      15     H     0.44956  0.44956  0.00000  0.10087
      16     H     0.45650  0.45650  0.00000  0.08699

   Total alpha = 21.00000, Total beta = 21.00000, Total charge = -0.00000

*** Psi4 exiting successfully. Buy a developer a beer!
