  ==> Input File <==

--------------------------------------------------------------------------
set {
	reference rhf
	basis 6-31G*
}

set_num_threads( 4 )
memory 2 gb

molecule MOL {
0 1

O	 3.622435	 0.107698	 0.901284
C	 2.843464	 0.164689	 -0.000222
C	 1.546494	 -0.624492	 -0.000609
C	 3.101837	 1.035984	 -1.212346
C	 0.291004	 0.242674	 0.000989
H	 1.557904	 -1.283758	 -0.867573
H	 1.558622	 -1.285963	 0.864672
C	 -0.994322	 -0.586602	 0.000262
H	 0.309117	 0.896430	 -0.865270
H	 0.309661	 0.894078	 0.869017
C	 -2.259874	 0.272531	 0.000494
H	 -1.004862	 -1.240012	 -0.870939
H	 -1.005220	 -1.241071	 0.870675
C	 -3.549786	 -0.549746	 -0.000374
H	 -2.250389	 0.926680	 -0.869574
H	 -2.250838	 0.925513	 0.871430
C	 -4.809590	 0.315458	 -0.000369
H	 -3.560515	 -1.202009	 -0.871156
H	 -3.561123	 -1.202955	 0.869711
H	 -4.844746	 0.956611	 -0.876632
H	 -5.706986	 -0.295590	 -0.001609
H	 -4.845960	 0.954827	 0.877144
H	 2.306660	 1.766278	 -1.330595
H	 4.047644	 1.547324	 -1.099145
H	 3.121856	 0.432499	 -2.115142

	symmetry c1
}
set optking {
	frozen_dihedral = ("
		1 2 3 6
	")
}

ee = optimize('scf')
oeprop('DIPOLE', 'QUADRUPOLE', 'MULLIKEN_CHARGES')
f=open( 'psi4out.xyz', 'w' )
f.write( "25  " )
f.write( str(ee) + "\n" )
f.write( MOL.save_string_xyz() )
f.close()
--------------------------------------------------------------------------

    Molecular point group: c1
  Charge       = 0
  Multiplicity = 1
  Basis Set: 6-31G*
  Basis Set:
  @DF-RHF Final Energy:  -387.13327320718304
    Total Energy =                       -387.1332732071830378
    Molecular point group: c1
  Basis Set: 6-31G*
  Basis Set:
  Basis Set: 6-31G*
  Basis Set:
  @DF-RHF Final Energy:  -387.13236870844042
    Total Energy =                       -387.1323687084404810
  Basis Set: 6-31G*
  Basis Set:
  Basis Set: 6-31G*
  Basis Set:
  @DF-RHF Final Energy:  -387.13335665400587
    Total Energy =                       -387.1333566540064339
  Basis Set: 6-31G*
  Basis Set:
  Basis Set: 6-31G*
  Basis Set:
  @DF-RHF Final Energy:  -387.13399527983665
    Total Energy =                       -387.1339952798365402
  Basis Set: 6-31G*
  Basis Set:
  @DF-RHF Final Energy:  -387.13403421472964
    Total Energy =                       -387.1340342147295814
  Basis Set: 6-31G*
  Basis Set:
  @DF-RHF Final Energy:  -387.13406626845017
    Total Energy =                       -387.1340662684507379
  Basis Set: 6-31G*
  Basis Set:
  Basis Set: 6-31G*
  Basis Set:
  @DF-RHF Final Energy:  -387.13409058398003
    Total Energy =                       -387.1340905839803099
  Basis Set: 6-31G*
  Basis Set:
  Basis Set: 6-31G*
  Basis Set:
  @DF-RHF Final Energy:  -387.13410154866216
    Total Energy =                       -387.1341015486624428
  Basis Set: 6-31G*
  Basis Set:
  Charge       = 0
  Multiplicity = 1
  Basis Set: 6-31G*
  Basis Set:

    Orbital Energies (a.u.)
    -----------------------

    Doubly Occupied:

       1A    -20.547628     2A    -11.324094     3A    -11.232825
       4A    -11.229390     5A    -11.227177     6A    -11.224095
       7A    -11.220355     8A    -11.219700     9A    -11.212270
      10A     -1.392834    11A     -1.101321    12A     -1.060956
      13A     -1.011061    14A     -0.970775    15A     -0.896984
      16A     -0.820839    17A     -0.797293    18A     -0.732205
      19A     -0.668923    20A     -0.647049    21A     -0.638243
      22A     -0.614704    23A     -0.603831    24A     -0.588467
      25A     -0.565223    26A     -0.559676    27A     -0.544752
      28A     -0.536145    29A     -0.511693    30A     -0.500893
      31A     -0.486610    32A     -0.481321    33A     -0.469383
      34A     -0.468699    35A     -0.456064    36A     -0.395819

  @DF-RHF Final Energy:  -387.13410206285556

   => Energetics <=

    Nuclear Repulsion Energy =            438.9349918862582740
    One-Electron Energy =               -1394.2195927520613168
    Two-Electron Energy =                 568.1504988029473679
    DFT Exchange-Correlation Energy =       0.0000000000000000
    Empirical Dispersion Energy =           0.0000000000000000
    PCM Polarization Energy =               0.0000000000000000
    EFP Energy =                            0.0000000000000000
    Total Energy =                       -387.1341020628556180
    Molecular point group: c1
  Basis Set: 6-31G*
  Basis Set:

  -Total Gradient:
     Atom            X                  Y                   Z
    ------   -----------------  -----------------  -----------------
       1        0.000023725319     0.000018625009     0.000035964664
       2        0.000039822994    -0.000034829240    -0.000076405563
       3        0.000013539223     0.000022494306    -0.000032570183
       4        0.000026157333    -0.000026751691     0.000041174251
       5       -0.000014605442    -0.000003844348    -0.000057561636
       6       -0.000005738765    -0.000004582743     0.000021833569
       7        0.000011229741     0.000008541758    -0.000013455265
       8        0.000002187198     0.000015495257     0.000028002061
       9        0.000031532261     0.000022452404    -0.000007363600
      10       -0.000021649154    -0.000026212160    -0.000011688931
      11       -0.000016970250    -0.000011183202     0.000036345626
      12       -0.000003919148    -0.000007673536     0.000018483469
      13        0.000006367625     0.000013299032     0.000009407092
      14       -0.000013160717     0.000007881654    -0.000039229248
      15        0.000011010376     0.000008048407     0.000020363609
      16       -0.000009567622    -0.000008173803     0.000021094291
      17       -0.000004435415    -0.000006339773    -0.000014544744
      18       -0.000000981938    -0.000016954859    -0.000001100064
      19        0.000001763679     0.000018143028    -0.000002060070
      20       -0.000004562518     0.000000167727    -0.000002031311
      21       -0.000002077424     0.000001469220     0.000000206865
      22        0.000004714828    -0.000000075903    -0.000000397429
      23       -0.000038306151     0.000023217588    -0.000008404046
      24       -0.000007466361    -0.000014500865     0.000010301549
      25       -0.000028609687     0.000001286730     0.000023635042

  **** Optimization is complete! (in 9 steps) ****
    Final optimized geometry and variables:
    Molecular point group: c1

    Geometry (in Angstrom), charge = 0, multiplicity = 1:

    O            3.633705516788     0.015512788093     0.951950049614
    C            2.873078512197     0.106616826408     0.036814626756
    C            1.579356359149    -0.686216409136     0.005664649092
    C            3.165368493002     1.028072053888    -1.130473535722
    C            0.320121782707     0.192793141582    -0.019141943931
    H            1.588422073846    -1.326647100065    -0.874566727564
    H            1.576463718900    -1.324967028182     0.880509998693
    C           -0.966166526529    -0.633254325924     0.040760070599
    H            0.310468489316     0.803418690185    -0.918428606852
    H            0.346492585841     0.880127925827     0.823582383565
    C           -2.232218905460     0.224759456148     0.015909024320
    H           -0.984996657178    -1.328892103326    -0.796385385382
    H           -0.959500688099    -1.241037074774     0.943110165925
    C           -3.520381583978    -0.598749517803     0.068993850057
    H           -2.235352542688     0.837370740601    -0.884228580733
    H           -2.214382346289     0.917330819765     0.855644697605
    C           -4.781607074918     0.263810299127     0.040863508694
    H           -3.538989275537    -1.292469906071    -0.768875253000
    H           -3.520421952391    -1.208536357074     0.969822696183
    H           -4.828673786886     0.860465226652    -0.865786365996
    H           -5.677335413236    -0.348117228659     0.080565905242
    H           -4.809212908413     0.945657016129     0.886088563424
    H            2.564402971403     1.929087128868    -1.046361647953
    H            4.209954253262     1.306791715097    -1.114439491316
    H            2.920587280205     0.560720867786    -2.078711299262

  Mulliken Charges: (a.u.)
   Center  Symbol    Alpha    Beta     Spin     Total
       1     O     4.26072  4.26072  0.00000 -0.52145
       2     C     2.73404  2.73404  0.00000  0.53193
       3     C     3.20450  3.20450  0.00000 -0.40900
       4     C     3.29008  3.29008  0.00000 -0.58015
       5     C     3.16502  3.16502  0.00000 -0.33005
       6     H     0.41310  0.41310  0.00000  0.17380
       7     H     0.39938  0.39938  0.00000  0.20124
       8     C     3.15193  3.15193  0.00000 -0.30386
       9     H     0.41891  0.41891  0.00000  0.16218
      10     H     0.41354  0.41354  0.00000  0.17292
      11     C     3.15154  3.15154  0.00000 -0.30307
      12     H     0.42229  0.42229  0.00000  0.15543
      13     H     0.41908  0.41908  0.00000  0.16185
      14     C     3.15200  3.15200  0.00000 -0.30399
      15     H     0.42386  0.42386  0.00000  0.15227
      16     H     0.42215  0.42215  0.00000  0.15569
      17     C     3.23960  3.23960  0.00000 -0.47920
      18     H     0.42273  0.42273  0.00000  0.15455
      19     H     0.42183  0.42183  0.00000  0.15634
      20     H     0.42168  0.42168  0.00000  0.15663
      21     H     0.41840  0.41840  0.00000  0.16321
      22     H     0.42108  0.42108  0.00000  0.15784
      23     H     0.40413  0.40413  0.00000  0.19174
      24     H     0.39622  0.39622  0.00000  0.20757
      25     H     0.41221  0.41221  0.00000  0.17558

   Total alpha = 36.00000, Total beta = 36.00000, Total charge =  0.00000
