  ==> Input File <==

--------------------------------------------------------------------------
set {
	reference rhf
	basis cc-pvtz
}

set_num_threads( 4 )
memory 2 gb

molecule MOL {
0 1

H	 0.967898	 0.873609	 2.040483
C	 0.025621	 0.962157	 1.519921
O	 -0.000000	 0.000000	 0.518769
H	 -0.783306	 0.817021	 2.232962
H	 -0.054607	 1.966627	 1.109483
C	 -1.165153	 0.000000	 -0.236961
H	 -1.229451	 0.882440	 -0.870223
H	 -2.002557	 0.000000	 0.445289
H	 -1.229451	 -0.882440	 -0.870223

	symmetry c1
}
set optking {
	frozen_dihedral = ("
		2 3 6 7
	")
}

ee = optimize('scf')
oeprop('DIPOLE', 'QUADRUPOLE', 'MULLIKEN_CHARGES')
f=open( 'psi4out.xyz', 'w' )
f.write( "9  " )
f.write( str(ee) + "\n" )
f.write( MOL.save_string_xyz() )
f.close()
--------------------------------------------------------------------------

    Molecular point group: c1
  Charge       = 0
  Multiplicity = 1
  Basis Set: CC-PVTZ
  Basis Set:
  @DF-RHF Final Energy:  -154.12588742023837
    Total Energy =                       -154.1258874202384561
    Molecular point group: c1
  Basis Set: CC-PVTZ
  Basis Set:
  Basis Set: CC-PVTZ
  Basis Set:
  @DF-RHF Final Energy:  -154.12676654486691
    Total Energy =                       -154.1267665448667969
  Basis Set: CC-PVTZ
  Basis Set:
  Basis Set: CC-PVTZ
  Basis Set:
  @DF-RHF Final Energy:  -154.12698077181267
    Total Energy =                       -154.1269807718127254
  Basis Set: CC-PVTZ
  Basis Set:
  Charge       = 0
  Multiplicity = 1
  Basis Set: CC-PVTZ
  Basis Set:

    Orbital Energies (a.u.)
    -----------------------

    Doubly Occupied:

       1A    -20.550241     2A    -11.263239     3A    -11.263142
       4A     -1.382655     5A     -0.975933     6A     -0.872635
       7A     -0.664154     8A     -0.655617     9A     -0.646917
      10A     -0.552390    11A     -0.529337    12A     -0.476813
      13A     -0.420269

  @DF-RHF Final Energy:  -154.12698189495416

   => Energetics <=

    Nuclear Repulsion Energy =             84.8465882825853726
    One-Electron Energy =                -377.4404559208691126
    Two-Electron Energy =                 138.4668857433295841
    DFT Exchange-Correlation Energy =       0.0000000000000000
    Empirical Dispersion Energy =           0.0000000000000000
    PCM Polarization Energy =               0.0000000000000000
    EFP Energy =                            0.0000000000000000
    Total Energy =                       -154.1269818949541843
    Molecular point group: c1
  Basis Set: CC-PVTZ
  Basis Set:

  -Total Gradient:
     Atom            X                  Y                   Z
    ------   -----------------  -----------------  -----------------
       1       -0.000004833745    -0.000071145291    -0.000061063034
       2       -0.000592177256    -0.000611346426     0.000599760631
       3        0.000832966939     0.000735335859    -0.001290583115
       4        0.000004791759    -0.000022632377     0.000009501223
       5        0.000017140461     0.000025935453     0.000023398888
       6       -0.001017115943     0.000620628181     0.001624652109
       7        0.000691760203    -0.000668759182    -0.000949822115
       8        0.000013169443     0.000002098950     0.000026745374
       9        0.000054298138    -0.000010115168     0.000017410040

  **** Optimization is complete! (in 4 steps) ****
    Final optimized geometry and variables:
    Molecular point group: c1

    Geometry (in Angstrom), charge = 0, multiplicity = 1:

    H            1.378499283421     0.536020971930     1.422024276664
    C            0.431310517031     0.631669415621     0.911344334652
    O            0.385614554994    -0.335248500978    -0.084511242054
    H           -0.371458414463     0.496815288668     1.633137425047
    H            0.356898423306     1.636010979832     0.498697284996
    C           -0.783804599215    -0.324824759600    -0.833901846058
    H           -0.839429949850     0.554940823387    -1.471745841239
    H           -1.666906129417    -0.353442263449    -0.199611379816
    H           -0.780499385769    -1.203255557758    -1.463341470486

  Mulliken Charges: (a.u.)
   Center  Symbol    Alpha    Beta     Spin     Total
       1     H     0.44844  0.44844  0.00000  0.10313
       2     C     3.02190  3.02190  0.00000 -0.04381
       3     O     4.16744  4.16744  0.00000 -0.33489
       4     H     0.47247  0.47247  0.00000  0.05506
       5     H     0.47362  0.47362  0.00000  0.05276
       6     C     3.02171  3.02171  0.00000 -0.04343
       7     H     0.47113  0.47113  0.00000  0.05774
       8     H     0.47444  0.47444  0.00000  0.05111
       9     H     0.44884  0.44884  0.00000  0.10233

   Total alpha = 13.00000, Total beta = 13.00000, Total charge = -0.00000
