  ==> Input File <==

--------------------------------------------------------------------------
set {
	reference rhf
	basis 6-31G*
}

set_num_threads( 4 )
memory 2 gb

molecule MOL {
0 1

O	 2.192748	 -0.313652	 -0.277758
C	 1.122059	 0.121804	 -0.000188
C	 -0.170150	 -0.657997	 -0.000612
O	 0.921263	 1.384510	 0.355098
C	 -1.412532	 0.227344	 -0.000452
H	 -0.153702	 -1.313099	 -0.867402
H	 -0.153924	 -1.313811	 0.865644
C	 -2.706999	 -0.587347	 -0.000541
H	 -1.388000	 0.879466	 -0.868000
H	 -1.387972	 0.879138	 0.867341
C	 -3.956778	 0.291888	 0.000910
H	 -2.726114	 -1.239230	 -0.871609
H	 -2.725217	 -1.240844	 0.869333
H	 -3.985213	 0.933254	 -0.875158
H	 -4.860123	 -0.309979	 0.000519
H	 -3.984618	 0.931166	 0.878514
C	 2.057232	 2.228909	 0.396384
H	 2.780051	 1.858922	 1.109217
H	 1.693734	 3.197912	 0.701099
H	 2.519587	 2.291831	 -0.578181

	symmetry c1
}
set optking {
	frozen_dihedral = ("
		1 2 3 6
	")
}

ee = optimize('scf')
oeprop('DIPOLE', 'QUADRUPOLE', 'MULLIKEN_CHARGES')
f=open( 'psi4out.xyz', 'w' )
f.write( "20  " )
f.write( str(ee) + "\n" )
f.write( MOL.save_string_xyz() )
f.close()
--------------------------------------------------------------------------

    Molecular point group: c1
  Charge       = 0
  Multiplicity = 1
  Basis Set: 6-31G*
  Basis Set:
  @DF-RHF Final Energy:  -383.93788131145078
    Total Energy =                       -383.9378813114509512
    Molecular point group: c1
  Basis Set: 6-31G*
  Basis Set:
  Basis Set: 6-31G*
  Basis Set:
  @DF-RHF Final Energy:  -383.93812507662909
    Total Energy =                       -383.9381250766292624
  Basis Set: 6-31G*
  Basis Set:
  Basis Set: 6-31G*
  Basis Set:
  @DF-RHF Final Energy:  -383.93901413854940
    Total Energy =                       -383.9390141385493962
  Basis Set: 6-31G*
  Basis Set:
  Basis Set: 6-31G*
  Basis Set:
  @DF-RHF Final Energy:  -383.93906205960161
    Total Energy =                       -383.9390620596012695
  Basis Set: 6-31G*
  Basis Set:
  Basis Set: 6-31G*
  Basis Set:
  @DF-RHF Final Energy:  -383.93912991583636
    Total Energy =                       -383.9391299158364745
  Basis Set: 6-31G*
  Basis Set:
  Basis Set: 6-31G*
  Basis Set:
  @DF-RHF Final Energy:  -383.93914519933827
    Total Energy =                       -383.9391451993386681
  Basis Set: 6-31G*
  Basis Set:
  Charge       = 0
  Multiplicity = 1
  Basis Set: 6-31G*
  Basis Set:

    Orbital Energies (a.u.)
    -----------------------

    Doubly Occupied:

       1A    -20.606465     2A    -20.540773     3A    -11.372462
       4A    -11.281678     5A    -11.235889     6A    -11.223793
       7A    -11.222489     8A    -11.213397     9A     -1.470264
      10A     -1.360982    11A     -1.091357    12A     -1.023822
      13A     -0.966872    14A     -0.892341    15A     -0.806041
      16A     -0.774912    17A     -0.693095    18A     -0.683983
      19A     -0.670640    20A     -0.647599    21A     -0.594051
      22A     -0.591979    23A     -0.580879    24A     -0.542643
      25A     -0.531336    26A     -0.523075    27A     -0.503780
      28A     -0.493348    29A     -0.479414    30A     -0.474254
      31A     -0.452307    32A     -0.427591

  @DF-RHF Final Energy:  -383.93914542784535

   => Energetics <=

    Nuclear Repulsion Energy =            383.6519536884059107
    One-Electron Energy =               -1283.2351728766907399
    Two-Electron Energy =                 515.6440737604391416
    DFT Exchange-Correlation Energy =       0.0000000000000000
    Empirical Dispersion Energy =           0.0000000000000000
    PCM Polarization Energy =               0.0000000000000000
    EFP Energy =                            0.0000000000000000
    Total Energy =                       -383.9391454278456877
    Molecular point group: c1
  Basis Set: 6-31G*
  Basis Set:

  -Total Gradient:
     Atom            X                  Y                   Z
    ------   -----------------  -----------------  -----------------
       1        0.000098056177    -0.000163942039     0.000677163434
       2       -0.000180529689     0.000280463654    -0.001080916473
       3        0.000377393526    -0.000615698738     0.000727391027
       4        0.000004427336     0.000061317170    -0.000014196621
       5       -0.000001925830    -0.000016467628     0.000033922186
       6       -0.000263214702     0.000469560742    -0.000380900121
       7       -0.000013010114    -0.000005317232     0.000003374398
       8       -0.000007499322     0.000004994253    -0.000008858703
       9       -0.000014329198    -0.000019317607     0.000016306748
      10        0.000000428602     0.000021306511     0.000007448192
      11        0.000000734132     0.000000564231    -0.000010723657
      12        0.000000539935    -0.000008351323     0.000000492670
      13        0.000006278919     0.000013770282     0.000001677665
      14       -0.000001175451     0.000003652391    -0.000000328465
      15        0.000001606791    -0.000001067998    -0.000003386375
      16        0.000001910980    -0.000003662410     0.000000753968
      17       -0.000007417932    -0.000033749674     0.000052209573
      18        0.000008788075     0.000015218254    -0.000005655176
      19       -0.000006405258     0.000001024244    -0.000006452609
      20       -0.000004656978    -0.000004297084    -0.000009321663

  **** Optimization is complete! (in 7 steps) ****
    Final optimized geometry and variables:
    Molecular point group: c1

    Geometry (in Angstrom), charge = 0, multiplicity = 1:

    O            2.376079546647    -0.700925790851    -0.336763599144
    C            1.333236168923    -0.197677047153    -0.063713775910
    C            0.023147608521    -0.954032957166    -0.049225955741
    O            1.215422881541     1.072988174473     0.290036778612
    C           -1.253615091238    -0.113566625095    -0.049635594647
    H            0.050026875264    -1.618613918430    -0.905665050529
    H            0.055012994973    -1.593405006477     0.829901198955
    C           -2.511846712414    -0.983573970449    -0.072804025357
    H           -1.254063309008     0.546740595120    -0.912721360815
    H           -1.269038157510     0.527878855738     0.825070223818
    C           -3.798902527171    -0.159917559620    -0.074586822736
    H           -2.493324744206    -1.625873206018    -0.950627067847
    H           -2.509141982301    -1.646397171083     0.790064954657
    H           -3.847492983123     0.489180635739    -0.944174724411
    H           -4.674709239275    -0.800843245849    -0.090803205203
    H           -3.863795154842     0.467527329798     0.809672467476
    C            2.405754361526     1.839872240449     0.331339026546
    H            3.099115316440     1.424718848859     1.048281188710
    H            2.106368496284     2.832345438208     0.630075576056
    H            2.873747945903     1.865587064091    -0.641968539307

  Mulliken Charges: (a.u.)
   Center  Symbol    Alpha    Beta     Spin     Total
       1     O     4.28906  4.28906  0.00000 -0.57813
       2     C     2.60489  2.60489  0.00000  0.79021
       3     C     3.21071  3.21071  0.00000 -0.42142
       4     O     4.30396  4.30396  0.00000 -0.60792
       5     C     3.15133  3.15133  0.00000 -0.30267
       6     H     0.39784  0.39784  0.00000  0.20433
       7     H     0.39932  0.39932  0.00000  0.20135
       8     C     3.15467  3.15467  0.00000 -0.30933
       9     H     0.41703  0.41703  0.00000  0.16594
      10     H     0.41170  0.41170  0.00000  0.17660
      11     C     3.23940  3.23940  0.00000 -0.47879
      12     H     0.42144  0.42144  0.00000  0.15711
      13     H     0.42201  0.42201  0.00000  0.15597
      14     H     0.42054  0.42054  0.00000  0.15892
      15     H     0.41784  0.41784  0.00000  0.16433
      16     H     0.42052  0.42052  0.00000  0.15896
      17     C     3.09269  3.09269  0.00000 -0.18539
      18     H     0.40836  0.40836  0.00000  0.18329
      19     H     0.40860  0.40860  0.00000  0.18280
      20     H     0.40808  0.40808  0.00000  0.18384

   Total alpha = 32.00000, Total beta = 32.00000, Total charge =  0.00000
