                              Psi4 1.0.54 Driver

  ==> Input File <==

--------------------------------------------------------------------------
set {
	reference rhf
	basis cc-pvtz
}

set_num_threads( 4 )
memory 2 gb

molecule MOL {
0 1

H	 -2.498963	 -0.741158	 -0.729149
O	 -2.346257	 -0.289210	 0.080372
C	 -1.183935	 0.486039	 -0.009831
C	 0.062853	 -0.375310	 0.027457
H	 -1.178881	 1.094526	 -0.908634
H	 -1.184406	 1.155156	 0.838676
O	 1.172093	 0.457955	 -0.054438
H	 0.052476	 -1.081302	 -0.804627
H	 0.076323	 -0.955658	 0.947560
C	 2.137548	 0.234772	 0.919885
H	 2.535696	 -0.775799	 0.860724
H	 2.942430	 0.935999	 0.755171
H	 1.736754	 0.388848	 1.918958

	symmetry c1
}
set optking {
	frozen_dihedral = ("
		10 7 4 8
	")
}

ee,wfn = optimize('scf', return_wfn=True)
oeprop( wfn, 'DIPOLE', 'QUADRUPOLE', 'MULLIKEN_CHARGES')
f=open( 'psi4out.xyz', 'w' )
f.write( "13  " )
f.write( str(ee) + "\n" )
f.write( MOL.save_string_xyz() )
f.close()
--------------------------------------------------------------------------

    Molecular point group: c1
  Charge       = 0
  Multiplicity = 1
  Basis Set: CC-PVTZ
  Basis Set:
  @DF-RHF Final Energy:  -268.05903786736434
    Total Energy =                       -268.0590378673643386
    Molecular point group: c1
  Basis Set: CC-PVTZ
  Basis Set:
  Basis Set: CC-PVTZ
  Basis Set:
  @DF-RHF Final Energy:  -268.05924001730386
    Total Energy =                       -268.0592400173037504
  Basis Set: CC-PVTZ
  Basis Set:
  Basis Set: CC-PVTZ
  Basis Set:
  @DF-RHF Final Energy:  -268.05933787123212
    Total Energy =                       -268.0593378712321737
  Basis Set: CC-PVTZ
  Basis Set:
  Charge       = 0
  Multiplicity = 1
  Basis Set: CC-PVTZ
  Basis Set:

    Orbital Energies (a.u.)
    -----------------------

    Doubly Occupied:

       1A    -20.553224     2A    -20.552784     3A    -11.268924
       4A    -11.267951     5A    -11.266983     6A     -1.387788
       7A     -1.368631     8A     -1.018244     9A     -0.917265
      10A     -0.840888    11A     -0.710488    12A     -0.676473
      13A     -0.659445    14A     -0.635749    15A     -0.602267
      16A     -0.576862    17A     -0.534276    18A     -0.497310
      19A     -0.482480    20A     -0.452886    21A     -0.411556

  @DF-RHF Final Energy:  -268.05933862879567

   => Energetics <=

    Nuclear Repulsion Energy =            190.6619420083773946
    One-Electron Energy =                -744.0776096754628952
    Two-Electron Energy =                 285.3563290382899140
    DFT Exchange-Correlation Energy =       0.0000000000000000
    Empirical Dispersion Energy =           0.0000000000000000
    PCM Polarization Energy =               0.0000000000000000
    EFP Energy =                            0.0000000000000000
    Total Energy =                       -268.0593386287955582
    Molecular point group: c1
  Basis Set: CC-PVTZ
  Basis Set:

  -Total Gradient:
     Atom            X                  Y                   Z
    ------   -----------------  -----------------  -----------------
       1       -0.000027432496    -0.000008078511     0.000018292356
       2       -0.000056890974    -0.000064995310    -0.000039767380
       3        0.000023603110     0.000023727655    -0.000023739423
       4        0.000757715878    -0.000826159388     0.001261774479
       5        0.000011421313     0.000004745757     0.000021213083
       6        0.000050666889    -0.000005753804    -0.000014910039
       7        0.000489290652    -0.000844879377    -0.001296984055
       8       -0.000781964112     0.000991278772    -0.000702319269
       9       -0.000000194964    -0.000015546834     0.000000237640
      10       -0.000412267292     0.000726431969     0.000819903352
      11       -0.000025994702     0.000027617406    -0.000004116769
      12       -0.000015275398    -0.000007039615    -0.000004380701
      13       -0.000012677898    -0.000001348719    -0.000035203274

  **** Optimization is complete! (in 4 steps) ****
    Final optimized geometry and variables:
    Molecular point group: c1

    Geometry (in Angstrom), charge = 0, multiplicity = 1:

    H           -2.446392620615    -0.789128695683    -0.967261286115
    O           -2.306823298704    -0.390672736156    -0.127732260133
    C           -1.149029743126     0.396641294179    -0.152096068404
    C            0.107138476256    -0.455740550037    -0.163338286214
    H           -1.138701602070     1.065803616071    -1.006668695522
    H           -1.165185408284     1.007567115629     0.739924172656
    O            1.224474083381     0.377409710508    -0.235311996894
    H            0.089319973055    -1.114239351249    -1.029528704965
    H            0.128119972962    -1.078358766429     0.725033728602
    C            2.232272152583     0.133221938923     0.692328434264
    H            2.659905346927    -0.858708746946     0.569079689282
    H            3.009035130828     0.866674613851     0.531683863110
    H            1.867905421317     0.228317967715     1.711899808450

  Mulliken Charges: (a.u.)
   Center  Symbol    Alpha    Beta     Spin     Total
       1     H     0.39316  0.39316  0.00000  0.21369
       2     O     4.20312  4.20312  0.00000 -0.40623
       3     C     2.97084  2.97084  0.00000  0.05832
       4     C     2.97326  2.97326  0.00000  0.05348
       5     H     0.46673  0.46673  0.00000  0.06654
       6     H     0.45699  0.45699  0.00000  0.08603
       7     O     4.18164  4.18164  0.00000 -0.36327
       8     H     0.46820  0.46820  0.00000  0.06360
       9     H     0.46844  0.46844  0.00000  0.06312
      10     C     3.02923  3.02923  0.00000 -0.05846
      11     H     0.46872  0.46872  0.00000  0.06256
      12     H     0.44893  0.44893  0.00000  0.10214
      13     H     0.47076  0.47076  0.00000  0.05849

   Total alpha = 21.00000, Total beta = 21.00000, Total charge = -0.00000

*** Psi4 exiting successfully. Buy a developer a beer!
