  ==> Input File <==

--------------------------------------------------------------------------
set {
	reference rhf
	basis cc-pvtz
}

set_num_threads( 4 )
memory 2 gb

molecule MOL {
0 1

H	 1.166964	 -1.062386	 0.758429
O	 1.324748	 -0.612467	 -0.052206
C	 0.706474	 0.636793	 -0.025501
C	 0.456264	 1.240266	 -1.378588
H	 1.359480	 1.290123	 0.541108
H	 -0.235005	 0.591994	 0.518843
C	 0.858307	 0.744849	 -2.528036
H	 -0.103845	 2.160746	 -1.362978
H	 1.432690	 -0.160138	 -2.583305
H	 0.634687	 1.240118	 -3.453650

	symmetry c1
}
set optking {
	frozen_dihedral = ("
		5 3 2 1
	")
}

ee = optimize('scf')
oeprop('DIPOLE', 'QUADRUPOLE', 'MULLIKEN_CHARGES')
f=open( 'psi4out.xyz', 'w' )
f.write( "10  " )
f.write( str(ee) + "\n" )
f.write( MOL.save_string_xyz() )
f.close()
--------------------------------------------------------------------------

    Molecular point group: c1
  Charge       = 0
  Multiplicity = 1
  Basis Set: CC-PVTZ
  Basis Set:
  @DF-RHF Final Energy:  -191.99581710231905
    Total Energy =                       -191.9958171023190516
    Molecular point group: c1
  Basis Set: CC-PVTZ
  Basis Set:
  Basis Set: CC-PVTZ
  Basis Set:
  @DF-RHF Final Energy:  -191.99713858786657
    Total Energy =                       -191.9971385878666581
  Basis Set: CC-PVTZ
  Basis Set:
  Basis Set: CC-PVTZ
  Basis Set:
  @DF-RHF Final Energy:  -191.99749646896663
    Total Energy =                       -191.9974964689666876
  Basis Set: CC-PVTZ
  Basis Set:
  Basis Set: CC-PVTZ
  Basis Set:
  @DF-RHF Final Energy:  -191.99751233207797
    Total Energy =                       -191.9975123320780597
  Basis Set: CC-PVTZ
  Basis Set:
  Basis Set: CC-PVTZ
  Basis Set:
  @DF-RHF Final Energy:  -191.99751365032034
    Total Energy =                       -191.9975136503203430
  Basis Set: CC-PVTZ
  Basis Set:
  Charge       = 0
  Multiplicity = 1
  Basis Set: CC-PVTZ
  Basis Set:

    Orbital Energies (a.u.)
    -----------------------

    Doubly Occupied:

       1A    -20.553772     2A    -11.278154     3A    -11.223608
       4A    -11.207693     5A     -1.373961     6A     -1.058435
       7A     -0.926112     8A     -0.756651     9A     -0.713609
      10A     -0.642683    11A     -0.617773    12A     -0.592279
      13A     -0.517507    14A     -0.490231    15A     -0.457514
      16A     -0.360384

  @DF-RHF Final Energy:  -191.99751377695083

   => Energetics <=

    Nuclear Repulsion Energy =            119.6335182669973989
    One-Electron Energy =                -497.7213381418237077
    Two-Electron Energy =                 186.0903060978754127
    DFT Exchange-Correlation Energy =       0.0000000000000000
    Empirical Dispersion Energy =           0.0000000000000000
    PCM Polarization Energy =               0.0000000000000000
    EFP Energy =                            0.0000000000000000
    Total Energy =                       -191.9975137769509104
    Molecular point group: c1
  Basis Set: CC-PVTZ
  Basis Set:

  -Total Gradient:
     Atom            X                  Y                   Z
    ------   -----------------  -----------------  -----------------
       1       -0.000728312253    -0.000383280833    -0.000387665908
       2        0.001025890320     0.000521987121     0.000302217130
       3       -0.000634760285    -0.000417580266     0.000731762091
       4       -0.000042343790    -0.000001008917     0.000012051639
       5        0.000368853221     0.000252314789    -0.000639805165
       6       -0.000004979820     0.000026669392    -0.000015076369
       7       -0.000016325648    -0.000016538718    -0.000002825881
       8        0.000012371819     0.000005351644    -0.000001933736
       9        0.000008376857     0.000004251258     0.000000503906
      10        0.000011229578     0.000007834530     0.000000772294

  **** Optimization is complete! (in 6 steps) ****
    Final optimized geometry and variables:
    Molecular point group: c1

    Geometry (in Angstrom), charge = 0, multiplicity = 1:

    H            0.364959817605    -1.526813071710     1.604021375329
    O            0.507549789786    -1.019197685135     0.827617858602
    C           -0.174955930857     0.196409384513     0.918128243743
    C           -0.384466719785     0.798709089840    -0.437629001892
    H            0.385630338294     0.903937766856     1.526790470598
    H           -1.144468736563     0.064131287404     1.394295351949
    C           -0.031107978517     0.256984889810    -1.580874438821
    H           -0.866137426880     1.762151540718    -0.426034115821
    H            0.453198838159    -0.698524547439    -1.622099049663
    H           -0.217019280454     0.761943649440    -2.509891077782

  Mulliken Charges: (a.u.)
   Center  Symbol    Alpha    Beta     Spin     Total
       1     H     0.39372  0.39372  0.00000  0.21255
       2     O     4.19246  4.19246  0.00000 -0.38492
       3     C     2.93886  2.93886  0.00000  0.12228
       4     C     3.08159  3.08159  0.00000 -0.16318
       5     H     0.47328  0.47328  0.00000  0.05345
       6     H     0.47493  0.47493  0.00000  0.05014
       7     C     3.17051  3.17051  0.00000 -0.34103
       8     H     0.42410  0.42410  0.00000  0.15179
       9     H     0.42025  0.42025  0.00000  0.15950
      10     H     0.43029  0.43029  0.00000  0.13942

   Total alpha = 16.00000, Total beta = 16.00000, Total charge = -0.00000
