                              Psi4 1.0.54 Driver

  ==> Input File <==

--------------------------------------------------------------------------
set {
	reference rhf
	basis cc-pvtz
}

set_num_threads( 4 )
memory 2 gb

molecule MOL {
0 1

H	 -3.268214	 -0.875720	 0.463107
C	 -2.806015	 0.000007	 0.024886
N	 -1.391133	 0.000016	 0.301321
H	 -3.029448	 0.000055	 -1.045738
H	 -3.268126	 0.875758	 0.463150
C	 -0.598233	 -0.232280	 -0.886502
C	 -1.034989	 -0.932737	 1.348539
H	 -0.810176	 -1.213265	 -1.321932
H	 -0.850458	 0.516138	 -1.628351
C	 0.882694	 -0.142474	 -0.569006
H	 -1.606055	 -0.695685	 2.238359
H	 -1.276701	 -1.961471	 1.065469
C	 0.445937	 -0.842931	 1.666036
H	 1.453759	 -0.379526	 -1.458826
H	 1.124405	 0.886260	 -0.285936
N	 1.238837	 -1.075227	 0.478212
H	 0.698163	 -1.591349	 2.407884
H	 0.657880	 0.138054	 2.101465
C	 2.653719	 -1.075218	 0.754647
H	 3.206203	 -1.313546	 -0.145644
H	 2.885099	 -1.828503	 1.497337
H	 3.013585	 -0.111861	 1.126934

	symmetry c1
}
set optking {
	frozen_dihedral = ("
		6 3 2 4
	")
}

ee,wfn = optimize('scf', return_wfn=True)
oeprop( wfn, 'DIPOLE', 'QUADRUPOLE', 'MULLIKEN_CHARGES')
f=open( 'psi4out.xyz', 'w' )
f.write( "22  " )
f.write( str(ee) + "\n" )
f.write( MOL.save_string_xyz() )
f.close()
--------------------------------------------------------------------------

    Molecular point group: c1
  Charge       = 0
  Multiplicity = 1
  Basis Set: CC-PVTZ
  Basis Set:
  @DF-RHF Final Energy:  -344.34444865109793
    Total Energy =                       -344.3444486510976503
    Molecular point group: c1
  Basis Set: CC-PVTZ
  Basis Set:
  Basis Set: CC-PVTZ
  Basis Set:
  @DF-RHF Final Energy:  -344.34531775293635
    Total Energy =                       -344.3453177529364666
  Basis Set: CC-PVTZ
  Basis Set:
  Basis Set: CC-PVTZ
  Basis Set:
  @DF-RHF Final Energy:  -344.34546629370391
    Total Energy =                       -344.3454662937040212
  Basis Set: CC-PVTZ
  Basis Set:
  Basis Set: CC-PVTZ
  Basis Set:
  @DF-RHF Final Energy:  -344.34547993654803
    Total Energy =                       -344.3454799365484860
  Basis Set: CC-PVTZ
  Basis Set:
  Charge       = 0
  Multiplicity = 1
  Basis Set: CC-PVTZ
  Basis Set:

    Orbital Energies (a.u.)
    -----------------------

    Doubly Occupied:

       1A    -15.537214     2A    -15.533538     3A    -11.237450
       4A    -11.237298     5A    -11.236390     6A    -11.236363
       7A    -11.234158     8A    -11.233926     9A     -1.255304
      10A     -1.203565    11A     -1.025825    12A     -0.991978
      13A     -0.912691    14A     -0.868082    15A     -0.836478
      16A     -0.753944    17A     -0.666061    18A     -0.636662
      19A     -0.631733    20A     -0.625487    21A     -0.621143
      22A     -0.580597    23A     -0.552674    24A     -0.548839
      25A     -0.542915    26A     -0.519541    27A     -0.497386
      28A     -0.487994    29A     -0.466790    30A     -0.456945
      31A     -0.351097    32A     -0.340761

  @DF-RHF Final Energy:  -344.34548096618545

   => Energetics <=

    Nuclear Repulsion Energy =            421.4420145725466114
    One-Electron Energy =               -1301.8533408361258807
    Two-Electron Energy =                 536.0658452973937074
    DFT Exchange-Correlation Energy =       0.0000000000000000
    Empirical Dispersion Energy =           0.0000000000000000
    PCM Polarization Energy =               0.0000000000000000
    EFP Energy =                            0.0000000000000000
    Total Energy =                       -344.3454809661855052
    Molecular point group: c1
  Basis Set: CC-PVTZ
  Basis Set:

  -Total Gradient:
     Atom            X                  Y                   Z
    ------   -----------------  -----------------  -----------------
       1       -0.000009315670    -0.000007346023    -0.000004165252
       2        0.000136392652     0.005466026962    -0.000051246233
       3       -0.000205094862    -0.004557926030     0.000500078293
       4       -0.000126149774    -0.003440164347    -0.000113168090
       5        0.000038430067    -0.000048952945     0.000005509321
       6        0.000164478495     0.002572616129    -0.000410065660
       7       -0.000001959285     0.000023103599     0.000033851055
       8       -0.000014257531     0.000004302282     0.000008919086
       9        0.000004991212     0.000000302997     0.000004413429
      10        0.000011331447     0.000019098839     0.000019511915
      11       -0.000000842925    -0.000005963552     0.000003797556
      12        0.000012038703     0.000012566651     0.000001235915
      13       -0.000005788422    -0.000046277915     0.000015059399
      14       -0.000002076049    -0.000000187428     0.000002567821
      15        0.000003326151     0.000012108923    -0.000005605881
      16       -0.000019335358     0.000013519402    -0.000006724257
      17        0.000018978688    -0.000001579808     0.000009585376
      18       -0.000016948103    -0.000007716051    -0.000006192504
      19        0.000005174656    -0.000011113029    -0.000007712191
      20        0.000005355591     0.000001079762     0.000002071001
      21        0.000003586133     0.000001786362    -0.000000494920
      22       -0.000002315815     0.000000715218    -0.000001225183

  **** Optimization is complete! (in 5 steps) ****
    Final optimized geometry and variables:
    Molecular point group: c1

    Geometry (in Angstrom), charge = 0, multiplicity = 1:

    H           -3.259161667193    -0.327389570178    -0.046460491904
    C           -2.738583129322     0.557154407211    -0.410689867325
    N           -1.316258580317     0.494252681037    -0.139355769348
    H           -2.924931805407     0.596906829844    -1.476517991166
    H           -3.192660359064     1.424505499164     0.054956828480
    C           -0.492054386309     0.269768390799    -1.304660719044
    C           -0.973825984975    -0.390598739038     0.948703578624
    H           -0.672692831213    -0.714172591954    -1.748760136183
    H           -0.730454289219     1.015610161090    -2.052821171257
    C            0.978252601911     0.382664474050    -0.945892291111
    H           -1.562868519820    -0.123132265691     1.818403653850
    H           -1.203252676587    -1.432353738562     0.704623934887
    C            0.499611428777    -0.276914611351     1.292361381110
    H            1.577333069597     0.139904248542    -1.815652852118
    H            1.198493549343     1.418814874111    -0.671649712103
    N            1.317476814238    -0.528494476857     0.125665634586
    H            0.745477776950    -1.004462400596     2.056939506696
    H            0.693225140935     0.716731704800     1.707497733323
    C            2.726268656675    -0.514699144858     0.430936706289
    H            3.298598187821    -0.767589430855    -0.452887434087
    H            2.946584762839    -1.251587104731     1.193251541693
    H            3.073322028815     0.458034512192     0.791189065456

  Mulliken Charges: (a.u.)
   Center  Symbol    Alpha    Beta     Spin     Total
       1     H     0.46486  0.46486  0.00000  0.07028
       2     C     3.09332  3.09332  0.00000 -0.18663
       3     N     3.61465  3.61465  0.00000 -0.22930
       4     H     0.45791  0.45791  0.00000  0.08417
       5     H     0.44980  0.44980  0.00000  0.10039
       6     C     3.03466  3.03466  0.00000 -0.06932
       7     C     3.03474  3.03474  0.00000 -0.06948
       8     H     0.46922  0.46922  0.00000  0.06155
       9     H     0.45370  0.45370  0.00000  0.09259
      10     C     3.03666  3.03666  0.00000 -0.07331
      11     H     0.45358  0.45358  0.00000  0.09285
      12     H     0.46868  0.46868  0.00000  0.06264
      13     C     3.03713  3.03713  0.00000 -0.07427
      14     H     0.45410  0.45410  0.00000  0.09179
      15     H     0.46877  0.46877  0.00000  0.06246
      16     N     3.61304  3.61304  0.00000 -0.22608
      17     H     0.45409  0.45409  0.00000  0.09182
      18     H     0.46867  0.46867  0.00000  0.06266
      19     C     3.09825  3.09825  0.00000 -0.19650
      20     H     0.45197  0.45197  0.00000  0.09606
      21     H     0.45196  0.45196  0.00000  0.09608
      22     H     0.47023  0.47023  0.00000  0.05954

   Total alpha = 32.00000, Total beta = 32.00000, Total charge = -0.00000

*** Psi4 exiting successfully. Buy a developer a beer!
