                              Psi4 1.0.54 Driver

  ==> Input File <==

--------------------------------------------------------------------------
set {
	reference rhf
	basis cc-pvtz
}

set_num_threads( 4 )
memory 2 gb

molecule MOL {
0 1

H	 -2.124079	 3.635683	 -1.144938
O	 -1.433296	 3.045257	 -1.382451
C	 -1.227591	 2.106561	 -0.360222
C	 -0.108897	 1.174427	 -0.779473
H	 -0.963991	 2.607311	 0.569046
H	 -2.136250	 1.536341	 -0.178515
C	 0.196029	 0.106276	 0.266738
H	 0.778362	 1.768438	 -0.974773
H	 -0.384476	 0.707832	 -1.719825
C	 1.330220	 -0.826136	 -0.155230
H	 0.445037	 0.589278	 1.206641
H	 -0.698451	 -0.484232	 0.453252
C	 2.719700	 -0.407669	 0.328325
H	 1.339388	 -0.911200	 -1.239363
H	 1.119001	 -1.821953	 0.224128
C	 3.241564	 0.893452	 -0.276737
H	 3.418299	 -1.204729	 0.093035
H	 2.711776	 -0.323368	 1.411960
H	 3.254204	 0.841071	 -1.360784
H	 2.634460	 1.745075	 0.005842
H	 4.254264	 1.092401	 0.054971

	symmetry c1
}
set optking {
	frozen_dihedral = ("
		4 7 10 14
	")
}

ee,wfn = optimize('scf', return_wfn=True)
oeprop( wfn, 'DIPOLE', 'QUADRUPOLE', 'MULLIKEN_CHARGES')
f=open( 'psi4out.xyz', 'w' )
f.write( "21  " )
f.write( str(ee) + "\n" )
f.write( MOL.save_string_xyz() )
f.close()
--------------------------------------------------------------------------

    Molecular point group: c1
  Charge       = 0
  Multiplicity = 1
  Basis Set: CC-PVTZ
  Basis Set:
  @DF-RHF Final Energy:  -310.32747443347517
    Total Energy =                       -310.3274744334755724
    Molecular point group: c1
  Basis Set: CC-PVTZ
  Basis Set:
  Basis Set: CC-PVTZ
  Basis Set:
  @DF-RHF Final Energy:  -310.32824902866685
    Total Energy =                       -310.3282490286669031
  Basis Set: CC-PVTZ
  Basis Set:
  Basis Set: CC-PVTZ
  Basis Set:
  @DF-RHF Final Energy:  -310.32843039171166
    Total Energy =                       -310.3284303917119473
  Basis Set: CC-PVTZ
  Basis Set:
  Basis Set: CC-PVTZ
  Basis Set:
  @DF-RHF Final Energy:  -310.32845717133091
    Total Energy =                       -310.3284571713309106
  Basis Set: CC-PVTZ
  Basis Set:
  Basis Set: CC-PVTZ
  Basis Set:
  @DF-RHF Final Energy:  -310.32845963738885
    Total Energy =                       -310.3284596373894146
  Basis Set: CC-PVTZ
  Basis Set:
  Charge       = 0
  Multiplicity = 1
  Basis Set: CC-PVTZ
  Basis Set:

    Orbital Energies (a.u.)
    -----------------------

    Doubly Occupied:

       1A    -20.545251     2A    -11.264629     3A    -11.213872
       4A    -11.212896     5A    -11.211566     6A    -11.207973
       7A    -11.204865     8A     -1.363066     9A     -1.085349
      10A     -1.031790    11A     -0.957126    12A     -0.877411
      13A     -0.808526    14A     -0.776470    15A     -0.695366
      16A     -0.661355    17A     -0.619979    18A     -0.610318
      19A     -0.588630    20A     -0.562039    21A     -0.549105
      22A     -0.521549    23A     -0.501125    24A     -0.498426
      25A     -0.480311    26A     -0.459751    27A     -0.448200
      28A     -0.442756    29A     -0.436997

  @DF-RHF Final Energy:  -310.32845986529162

   => Energetics <=

    Nuclear Repulsion Energy =            318.8682357056264891
    One-Electron Energy =               -1052.7199939373231246
    Two-Electron Energy =                 423.5232983664049016
    DFT Exchange-Correlation Energy =       0.0000000000000000
    Empirical Dispersion Energy =           0.0000000000000000
    PCM Polarization Energy =               0.0000000000000000
    EFP Energy =                            0.0000000000000000
    Total Energy =                       -310.3284598652917339
    Molecular point group: c1
  Basis Set: CC-PVTZ
  Basis Set:

  -Total Gradient:
     Atom            X                  Y                   Z
    ------   -----------------  -----------------  -----------------
       1        0.000003788146    -0.000010979282     0.000009166174
       2        0.000011591891    -0.000002418331    -0.000010600465
       3       -0.000010321761    -0.000001241173     0.000018647334
       4        0.000023492748     0.000041263329     0.000014361467
       5        0.000003319112     0.000005232666    -0.000001149269
       6       -0.000004406562    -0.000000236847    -0.000004258510
       7       -0.000074734503    -0.000061845383    -0.000019911000
       8        0.000016418934     0.000002669010    -0.000003110637
       9        0.000001425159     0.000001551990    -0.000004213182
      10        0.000087854360     0.000108947053    -0.000008165882
      11       -0.000006081760     0.000007106128     0.000001940726
      12       -0.000008099529    -0.000001615388     0.000003395056
      13       -0.000004955818    -0.000017788465     0.000003675970
      14       -0.000047801098    -0.000062393045     0.000006910880
      15        0.000015118200    -0.000010796461    -0.000004361833
      16       -0.000005951175    -0.000003839948     0.000005027704
      17        0.000007344658    -0.000000673838     0.000003470380
      18       -0.000002296807     0.000007110810     0.000002954456
      19       -0.000005324480     0.000003164794    -0.000016204694
      20        0.000005547610     0.000003056374     0.000000700767
      21       -0.000005927327    -0.000006273992     0.000001724553

  **** Optimization is complete! (in 6 steps) ****
    Final optimized geometry and variables:
    Molecular point group: c1

    Geometry (in Angstrom), charge = 0, multiplicity = 1:

    H           -2.879399005730     2.627612035137    -0.804991443594
    O           -2.189900003661     2.041296573749    -1.055836306480
    C           -1.894863807738     1.163710341806    -0.001622286665
    C           -0.778213017527     0.238822737705    -0.442506596637
    H           -1.588186309992     1.719952495630     0.881876229043
    H           -2.774219282989     0.581980276010     0.267123958380
    C           -0.400643787109    -0.777410489977     0.634609848053
    H            0.073780352404     0.843446055464    -0.726169960332
    H           -1.099803501329    -0.283237175827    -1.338062391907
    C            0.739224561703    -1.735199883248     0.247462284857
    H           -0.139668559502    -0.259560199496     1.554646721452
    H           -1.284092610028    -1.365155236539     0.865569856358
    C            2.146354841586    -1.317522672003     0.684574583477
    H            0.726803423532    -1.895086350041    -0.827601783883
    H            0.541157550700    -2.704102441436     0.693970298189
    C            2.682839817324    -0.026210165584     0.073014173131
    H            2.826895012538    -2.126519781242     0.435997944183
    H            2.165412704463    -1.231720231995     1.767977451407
    H            2.654396013081    -0.061568705283    -1.011009470483
    H            2.115504054591     0.839636418148     0.391626190247
    H            3.712773441880     0.134561739362     0.370940002416

  Mulliken Charges: (a.u.)
   Center  Symbol    Alpha    Beta     Spin     Total
       1     H     0.39744  0.39744  0.00000  0.20512
       2     O     4.19524  4.19524  0.00000 -0.39049
       3     C     2.96455  2.96455  0.00000  0.07090
       4     C     3.08663  3.08663  0.00000 -0.17325
       5     H     0.47460  0.47460  0.00000  0.05080
       6     H     0.47365  0.47365  0.00000  0.05270
       7     C     3.11395  3.11395  0.00000 -0.22789
       8     H     0.44766  0.44766  0.00000  0.10469
       9     H     0.45026  0.45026  0.00000  0.09948
      10     C     3.10015  3.10015  0.00000 -0.20029
      11     H     0.45363  0.45363  0.00000  0.09274
      12     H     0.44606  0.44606  0.00000  0.10788
      13     C     3.08481  3.08481  0.00000 -0.16962
      14     H     0.45343  0.45343  0.00000  0.09315
      15     H     0.44474  0.44474  0.00000  0.11053
      16     C     3.15927  3.15927  0.00000 -0.31854
      17     H     0.44949  0.44949  0.00000  0.10103
      18     H     0.45538  0.45538  0.00000  0.08924
      19     H     0.45175  0.45175  0.00000  0.09650
      20     H     0.45321  0.45321  0.00000  0.09358
      21     H     0.44413  0.44413  0.00000  0.11175

   Total alpha = 29.00000, Total beta = 29.00000, Total charge = -0.00000

*** Psi4 exiting successfully. Buy a developer a beer!
