                              Psi4 1.0.54 Driver

  ==> Input File <==

--------------------------------------------------------------------------
set {
	reference rhf
	basis cc-pvtz
}

set_num_threads( 4 )
memory 2 gb

molecule MOL {
0 1

H	 1.798143	 -1.599105	 2.123844
O	 1.382097	 -1.570339	 1.275425
C	 0.397950	 -0.676941	 1.319176
C	 -0.318151	 -0.570512	 0.000144
O	 0.149429	 -0.061786	 2.297843
C	 -1.454884	 0.441630	 -0.000560
H	 0.427249	 -0.326367	 -0.749965
H	 -0.675169	 -1.564113	 -0.251242
C	 -2.822577	 -0.232186	 0.000063
H	 -1.359760	 1.084704	 -0.867077
H	 -1.359641	 1.085996	 0.864983
H	 -2.954352	 -0.858985	 -0.875745
H	 -3.615886	 0.505352	 0.000019
H	 -2.953878	 -0.858359	 0.876394

	symmetry c1
}
set optking {
	frozen_dihedral = ("
		7 4 6 10
	")
}

ee,wfn = optimize('scf', return_wfn=True)
oeprop( wfn, 'DIPOLE', 'QUADRUPOLE', 'MULLIKEN_CHARGES')
f=open( 'psi4out.xyz', 'w' )
f.write( "14  " )
f.write( str(ee) + "\n" )
f.write( MOL.save_string_xyz() )
f.close()
--------------------------------------------------------------------------

    Molecular point group: c1
  Charge       = 0
  Multiplicity = 1
  Basis Set: CC-PVTZ
  Basis Set:
  @DF-RHF Final Energy:  -305.99666297394560
    Total Energy =                       -305.9966629739456039
    Molecular point group: c1
  Basis Set: CC-PVTZ
  Basis Set:
  Basis Set: CC-PVTZ
  Basis Set:
  @DF-RHF Final Energy:  -305.99697553877337
    Total Energy =                       -305.9969755387734267
  Basis Set: CC-PVTZ
  Basis Set:
  Basis Set: CC-PVTZ
  Basis Set:
  @DF-RHF Final Energy:  -305.99687855467380
    Total Energy =                       -305.9968785546738559
  Basis Set: CC-PVTZ
  Basis Set:
  Basis Set: CC-PVTZ
  Basis Set:
  @DF-RHF Final Energy:  -305.99705794519480
    Total Energy =                       -305.9970579451947970
  Basis Set: CC-PVTZ
  Basis Set:
  Basis Set: CC-PVTZ
  Basis Set:
  @DF-RHF Final Energy:  -305.99706189438626
    Total Energy =                       -305.9970618943863201
  Basis Set: CC-PVTZ
  Basis Set:
  Basis Set: CC-PVTZ
  Basis Set:
  @DF-RHF Final Energy:  -305.99706478235464
    Total Energy =                       -305.9970647823546415
  Basis Set: CC-PVTZ
  Basis Set:
  Charge       = 0
  Multiplicity = 1
  Basis Set: CC-PVTZ
  Basis Set:

    Orbital Energies (a.u.)
    -----------------------

    Doubly Occupied:

       1A    -20.604919     2A    -20.541904     3A    -11.375074
       4A    -11.239616     5A    -11.222441     6A    -11.212833
       7A     -1.478855     8A     -1.370302     9A     -1.081258
      10A     -0.979817    11A     -0.860977    12A     -0.791520
      13A     -0.706017    14A     -0.696887    15A     -0.660581
      16A     -0.613826    17A     -0.599472    18A     -0.567531
      19A     -0.559579    20A     -0.494186    21A     -0.491447
      22A     -0.487529    23A     -0.478660    24A     -0.449896

  @DF-RHF Final Energy:  -305.99706562300668

   => Energetics <=

    Nuclear Repulsion Energy =            242.2558463546642429
    One-Electron Energy =                -897.3755719400219277
    Two-Electron Energy =                 349.1226599623510651
    DFT Exchange-Correlation Energy =       0.0000000000000000
    Empirical Dispersion Energy =           0.0000000000000000
    PCM Polarization Energy =               0.0000000000000000
    EFP Energy =                            0.0000000000000000
    Total Energy =                       -305.9970656230065629
    Molecular point group: c1
  Basis Set: CC-PVTZ
  Basis Set:

  -Total Gradient:
     Atom            X                  Y                   Z
    ------   -----------------  -----------------  -----------------
       1        0.000002011357    -0.000002060640    -0.000010156685
       2        0.000051313138    -0.000049944997     0.000011715937
       3       -0.000049050092     0.000065953683     0.000040125927
       4        0.002089539777     0.002642038695     0.002902288901
       5        0.000007064755    -0.000018622488    -0.000030866641
       6       -0.002301501610    -0.002846643998    -0.002428167073
       7       -0.001402066927    -0.001690551643    -0.001989548735
       8        0.000002114393    -0.000018815928    -0.000029041119
       9        0.000024502350     0.000009769516     0.000000295012
      10        0.001589118340     0.001895619531     0.001523834872
      11        0.000008168315     0.000022963542     0.000004813713
      12       -0.000013925795     0.000000643970     0.000005481990
      13       -0.000002516039    -0.000002565928     0.000001262977
      14       -0.000004771959    -0.000007783315    -0.000002039076

  **** Optimization is complete! (in 7 steps) ****
    Final optimized geometry and variables:
    Molecular point group: c1

    Geometry (in Angstrom), charge = 0, multiplicity = 1:

    H            2.232555236260    -1.119634868920     1.276555529586
    O            1.835166002350    -1.063692722376     0.420624419509
    C            0.813588935118    -0.214823306201     0.485905881478
    C            0.119604938968    -0.085318040249    -0.844161469813
    O            0.520118844007     0.338008918134     1.489001334005
    C           -1.043846730961     0.912552127334    -0.869013433530
    H            0.873259045173     0.149389421305    -1.586102385638
    H           -0.216145076007    -1.084595583690    -1.104269545112
    C           -2.414781149248     0.246376987679    -0.841599431784
    H           -0.950512621912     1.543113220739    -1.745391458817
    H           -0.952220819696     1.572217863385    -0.016947743072
    H           -2.559875255152    -0.395565528541    -1.704300165290
    H           -3.205382068079     0.987196178696    -0.842690109710
    H           -2.531848077486    -0.360430949824     0.049661635232

  Mulliken Charges: (a.u.)
   Center  Symbol    Alpha    Beta     Spin     Total
       1     H     0.38243  0.38243  0.00000  0.23515
       2     O     4.15978  4.15978  0.00000 -0.31957
       3     C     2.80149  2.80149  0.00000  0.39701
       4     C     3.11474  3.11474  0.00000 -0.22948
       5     O     4.19162  4.19162  0.00000 -0.38325
       6     C     3.08863  3.08863  0.00000 -0.17726
       7     H     0.43022  0.43022  0.00000  0.13957
       8     H     0.43894  0.43894  0.00000  0.12213
       9     C     3.14804  3.14804  0.00000 -0.29609
      10     H     0.44871  0.44871  0.00000  0.10259
      11     H     0.43967  0.43967  0.00000  0.12066
      12     H     0.45680  0.45680  0.00000  0.08641
      13     H     0.44797  0.44797  0.00000  0.10406
      14     H     0.45096  0.45096  0.00000  0.09807

   Total alpha = 24.00000, Total beta = 24.00000, Total charge = -0.00000

*** Psi4 exiting successfully. Buy a developer a beer!
