  ==> Input File <==

--------------------------------------------------------------------------
set {
	reference rhf
	basis cc-pvtz
}

set_num_threads( 4 )
memory 2 gb

molecule MOL {
0 1

H	 -2.498963	 -0.741158	 -0.729149
O	 -2.346257	 -0.289210	 0.080372
C	 -1.183935	 0.486039	 -0.009831
C	 0.062853	 -0.375310	 0.027457
H	 -1.178881	 1.094526	 -0.908634
H	 -1.184406	 1.155156	 0.838676
O	 1.172093	 0.457955	 -0.054438
H	 0.052476	 -1.081302	 -0.804627
H	 0.076323	 -0.955658	 0.947560
C	 2.205524	 -0.029231	 -0.845571
H	 1.883316	 -0.176137	 -1.874101
H	 3.004148	 0.697882	 -0.831675
H	 2.585041	 -0.974730	 -0.465415

	symmetry c1
}
set optking {
	frozen_dihedral = ("
		10 7 4 8
	")
}

ee = optimize('scf')
oeprop('DIPOLE', 'QUADRUPOLE', 'MULLIKEN_CHARGES')
f=open( 'psi4out.xyz', 'w' )
f.write( "13  " )
f.write( str(ee) + "\n" )
f.write( MOL.save_string_xyz() )
f.close()
--------------------------------------------------------------------------

    Molecular point group: c1
  Charge       = 0
  Multiplicity = 1
  Basis Set: CC-PVTZ
  Basis Set:
  @DF-RHF Final Energy:  -268.05939158977134
    Total Energy =                       -268.0593915897715078
    Molecular point group: c1
  Basis Set: CC-PVTZ
  Basis Set:
  Basis Set: CC-PVTZ
  Basis Set:
  @DF-RHF Final Energy:  -268.05959932923997
    Total Energy =                       -268.0595993292399726
  Basis Set: CC-PVTZ
  Basis Set:
  Basis Set: CC-PVTZ
  Basis Set:
  @DF-RHF Final Energy:  -268.05965948822632
    Total Energy =                       -268.0596594882263162
  Basis Set: CC-PVTZ
  Basis Set:
  Charge       = 0
  Multiplicity = 1
  Basis Set: CC-PVTZ
  Basis Set:

    Orbital Energies (a.u.)
    -----------------------

    Doubly Occupied:

       1A    -20.554033     2A    -20.553113     3A    -11.269090
       4A    -11.268879     5A    -11.267470     6A     -1.389048
       7A     -1.369147     8A     -1.019218     9A     -0.916275
      10A     -0.842677    11A     -0.712049    12A     -0.670818
      13A     -0.663580    14A     -0.643618    15A     -0.591375
      16A     -0.572117    17A     -0.553341    18A     -0.491044
      19A     -0.476511    20A     -0.455570    21A     -0.414300

  @DF-RHF Final Energy:  -268.05966054218493

   => Energetics <=

    Nuclear Repulsion Energy =            190.5167660814593091
    One-Electron Energy =                -743.7663049910636346
    Two-Electron Energy =                 285.1898783674193965
    DFT Exchange-Correlation Energy =       0.0000000000000000
    Empirical Dispersion Energy =           0.0000000000000000
    PCM Polarization Energy =               0.0000000000000000
    EFP Energy =                            0.0000000000000000
    Total Energy =                       -268.0596605421849290
    Molecular point group: c1
  Basis Set: CC-PVTZ
  Basis Set:

  -Total Gradient:
     Atom            X                  Y                   Z
    ------   -----------------  -----------------  -----------------
       1       -0.000000784460     0.000012393458     0.000005677522
       2       -0.000045098320    -0.000023462705     0.000012785086
       3        0.000012514922    -0.000042041505    -0.000001930413
       4       -0.001905899493     0.002563973044    -0.002382093150
       5        0.000015104860     0.000007425783    -0.000000148121
       6       -0.000011584527    -0.000018609566    -0.000015819629
       7        0.001416218413    -0.001835992954     0.002654045811
       8        0.001225606414    -0.001629287558     0.001331439547
       9       -0.000018930222     0.000010539318    -0.000006844308
      10       -0.000647599038     0.000939576338    -0.001619691327
      11       -0.000033221577     0.000004775223     0.000029271577
      12        0.000020323526    -0.000003580787    -0.000008495038
      13       -0.000026650501     0.000014291910     0.000001802444

  **** Optimization is complete! (in 4 steps) ****
    Final optimized geometry and variables:
    Molecular point group: c1

    Geometry (in Angstrom), charge = 0, multiplicity = 1:

    H           -2.500251194839    -0.786122147667    -0.484505939259
    O           -2.318356887230    -0.307650272659     0.303456901992
    C           -1.153044266593     0.453183516639     0.150966188303
    C            0.089827095831    -0.415542098383     0.165017717536
    H           -1.177896887112     1.042347523131    -0.760976600578
    H           -1.114872123642     1.141721928680     0.982941980604
    O            1.215911021945     0.405195305126     0.110682088303
    H            0.077101556967    -1.113800971215    -0.670412002148
    H            0.101901459915    -1.012275830542     1.073106284763
    C            2.273447737635    -0.062019344852    -0.661222297557
    H            1.978762070736    -0.197490554430    -1.698980513155
    H            3.062402112296     0.674646046424    -0.617424470160
    H            2.659460885464    -1.006872650676    -0.285740664082

  Mulliken Charges: (a.u.)
   Center  Symbol    Alpha    Beta     Spin     Total
       1     H     0.39505  0.39505  0.00000  0.20989
       2     O     4.20102  4.20102  0.00000 -0.40203
       3     C     2.97216  2.97216  0.00000  0.05568
       4     C     2.96919  2.96919  0.00000  0.06163
       5     H     0.46925  0.46925  0.00000  0.06150
       6     H     0.45254  0.45254  0.00000  0.09492
       7     O     4.17936  4.17936  0.00000 -0.35872
       8     H     0.48206  0.48206  0.00000  0.03589
       9     H     0.46018  0.46018  0.00000  0.07963
      10     C     3.03013  3.03013  0.00000 -0.06025
      11     H     0.47225  0.47225  0.00000  0.05550
      12     H     0.44766  0.44766  0.00000  0.10467
      13     H     0.46916  0.46916  0.00000  0.06169

   Total alpha = 21.00000, Total beta = 21.00000, Total charge = -0.00000
