  ==> Input File <==

--------------------------------------------------------------------------
set {
	reference rhf
	basis 6-31G*
}

set_num_threads( 4 )
memory 2 gb

molecule MOL {
0 1

H	 -1.689578	 2.162657	 0.713358
C	 -1.825692	 1.254690	 1.288174
C	 -0.530924	 0.453963	 1.360073
H	 -2.611270	 0.680979	 0.811724
H	 -2.156823	 1.526897	 2.284934
C	 -0.000005	 0.033229	 -0.000001
H	 -0.665482	 -0.444302	 1.959581
H	 0.248153	 1.024361	 1.862150
C	 1.290528	 -0.768786	 0.000276
O	 -0.565034	 0.316685	 -1.011722
C	 2.545731	 0.095645	 -0.000061
H	 1.275672	 -1.427874	 -0.865626
H	 1.275566	 -1.427086	 0.866768
H	 2.577157	 0.734767	 -0.874036
H	 3.433520	 -0.528139	 0.000137
H	 2.577172	 0.735117	 0.873581

	symmetry c1
}
set optking {
	frozen_dihedral = ("
		3 6 9 12
	")
}

ee = optimize('scf')
oeprop('DIPOLE', 'QUADRUPOLE', 'MULLIKEN_CHARGES')
f=open( 'psi4out.xyz', 'w' )
f.write( "16  " )
f.write( str(ee) + "\n" )
f.write( MOL.save_string_xyz() )
f.close()
--------------------------------------------------------------------------

    Molecular point group: c1
  Charge       = 0
  Multiplicity = 1
  Basis Set: 6-31G*
  Basis Set:
  @DF-RHF Final Energy:  -270.03040175414549
    Total Energy =                       -270.0304017541456574
    Molecular point group: c1
  Basis Set: 6-31G*
  Basis Set:
  Basis Set: 6-31G*
  Basis Set:
  @DF-RHF Final Energy:  -270.03096780946584
    Total Energy =                       -270.0309678094658921
  Basis Set: 6-31G*
  Basis Set:
  Basis Set: 6-31G*
  Basis Set:
  @DF-RHF Final Energy:  -270.03119269056697
    Total Energy =                       -270.0311926905673090
  Basis Set: 6-31G*
  Basis Set:
  Basis Set: 6-31G*
  Basis Set:
  @DF-RHF Final Energy:  -270.03126159913609
    Total Energy =                       -270.0312615991360872
  Basis Set: 6-31G*
  Basis Set:
  Basis Set: 6-31G*
  Basis Set:
  @DF-RHF Final Energy:  -270.03126701409496
    Total Energy =                       -270.0312670140949081
  Basis Set: 6-31G*
  Basis Set:
  Charge       = 0
  Multiplicity = 1
  Basis Set: 6-31G*
  Basis Set:

    Orbital Energies (a.u.)
    -----------------------

    Doubly Occupied:

       1A    -20.548795     2A    -11.322649     3A    -11.233993
       4A    -11.232169     5A    -11.228215     6A    -11.213289
       7A     -1.394291     8A     -1.071636     9A     -1.036430
      10A     -0.911641    11A     -0.856174    12A     -0.726605
      13A     -0.663911    14A     -0.642705    15A     -0.624224
      16A     -0.602476    17A     -0.565324    18A     -0.539306
      19A     -0.532171    20A     -0.510886    21A     -0.503065
      22A     -0.498654    23A     -0.477775    24A     -0.396267

  @DF-RHF Final Energy:  -270.03126738547303

   => Energetics <=

    Nuclear Repulsion Energy =            240.6231184361039368
    One-Electron Energy =                -842.6434710248387319
    Two-Electron Energy =                 331.9890852032617090
    DFT Exchange-Correlation Energy =       0.0000000000000000
    Empirical Dispersion Energy =           0.0000000000000000
    PCM Polarization Energy =               0.0000000000000000
    EFP Energy =                            0.0000000000000000
    Total Energy =                       -270.0312673854730861
    Molecular point group: c1
  Basis Set: 6-31G*
  Basis Set:

  -Total Gradient:
     Atom            X                  Y                   Z
    ------   -----------------  -----------------  -----------------
       1       -0.000010238101     0.000003498045    -0.000002641778
       2        0.000027725826     0.000037974105     0.000012398917
       3        0.000171677083     0.000317588437    -0.000047563014
       4        0.000006859754    -0.000008061562     0.000000893193
       5       -0.000001699827    -0.000001139905    -0.000002062589
       6       -0.000234661737    -0.000427344377    -0.000042211618
       7        0.000010862286    -0.000002165970     0.000011737765
       8       -0.000008430729     0.000005068812    -0.000005242186
       9       -0.000178589714    -0.000336215209     0.000393791605
      10       -0.000041013719     0.000002448548    -0.000014000997
      11        0.000031357917     0.000000070976     0.000005051240
      12        0.000227643368     0.000415919401    -0.000310143951
      13        0.000008818062    -0.000008025255     0.000002518693
      14       -0.000004562705    -0.000007735993    -0.000000524300
      15       -0.000011609006     0.000011023322    -0.000001697523
      16        0.000005861242    -0.000002903375    -0.000000303458

  **** Optimization is complete! (in 6 steps) ****
    Final optimized geometry and variables:
    Molecular point group: c1

    Geometry (in Angstrom), charge = 0, multiplicity = 1:

    H           -1.669424434604     2.004433395352     0.480859455629
    C           -1.929745630681     1.085429182540     0.992716960646
    C           -0.724811401329     0.158991464345     1.098884021971
    H           -2.730287248338     0.616241376753     0.434715156055
    H           -2.301310268991     1.338324212697     1.980272631888
    C           -0.156117381462    -0.258631158288    -0.244774589633
    H           -0.985920960969    -0.752483857250     1.634928084446
    H            0.070950035061     0.618460948594     1.681490938926
    C            1.154725295116    -1.026195511279    -0.233932348253
    O           -0.694949763968     0.017623290781    -1.273423044455
    C            2.352103308172    -0.068330098872    -0.315407615286
    H            1.157449485199    -1.681307269632    -1.096689974703
    H            1.230071891305    -1.636048571469     0.661468012934
    H            2.297142497015     0.532646342043    -1.215916281623
    H            3.281124536831    -0.627073416752    -0.337670763682
    H            2.390572858690     0.601814797144     0.537741921151

  Mulliken Charges: (a.u.)
   Center  Symbol    Alpha    Beta     Spin     Total
       1     H     0.41241  0.41241  0.00000  0.17517
       2     C     3.23517  3.23517  0.00000 -0.47033
       3     C     3.20923  3.20923  0.00000 -0.41846
       4     H     0.40848  0.40848  0.00000  0.18305
       5     H     0.42012  0.42012  0.00000  0.15977
       6     C     2.73595  2.73595  0.00000  0.52810
       7     H     0.40743  0.40743  0.00000  0.18514
       8     H     0.40990  0.40990  0.00000  0.18019
       9     C     3.19743  3.19743  0.00000 -0.39485
      10     O     4.26427  4.26427  0.00000 -0.52854
      11     C     3.24898  3.24898  0.00000 -0.49796
      12     H     0.39984  0.39984  0.00000  0.20033
      13     H     0.41535  0.41535  0.00000  0.16929
      14     H     0.40590  0.40590  0.00000  0.18821
      15     H     0.41143  0.41143  0.00000  0.17714
      16     H     0.41812  0.41812  0.00000  0.16376

   Total alpha = 24.00000, Total beta = 24.00000, Total charge =  0.00000
