  ==> Input File <==

--------------------------------------------------------------------------
set {
	reference rhf
	basis 6-31G*
}

set_num_threads( 4 )
memory 2 gb

molecule MOL {
0 1

H	 2.240232	 -0.608465	 0.097620
C	 1.732269	 -0.733819	 -0.866259
C	 0.446839	 0.037741	 -1.018912
O	 2.200745	 -1.438610	 -1.700483
C	 -0.558097	 -0.297372	 0.091132
H	 0.037681	 -0.174269	 -1.999790
H	 0.689632	 1.098940	 -0.977211
C	 -1.850991	 0.512573	 -0.019058
H	 -0.792583	 -1.358695	 0.053934
H	 -0.101851	 -0.115928	 1.062613
C	 -3.096943	 -0.368295	 -0.099594
H	 -1.800724	 1.150330	 -0.898172
H	 -1.931651	 1.177355	 0.838044
H	 -3.060452	 -1.020287	 -0.967456
H	 -3.996858	 0.233488	 -0.175704
H	 -3.191959	 -0.995686	 0.782074

	symmetry c1
}
set optking {
	frozen_dihedral = ("
		9 5 8 12
	")
}

ee = optimize('scf')
oeprop('DIPOLE', 'QUADRUPOLE', 'MULLIKEN_CHARGES')
f=open( 'psi4out.xyz', 'w' )
f.write( "16  " )
f.write( str(ee) + "\n" )
f.write( MOL.save_string_xyz() )
f.close()
--------------------------------------------------------------------------

    Molecular point group: c1
  Charge       = 0
  Multiplicity = 1
  Basis Set: 6-31G*
  Basis Set:
  @DF-RHF Final Energy:  -270.01390769099197
    Total Energy =                       -270.0139076909918572
    Molecular point group: c1
  Basis Set: 6-31G*
  Basis Set:
  Basis Set: 6-31G*
  Basis Set:
  @DF-RHF Final Energy:  -270.01407310339687
    Total Energy =                       -270.0140731033969814
  Basis Set: 6-31G*
  Basis Set:
  Basis Set: 6-31G*
  Basis Set:
  @DF-RHF Final Energy:  -270.01148548325625
    Total Energy =                       -270.0114854832560241
  Basis Set: 6-31G*
  Basis Set:
  Basis Set: 6-31G*
  Basis Set:
  @DF-RHF Final Energy:  -270.01420618459849
    Total Energy =                       -270.0142061845983790
  Basis Set: 6-31G*
  Basis Set:
  Basis Set: 6-31G*
  Basis Set:
  @DF-RHF Final Energy:  -270.01422118240123
    Total Energy =                       -270.0142211824010587
  Basis Set: 6-31G*
  Basis Set:
  Basis Set: 6-31G*
  Basis Set:
  @DF-RHF Final Energy:  -270.01416389854973
    Total Energy =                       -270.0141638985493842
  Basis Set: 6-31G*
  Basis Set:
  Basis Set: 6-31G*
  Basis Set:
  @DF-RHF Final Energy:  -270.01422912230680
    Total Energy =                       -270.0142291223068014
  Basis Set: 6-31G*
  Basis Set:
  Charge       = 0
  Multiplicity = 1
  Basis Set: 6-31G*
  Basis Set:

    Orbital Energies (a.u.)
    -----------------------

    Doubly Occupied:

       1A    -20.562534     2A    -11.326301     3A    -11.236352
       4A    -11.235552     5A    -11.228951     6A    -11.218090
       7A     -1.402217     8A     -1.093735     9A     -1.017935
      10A     -0.905584    11A     -0.812625    12A     -0.794262
      13A     -0.674529    14A     -0.649001    15A     -0.623481
      16A     -0.603827    17A     -0.587340    18A     -0.548890
      19A     -0.524163    20A     -0.514117    21A     -0.488118
      22A     -0.477738    23A     -0.473982    24A     -0.408643

  @DF-RHF Final Energy:  -270.01422934129329

   => Energetics <=

    Nuclear Repulsion Energy =            229.3068246815200268
    One-Electron Energy =                -819.8261787102037488
    Two-Electron Energy =                 320.5051246873903779
    DFT Exchange-Correlation Energy =       0.0000000000000000
    Empirical Dispersion Energy =           0.0000000000000000
    PCM Polarization Energy =               0.0000000000000000
    EFP Energy =                            0.0000000000000000
    Total Energy =                       -270.0142293412932872
    Molecular point group: c1
  Basis Set: 6-31G*
  Basis Set:

  -Total Gradient:
     Atom            X                  Y                   Z
    ------   -----------------  -----------------  -----------------
       1        0.000015450378    -0.000016319318    -0.000005013676
       2       -0.000001813624    -0.000016470787    -0.000033526934
       3       -0.000034240806    -0.000022110931     0.000040627931
       4        0.000021340726     0.000017730463     0.000026745335
       5        0.000240524204     0.000252312407    -0.001312547785
       6       -0.000002967210     0.000005394043     0.000000547306
       7        0.000003530292     0.000015643549    -0.000011414312
       8       -0.000604191208    -0.001057017017    -0.000509727314
       9       -0.000106277483    -0.000030054175     0.001161809500
      10       -0.000000324684     0.000000637435     0.000000459681
      11       -0.000003814460     0.000000779870    -0.000001449858
      12        0.000473624400     0.000845884761     0.000642550493
      13       -0.000003193765     0.000003035954     0.000000504900
      14        0.000001069636    -0.000001424190     0.000001623394
      15        0.000001512765     0.000000488838    -0.000001722047
      16       -0.000000229157     0.000001489099     0.000000533387

  **** Optimization is complete! (in 8 steps) ****
    Final optimized geometry and variables:
    Molecular point group: c1

    Geometry (in Angstrom), charge = 0, multiplicity = 1:

    H            2.443255559600    -0.205999860383     0.709245486074
    C            1.937574871706    -0.337080361610    -0.255004571456
    C            0.650410000016     0.429813059158    -0.414201094579
    O            2.408389766785    -1.046880193095    -1.083776109156
    C           -0.361401173210     0.088856725019     0.688316459214
    H            0.246600247751     0.218502624366    -1.397589631539
    H            0.887922392420     1.491993333709    -0.368459006264
    C           -1.671095421708     0.903548855878     0.584358808334
    H           -0.584541605601    -0.973963347118     0.648677267458
    H            0.100076944046     0.256847806054     1.658123957847
    C           -2.923785349730     0.030809023260     0.514643242545
    H           -1.634295741367     1.547523496891    -0.290010902845
    H           -1.751524310120     1.572311324125     1.436293562197
    H           -2.896986744444    -0.622552376834    -0.352679501119
    H           -3.820719471358     0.638201990475     0.446102103235
    H           -3.013773075758    -0.595509966077     1.397431910971

  Mulliken Charges: (a.u.)
   Center  Symbol    Alpha    Beta     Spin     Total
       1     H     0.43221  0.43221  0.00000  0.13558
       2     C     2.83057  2.83057  0.00000  0.33887
       3     C     3.20956  3.20956  0.00000 -0.41911
       4     O     4.23697  4.23697  0.00000 -0.47395
       5     C     3.16849  3.16849  0.00000 -0.33697
       6     H     0.39928  0.39928  0.00000  0.20145
       7     H     0.40940  0.40940  0.00000  0.18120
       8     C     3.15505  3.15505  0.00000 -0.31010
       9     H     0.41012  0.41012  0.00000  0.17975
      10     H     0.41669  0.41669  0.00000  0.16663
      11     C     3.24101  3.24101  0.00000 -0.48202
      12     H     0.41710  0.41710  0.00000  0.16579
      13     H     0.41721  0.41721  0.00000  0.16559
      14     H     0.41894  0.41894  0.00000  0.16212
      15     H     0.41779  0.41779  0.00000  0.16442
      16     H     0.41963  0.41963  0.00000  0.16075

   Total alpha = 24.00000, Total beta = 24.00000, Total charge = -0.00000
