  ==> Input File <==

--------------------------------------------------------------------------
set {
	reference rhf
	basis cc-pvtz
}

set_num_threads( 4 )
memory 2 gb

molecule MOL {
0 1

H	 -1.443332	 3.616892	 1.254913
O	 -1.299788	 2.698788	 1.118771
C	 -0.174641	 2.501419	 0.302005
C	 0.027642	 1.012027	 0.090274
H	 0.712563	 2.916332	 0.773686
H	 -0.303367	 3.009093	 -0.649919
C	 -1.138737	 0.285728	 -0.581921
H	 0.214280	 0.558549	 1.058277
H	 0.931484	 0.878248	 -0.499122
C	 -1.933983	 -0.631436	 0.343653
H	 -0.763151	 -0.285569	 -1.422081
H	 -1.808359	 1.035291	 -0.992333
H	 -2.789188	 -1.049673	 -0.174718
H	 -1.335629	 -1.461368	 0.700418
H	 -2.305435	 -0.092167	 1.209725

	symmetry c1
}
set optking {
	frozen_dihedral = ("
		8 4 7 11
	")
}

ee = optimize('scf')
oeprop('DIPOLE', 'QUADRUPOLE', 'MULLIKEN_CHARGES')
f=open( 'psi4out.xyz', 'w' )
f.write( "15  " )
f.write( str(ee) + "\n" )
f.write( MOL.save_string_xyz() )
f.close()
--------------------------------------------------------------------------

    Molecular point group: c1
  Charge       = 0
  Multiplicity = 1
  Basis Set: CC-PVTZ
  Basis Set:
  @DF-RHF Final Energy:  -232.23395967664709
    Total Energy =                       -232.2339596766470891
    Molecular point group: c1
  Basis Set: CC-PVTZ
  Basis Set:
  Basis Set: CC-PVTZ
  Basis Set:
  @DF-RHF Final Energy:  -232.23439352431842
    Total Energy =                       -232.2343935243184205
  Basis Set: CC-PVTZ
  Basis Set:
  Basis Set: CC-PVTZ
  Basis Set:
  @DF-RHF Final Energy:  -232.23444950197018
    Total Energy =                       -232.2344495019700616
  Basis Set: CC-PVTZ
  Basis Set:
  Basis Set: CC-PVTZ
  Basis Set:
  @DF-RHF Final Energy:  -232.23445256279555
    Total Energy =                       -232.2344525627954113
  Basis Set: CC-PVTZ
  Basis Set:
  Charge       = 0
  Multiplicity = 1
  Basis Set: CC-PVTZ
  Basis Set:

    Orbital Energies (a.u.)
    -----------------------

    Doubly Occupied:

       1A    -20.547361     2A    -11.266359     3A    -11.210541
       4A    -11.208009     5A    -11.197339     6A     -1.365178
       7A     -1.062570     8A     -0.973127     9A     -0.857057
      10A     -0.785491    11A     -0.708849    12A     -0.642047
      13A     -0.602679    14A     -0.593310    15A     -0.547654
      16A     -0.534798    17A     -0.508536    18A     -0.473992
      19A     -0.464434    20A     -0.453287    21A     -0.433679

  @DF-RHF Final Energy:  -232.23445327188796

   => Energetics <=

    Nuclear Repulsion Energy =            191.4928196259967876
    One-Electron Energy =                -694.5819521982002698
    Two-Electron Energy =                 270.8546793003158086
    DFT Exchange-Correlation Energy =       0.0000000000000000
    Empirical Dispersion Energy =           0.0000000000000000
    PCM Polarization Energy =               0.0000000000000000
    EFP Energy =                            0.0000000000000000
    Total Energy =                       -232.2344532718876735
    Molecular point group: c1
  Basis Set: CC-PVTZ
  Basis Set:

  -Total Gradient:
     Atom            X                  Y                   Z
    ------   -----------------  -----------------  -----------------
       1        0.000009667782    -0.000004259171    -0.000013468106
       2        0.000008645302    -0.000020803249     0.000031288558
       3       -0.000039484669     0.000049288093    -0.000015286586
       4        0.001190046375    -0.000940764974    -0.000996670017
       5       -0.000003785054    -0.000022284698    -0.000006400797
       6        0.000031183185    -0.000018936583    -0.000022025892
       7       -0.000009917504    -0.001264201257     0.001273991615
       8       -0.001005604792     0.000992489111     0.000641667078
       9        0.000000473754     0.000014573195    -0.000001864117
      10       -0.000038593613    -0.000049250733     0.000014868445
      11       -0.000196810362     0.001232745065    -0.000919870649
      12        0.000019518225    -0.000003021052     0.000023417802
      13        0.000027128286     0.000008302151     0.000010843091
      14        0.000013541299     0.000010801833    -0.000015801802
      15       -0.000006008213     0.000015322274    -0.000004688623

  **** Optimization is complete! (in 5 steps) ****
    Final optimized geometry and variables:
    Molecular point group: c1

    Geometry (in Angstrom), charge = 0, multiplicity = 1:

    H           -0.542205481137     2.370574044677     0.966432998910
    O           -0.360645679331     1.454965135685     0.863326840853
    C            0.746470746479     1.271995783924     0.019071122567
    C            0.960528078945    -0.213932035495    -0.196063652132
    H            1.637146875197     1.709701314890     0.463151424001
    H            0.578915240106     1.763078296203    -0.937401915914
    C           -0.225149166602    -0.920075746368    -0.882574919988
    H            1.149248569296    -0.663117789408     0.773370923870
    H            1.865792082828    -0.333756475768    -0.781856329263
    C           -1.022886962886    -1.825899128608     0.049938467885
    H            0.135714088016    -1.497566382609    -1.727170204198
    H           -0.892449553825    -0.172937513373    -1.298766635096
    H           -1.854796461240    -2.287207922242    -0.470772653607
    H           -0.400202986828    -2.620959227683     0.447411800655
    H           -1.418243920035    -1.261492273086     0.885456444264

  Mulliken Charges: (a.u.)
   Center  Symbol    Alpha    Beta     Spin     Total
       1     H     0.39629  0.39629  0.00000  0.20743
       2     O     4.19889  4.19889  0.00000 -0.39777
       3     C     2.97353  2.97353  0.00000  0.05295
       4     C     3.09636  3.09636  0.00000 -0.19272
       5     H     0.46507  0.46507  0.00000  0.06987
       6     H     0.47356  0.47356  0.00000  0.05288
       7     C     3.08328  3.08328  0.00000 -0.16656
       8     H     0.45291  0.45291  0.00000  0.09417
       9     H     0.44768  0.44768  0.00000  0.10463
      10     C     3.14748  3.14748  0.00000 -0.29496
      11     H     0.45102  0.45102  0.00000  0.09796
      12     H     0.45574  0.45574  0.00000  0.08853
      13     H     0.45277  0.45277  0.00000  0.09446
      14     H     0.45819  0.45819  0.00000  0.08362
      15     H     0.44724  0.44724  0.00000  0.10552

   Total alpha = 21.00000, Total beta = 21.00000, Total charge = -0.00000
