  ==> Input File <==

--------------------------------------------------------------------------
set {
	reference rhf
	basis 6-31G*
}

set_num_threads( 4 )
memory 2 gb

molecule MOL {
0 1

H	 0.991677	 4.312876	 -1.604731
N	 0.219342	 3.679949	 -1.685024
C	 0.412953	 2.518385	 -0.828980
H	 0.171104	 3.402844	 -2.647166
C	 -0.807362	 1.605117	 -0.879264
H	 0.550944	 2.876766	 0.186589
H	 1.306981	 1.943003	 -1.082057
C	 -0.679275	 0.379305	 0.025956
H	 -1.682322	 2.186323	 -0.602717
H	 -0.965803	 1.279226	 -1.906896
C	 -1.903357	 -0.536963	 -0.023547
H	 -0.517940	 0.704319	 1.052692
H	 0.205052	 -0.190592	 -0.255166
C	 -3.225172	 0.228290	 0.028445
H	 -1.867824	 -1.134999	 -0.931459
H	 -1.860449	 -1.239604	 0.805977
H	 -3.313397	 0.915643	 -0.808262
H	 -4.073500	 -0.448134	 -0.008893
H	 -3.306061	 0.809945	 0.942516

	symmetry c1
}
set optking {
	frozen_dihedral = ("
		12 8 11 15
	")
}

ee = optimize('scf')
oeprop('DIPOLE', 'QUADRUPOLE', 'MULLIKEN_CHARGES')
f=open( 'psi4out.xyz', 'w' )
f.write( "19  " )
f.write( str(ee) + "\n" )
f.write( MOL.save_string_xyz() )
f.close()
--------------------------------------------------------------------------

    Molecular point group: c1
  Charge       = 0
  Multiplicity = 1
  Basis Set: 6-31G*
  Basis Set:
  @DF-RHF Final Energy:  -251.34693575202331
    Total Energy =                       -251.3469357520233416
    Molecular point group: c1
  Basis Set: 6-31G*
  Basis Set:
  Basis Set: 6-31G*
  Basis Set:
  @DF-RHF Final Energy:  -251.34789836324788
    Total Energy =                       -251.3478983632478503
  Basis Set: 6-31G*
  Basis Set:
  Basis Set: 6-31G*
  Basis Set:
  @DF-RHF Final Energy:  -251.34884698167463
    Total Energy =                       -251.3488469816745692
  Basis Set: 6-31G*
  Basis Set:
  Basis Set: 6-31G*
  Basis Set:
  @DF-RHF Final Energy:  -251.34892706714274
    Total Energy =                       -251.3489270671428244
  Basis Set: 6-31G*
  Basis Set:
  Basis Set: 6-31G*
  Basis Set:
  @DF-RHF Final Energy:  -251.34893372032539
    Total Energy =                       -251.3489337203254763
  Basis Set: 6-31G*
  Basis Set:
  Basis Set: 6-31G*
  Basis Set:
  @DF-RHF Final Energy:  -251.34893743974780
    Total Energy =                       -251.3489374397478286
  Basis Set: 6-31G*
  Basis Set:
  Charge       = 0
  Multiplicity = 1
  Basis Set: 6-31G*
  Basis Set:

    Orbital Energies (a.u.)
    -----------------------

    Doubly Occupied:

       1A    -15.532475     2A    -11.239743     3A    -11.214260
       4A    -11.212902     5A    -11.209123     6A    -11.206035
       7A     -1.176603     8A     -1.071705     9A     -0.994559
      10A     -0.904533    11A     -0.824528    12A     -0.774059
      13A     -0.662547    14A     -0.641573    15A     -0.604158
      16A     -0.595656    17A     -0.585075    18A     -0.536277
      19A     -0.523339    20A     -0.505759    21A     -0.487464
      22A     -0.457135    23A     -0.454974    24A     -0.450375
      25A     -0.381156

  @DF-RHF Final Energy:  -251.34893766636230

   => Energetics <=

    Nuclear Repulsion Energy =            249.1916630455864379
    One-Electron Energy =                -832.5891629923312394
    Two-Electron Energy =                 332.0485622803826118
    DFT Exchange-Correlation Energy =       0.0000000000000000
    Empirical Dispersion Energy =           0.0000000000000000
    PCM Polarization Energy =               0.0000000000000000
    EFP Energy =                            0.0000000000000000
    Total Energy =                       -251.3489376663621897
    Molecular point group: c1
  Basis Set: 6-31G*
  Basis Set:

  -Total Gradient:
     Atom            X                  Y                   Z
    ------   -----------------  -----------------  -----------------
       1       -0.000000461531     0.000004684915     0.000002383569
       2       -0.000007186786    -0.000002062087     0.000008415333
       3        0.000012015201    -0.000011856883    -0.000006865569
       4       -0.000000891661    -0.000001824100     0.000001093385
       5       -0.000003139405     0.000000392146    -0.000021088488
       6        0.000003371184    -0.000000550714     0.000000964829
       7        0.000005052808     0.000002769302    -0.000002396077
       8       -0.002491061821     0.003073732163    -0.000293921887
       9       -0.000009431695    -0.000004918914    -0.000008965571
      10        0.000000396179     0.000004802052    -0.000004378455
      11       -0.001995057827     0.002642169750    -0.002183006181
      12        0.002402428412    -0.003019632075     0.000614678055
      13       -0.000013069553    -0.000001971564     0.000001481163
      14       -0.000001384071     0.000018035402     0.000006361700
      15        0.002086633030    -0.002712789940     0.001888921315
      16        0.000016090637     0.000005231076    -0.000003079950
      17       -0.000002170063     0.000009462504    -0.000002082654
      18        0.000005745615    -0.000003238521    -0.000003417904
      19       -0.000007878652    -0.000002434515     0.000004903389

  **** Optimization is complete! (in 7 steps) ****
    Final optimized geometry and variables:
    Molecular point group: c1

    Geometry (in Angstrom), charge = 0, multiplicity = 1:

    H            2.108577436506     2.921772393129    -1.046878270299
    N            1.299759774490     2.334462818135    -1.113474511601
    C            1.444317724176     1.159263871194    -0.266366224488
    H            1.215924276356     2.065513184325    -2.075523837510
    C            0.172100249955     0.318130658037    -0.293649982189
    H            1.623925062257     1.503790171411     0.747635325858
    H            2.298247429076     0.535136657547    -0.540808741635
    C            0.252486496162    -0.903507383272     0.622475714603
    H           -0.659259853479     0.956806643136    -0.016208758996
    H           -0.015906382695    -0.009653197377    -1.316329414095
    C           -0.934784703030    -1.873204079771     0.533039260537
    H            0.383644063807    -0.590032715918     1.656909190684
    H            1.154497956711    -1.463858772146     0.381080799996
    C           -2.316481055027    -1.228666894069     0.640385511038
    H           -0.858961990037    -2.452690600711    -0.384638277421
    H           -0.828682771973    -2.600545659096     1.335067721849
    H           -2.528708853011    -0.579143351228    -0.201922143777
    H           -3.091500026586    -1.988331098552     0.670862852503
    H           -2.401574886014    -0.634337384362     1.546296042984

  Mulliken Charges: (a.u.)
   Center  Symbol    Alpha    Beta     Spin     Total
       1     H     0.33249  0.33249  0.00000  0.33501
       2     N     3.92195  3.92195  0.00000 -0.84389
       3     C     3.05986  3.05986  0.00000 -0.11972
       4     H     0.33541  0.33541  0.00000  0.32918
       5     C     3.15444  3.15444  0.00000 -0.30888
       6     H     0.42083  0.42083  0.00000  0.15834
       7     H     0.43470  0.43470  0.00000  0.13061
       8     C     3.15688  3.15688  0.00000 -0.31375
       9     H     0.41010  0.41010  0.00000  0.17979
      10     H     0.42814  0.42814  0.00000  0.14372
      11     C     3.15139  3.15139  0.00000 -0.30279
      12     H     0.42313  0.42313  0.00000  0.15374
      13     H     0.42377  0.42377  0.00000  0.15245
      14     C     3.24201  3.24201  0.00000 -0.48402
      15     H     0.42340  0.42340  0.00000  0.15319
      16     H     0.42190  0.42190  0.00000  0.15620
      17     H     0.41822  0.41822  0.00000  0.16357
      18     H     0.41978  0.41978  0.00000  0.16043
      19     H     0.42159  0.42159  0.00000  0.15681

   Total alpha = 25.00000, Total beta = 25.00000, Total charge = -0.00000
