                              Psi4 1.0.54 Driver

  ==> Input File <==

--------------------------------------------------------------------------
set {
	reference rhf
	basis cc-pvtz
}

set_num_threads( 4 )
memory 2 gb

molecule MOL {
0 1

H	 2.867672	 -0.456275	 0.875795
C	 2.403497	 -0.020426	 0.000000
N	 0.989899	 -0.304564	 0.000000
H	 2.867672	 -0.456275	 -0.875795
H	 2.620366	 1.051270	 0.000000
C	 0.199528	 0.819417	 -0.457763
C	 0.518806	 -0.769007	 1.288384
H	 0.333078	 1.691902	 0.189290
H	 0.520266	 1.098365	 -1.454780
C	 -1.269651	 0.444185	 -0.488720
H	 1.073809	 -1.655537	 1.572572
H	 0.676372	 -0.015995	 2.066773
C	 -0.958576	 -1.103425	 1.212562
H	 -1.875368	 1.303429	 -0.740580
H	 -1.432645	 -0.325225	 -1.240744
O	 -1.700871	 -0.010210	 0.759767
H	 -1.339436	 -1.362854	 2.190452
H	 -1.105473	 -1.952920	 0.548574

	symmetry c1
}
set optking {
	frozen_dihedral = ("
		6 3 2 5
	")
}

ee,wfn = optimize('scf', return_wfn=True)
oeprop( wfn, 'DIPOLE', 'QUADRUPOLE', 'MULLIKEN_CHARGES')
f=open( 'psi4out.xyz', 'w' )
f.write( "18  " )
f.write( str(ee) + "\n" )
f.write( MOL.save_string_xyz() )
f.close()
--------------------------------------------------------------------------

    Molecular point group: c1
  Charge       = 0
  Multiplicity = 1
  Basis Set: CC-PVTZ
  Basis Set:
  @DF-RHF Final Energy:  -325.14047239894734
    Total Energy =                       -325.1404723989476224
    Molecular point group: c1
  Basis Set: CC-PVTZ
  Basis Set:
  Basis Set: CC-PVTZ
  Basis Set:
  @DF-RHF Final Energy:  -325.14075150789637
    Total Energy =                       -325.1407515078968231
  Basis Set: CC-PVTZ
  Basis Set:
  Basis Set: CC-PVTZ
  Basis Set:
  @DF-RHF Final Energy:  -325.14081867730761
    Total Energy =                       -325.1408186773076068
  Basis Set: CC-PVTZ
  Basis Set:
  Charge       = 0
  Multiplicity = 1
  Basis Set: CC-PVTZ
  Basis Set:

    Orbital Energies (a.u.)
    -----------------------

    Doubly Occupied:

       1A    -20.547056     2A    -15.542824     3A    -11.263762
       4A    -11.263653     5A    -11.242426     6A    -11.242406
       7A    -11.238847     8A     -1.386042     9A     -1.230315
      10A     -1.038536    11A     -0.981106    12A     -0.883196
      13A     -0.870398    14A     -0.774678    15A     -0.684504
      16A     -0.645707    17A     -0.644048    18A     -0.632575
      19A     -0.628372    20A     -0.572890    21A     -0.558681
      22A     -0.544734    23A     -0.527604    24A     -0.500350
      25A     -0.484093    26A     -0.453332    27A     -0.409743
      28A     -0.352613

  @DF-RHF Final Energy:  -325.14081983317033

   => Energetics <=

    Nuclear Repulsion Energy =            341.5266219162504058
    One-Electron Energy =               -1119.0458909530530036
    Two-Electron Energy =                 452.3784492036321581
    DFT Exchange-Correlation Energy =       0.0000000000000000
    Empirical Dispersion Energy =           0.0000000000000000
    PCM Polarization Energy =               0.0000000000000000
    EFP Energy =                            0.0000000000000000
    Total Energy =                       -325.1408198331704398
    Molecular point group: c1
  Basis Set: CC-PVTZ
  Basis Set:

  -Total Gradient:
     Atom            X                  Y                   Z
    ------   -----------------  -----------------  -----------------
       1        0.000036550944     0.000016289749     0.000023153565
       2       -0.000073690738     0.000375866810     0.006023123540
       3        0.000329866382    -0.001300029264    -0.004874192580
       4        0.000004525715    -0.000009928442    -0.000007472152
       5       -0.000032259665    -0.000019109881    -0.003884774270
       6       -0.000175226180     0.000916823802     0.002780933770
       7       -0.000032341473    -0.000006447403    -0.000072699535
       8        0.000006515974     0.000002644932    -0.000002252522
       9        0.000002966916    -0.000015394535     0.000018915403
      10       -0.000019995089     0.000035291945    -0.000032371913
      11        0.000001775626     0.000018440526    -0.000017301393
      12        0.000001253737    -0.000003579236    -0.000007830756
      13        0.000009467723    -0.000026108758     0.000040445426
      14       -0.000036891253     0.000000583528     0.000004574843
      15        0.000000136319     0.000002009521     0.000013765729
      16        0.000015384122    -0.000003308762    -0.000017618357
      17       -0.000035566792    -0.000006674915     0.000011622192
      18       -0.000002472270     0.000022630381    -0.000000020991

  **** Optimization is complete! (in 4 steps) ****
    Final optimized geometry and variables:
    Molecular point group: c1

    Geometry (in Angstrom), charge = 0, multiplicity = 1:

    H            2.890330516870    -0.303990150501     0.499178748080
    C            2.389657333576     0.130835859966    -0.355655003091
    N            0.966736086312    -0.160560760808    -0.331361446068
    H            2.846622617569    -0.279301787787    -1.250271669607
    H            2.589756564218     1.200216594183    -0.362065568089
    C            0.160071538746     0.956669355359    -0.778586383045
    C            0.496955434874    -0.631981797914     0.957072823234
    H            0.280798230927     1.822720550616    -0.121209331811
    H            0.477558116643     1.253114761748    -1.772139721055
    C           -1.303800806476     0.562883338563    -0.819957937374
    H            1.058910288978    -1.513425994929     1.241920649640
    H            0.637667566235     0.119593019363     1.739876647383
    C           -0.974771283538    -0.989402597795     0.872709564267
    H           -1.919045184472     1.416873623418    -1.067316613575
    H           -1.453413735749    -0.201730261066    -1.579659476548
    O           -1.734560954816     0.092650392144     0.422551782820
    H           -1.355147617079    -1.261188822761     1.847624524581
    H           -1.103246651425    -1.837770582875     0.203321518872

  Mulliken Charges: (a.u.)
   Center  Symbol    Alpha    Beta     Spin     Total
       1     H     0.45620  0.45620  0.00000  0.08759
       2     C     3.09147  3.09147  0.00000 -0.18294
       3     N     3.61986  3.61986  0.00000 -0.23973
       4     H     0.44925  0.44925  0.00000  0.10150
       5     H     0.46369  0.46369  0.00000  0.07263
       6     C     3.04252  3.04252  0.00000 -0.08504
       7     C     3.04083  3.04083  0.00000 -0.08166
       8     H     0.46820  0.46820  0.00000  0.06361
       9     H     0.45360  0.45360  0.00000  0.09280
      10     C     2.98440  2.98440  0.00000  0.03119
      11     H     0.45390  0.45390  0.00000  0.09219
      12     H     0.46883  0.46883  0.00000  0.06234
      13     C     2.98454  2.98454  0.00000  0.03092
      14     H     0.45009  0.45009  0.00000  0.09982
      15     H     0.46801  0.46801  0.00000  0.06397
      16     O     4.18644  4.18644  0.00000 -0.37289
      17     H     0.45000  0.45000  0.00000  0.10000
      18     H     0.46815  0.46815  0.00000  0.06370

   Total alpha = 28.00000, Total beta = 28.00000, Total charge =  0.00000

*** Psi4 exiting successfully. Buy a developer a beer!
