  ==> Input File <==

--------------------------------------------------------------------------
set {
	reference rhf
	basis 6-31G*
}

set_num_threads( 4 )
memory 2 gb

molecule MOL {
0 1

O	 0.077954	 1.257181	 0.113357
C	 0.028650	 0.075053	 -0.000277
C	 -1.233602	 -0.752807	 0.000328
O	 1.104454	 -0.687547	 -0.145148
C	 -2.501530	 0.091881	 0.000126
H	 -1.193807	 -1.406641	 -0.865785
H	 -1.193516	 -1.405779	 0.867015
H	 -2.545121	 0.729328	 -0.874513
H	 -3.377167	 -0.548497	 0.000561
H	 -2.544818	 0.730135	 0.874258
C	 2.359562	 -0.031777	 -0.161209
H	 2.411168	 0.669413	 -0.981625
H	 3.096990	 -0.809169	 -0.286612
H	 2.524829	 0.495116	 0.767522

	symmetry c1
}
set optking {
	frozen_dihedral = ("
		4 2 3 6
	")
}

ee = optimize('scf')
oeprop('DIPOLE', 'QUADRUPOLE', 'MULLIKEN_CHARGES')
f=open( 'psi4out.xyz', 'w' )
f.write( "14  " )
f.write( str(ee) + "\n" )
f.write( MOL.save_string_xyz() )
f.close()
--------------------------------------------------------------------------

    Molecular point group: c1
  Charge       = 0
  Multiplicity = 1
  Basis Set: 6-31G*
  Basis Set:
  @DF-RHF Final Energy:  -305.87214770312937
    Total Energy =                       -305.8721477031296558
    Molecular point group: c1
  Basis Set: 6-31G*
  Basis Set:
  Basis Set: 6-31G*
  Basis Set:
  @DF-RHF Final Energy:  -305.87214766778339
    Total Energy =                       -305.8721476677833380
  Basis Set: 6-31G*
  Basis Set:
  Basis Set: 6-31G*
  Basis Set:
  @DF-RHF Final Energy:  -305.87212523992696
    Total Energy =                       -305.8721252399270725
  Basis Set: 6-31G*
  Basis Set:
  Basis Set: 6-31G*
  Basis Set:
  @DF-RHF Final Energy:  -305.87216313827639
    Total Energy =                       -305.8721631382767328
  Basis Set: 6-31G*
  Basis Set:
  Charge       = 0
  Multiplicity = 1
  Basis Set: 6-31G*
  Basis Set:

    Orbital Energies (a.u.)
    -----------------------

    Doubly Occupied:

       1A    -20.604628     2A    -20.546266     3A    -11.372934
       4A    -11.281501     5A    -11.238737     6A    -11.216791
       7A     -1.470266     8A     -1.363741     9A     -1.064460
      10A     -0.980357    11A     -0.878446    12A     -0.768985
      13A     -0.700752    14A     -0.682865    15A     -0.671754
      16A     -0.621138    17A     -0.602593    18A     -0.544454
      19A     -0.537473    20A     -0.522025    21A     -0.514256
      22A     -0.496264    23A     -0.457348    24A     -0.439324

  @DF-RHF Final Energy:  -305.87216329712771

   => Energetics <=

    Nuclear Repulsion Energy =            247.1340684614791883
    One-Electron Energy =                -906.8577461147137910
    Two-Electron Energy =                 353.8515143561070317
    DFT Exchange-Correlation Energy =       0.0000000000000000
    Empirical Dispersion Energy =           0.0000000000000000
    PCM Polarization Energy =               0.0000000000000000
    EFP Energy =                            0.0000000000000000
    Total Energy =                       -305.8721632971275994
    Molecular point group: c1
  Basis Set: 6-31G*
  Basis Set:

  -Total Gradient:
     Atom            X                  Y                   Z
    ------   -----------------  -----------------  -----------------
       1       -0.000001124430    -0.000003990679    -0.000008986350
       2        0.000057274030    -0.000081901517     0.000423038503
       3       -0.000198023771     0.000304706809    -0.000305818181
       4       -0.000021416423     0.000025751124    -0.000313308664
       5        0.000002606368    -0.000000263793    -0.000010427573
       6        0.000158466009    -0.000234515017     0.000188514805
       7        0.000000170282    -0.000006287304     0.000002754390
       8       -0.000001461040     0.000001210284     0.000000739450
       9        0.000000630395    -0.000000667300    -0.000001473500
      10        0.000002888141    -0.000002382907     0.000000748774
      11        0.000001132854    -0.000004546300     0.000050299145
      12       -0.000011458907     0.000000109945    -0.000008464846
      13       -0.000000413390     0.000000755820    -0.000007966279
      14        0.000010729884     0.000002020837    -0.000009649672

  **** Optimization is complete! (in 5 steps) ****
    Final optimized geometry and variables:
    Molecular point group: c1

    Geometry (in Angstrom), charge = 0, multiplicity = 1:

    O            0.078438513165     1.255831882821     0.140547801772
    C            0.029514509126     0.073746990697     0.026150342807
    C           -1.232609103619    -0.754331855778     0.029964203848
    O            1.105770767423    -0.688743323174    -0.115839631338
    C           -2.500783549849     0.089887255963     0.042015595271
    H           -1.198491487366    -1.413455467677    -0.831397848394
    H           -1.185611396680    -1.402864823761     0.900596182604
    H           -2.556507375745     0.722949949015    -0.835597503904
    H           -3.376079198795    -0.550682017526     0.056204325204
    H           -2.532217738757     0.732308954905     0.913168667753
    C            2.361422677802    -0.033887070490    -0.117845403955
    H            2.420113850726     0.671856635400    -0.933870881436
    H            3.099337010494    -0.811085647998    -0.241631565042
    H            2.519582949274     0.487688228583     0.815138275587

  Mulliken Charges: (a.u.)
   Center  Symbol    Alpha    Beta     Spin     Total
       1     O     4.28527  4.28527  0.00000 -0.57053
       2     C     2.60814  2.60814  0.00000  0.78372
       3     C     3.20527  3.20527  0.00000 -0.41054
       4     O     4.30592  4.30592  0.00000 -0.61183
       5     C     3.23913  3.23913  0.00000 -0.47826
       6     H     0.40030  0.40030  0.00000  0.19940
       7     H     0.40005  0.40005  0.00000  0.19990
       8     H     0.41121  0.41121  0.00000  0.17759
       9     H     0.41781  0.41781  0.00000  0.16438
      10     H     0.40835  0.40835  0.00000  0.18329
      11     C     3.09237  3.09237  0.00000 -0.18473
      12     H     0.40876  0.40876  0.00000  0.18248
      13     H     0.40837  0.40837  0.00000  0.18325
      14     H     0.40906  0.40906  0.00000  0.18188

   Total alpha = 24.00000, Total beta = 24.00000, Total charge = -0.00000
