  ==> Input File <==

--------------------------------------------------------------------------
set {
	reference rhf
	basis cc-pvtz
}

set_num_threads( 4 )
memory 2 gb

molecule MOL {
0 1

H	 -2.140266	 -1.147168	 0.403445
O	 -2.346257	 -0.289210	 0.080372
C	 -1.183935	 0.486039	 -0.009831
C	 0.062853	 -0.375310	 0.027457
H	 -1.178881	 1.094526	 -0.908634
H	 -1.184406	 1.155156	 0.838676
O	 1.172093	 0.457955	 -0.054438
H	 0.052476	 -1.081302	 -0.804627
H	 0.076323	 -0.955658	 0.947560
C	 2.395478	 -0.199028	 -0.000366
H	 2.505946	 -0.901710	 -0.823354
H	 3.174616	 0.545641	 -0.071768
H	 2.513730	 -0.742241	 0.934223

	symmetry c1
}
set optking {
	frozen_dihedral = ("
		1 2 3 5
	")
}

ee = optimize('scf')
oeprop('DIPOLE', 'QUADRUPOLE', 'MULLIKEN_CHARGES')
f=open( 'psi4out.xyz', 'w' )
f.write( "13  " )
f.write( str(ee) + "\n" )
f.write( MOL.save_string_xyz() )
f.close()
--------------------------------------------------------------------------

    Molecular point group: c1
  Charge       = 0
  Multiplicity = 1
  Basis Set: CC-PVTZ
  Basis Set:
  @DF-RHF Final Energy:  -268.05839368430202
    Total Energy =                       -268.0583936843020183
    Molecular point group: c1
  Basis Set: CC-PVTZ
  Basis Set:
  Basis Set: CC-PVTZ
  Basis Set:
  @DF-RHF Final Energy:  -268.05930274491993
    Total Energy =                       -268.0593027449197621
  Basis Set: CC-PVTZ
  Basis Set:
  Basis Set: CC-PVTZ
  Basis Set:
  @DF-RHF Final Energy:  -268.05948232522320
    Total Energy =                       -268.0594823252230299
  Basis Set: CC-PVTZ
  Basis Set:
  Basis Set: CC-PVTZ
  Basis Set:
  @DF-RHF Final Energy:  -268.05948467184430
    Total Energy =                       -268.0594846718441886
  Basis Set: CC-PVTZ
  Basis Set:
  Charge       = 0
  Multiplicity = 1
  Basis Set: CC-PVTZ
  Basis Set:

    Orbital Energies (a.u.)
    -----------------------

    Doubly Occupied:

       1A    -20.560953     2A    -20.550914     3A    -11.277436
       4A    -11.271437     5A    -11.267186     6A     -1.397062
       7A     -1.367643     8A     -1.022660     9A     -0.916381
      10A     -0.851561    11A     -0.699620    12A     -0.686979
      13A     -0.671792    14A     -0.628894    15A     -0.608360
      16A     -0.580664    17A     -0.546472    18A     -0.499687
      19A     -0.473608    20A     -0.443859    21A     -0.429607

  @DF-RHF Final Energy:  -268.05948485818715

   => Energetics <=

    Nuclear Repulsion Energy =            190.7056676011852403
    One-Electron Energy =                -744.0247511814566224
    Two-Electron Energy =                 285.2595987220840357
    DFT Exchange-Correlation Energy =       0.0000000000000000
    Empirical Dispersion Energy =           0.0000000000000000
    PCM Polarization Energy =               0.0000000000000000
    EFP Energy =                            0.0000000000000000
    Total Energy =                       -268.0594848581873180
    Molecular point group: c1
  Basis Set: CC-PVTZ
  Basis Set:

  -Total Gradient:
     Atom            X                  Y                   Z
    ------   -----------------  -----------------  -----------------
       1        0.000401677890    -0.000765712134    -0.002026241643
       2       -0.000299186842     0.000587609803     0.002320027828
       3       -0.001017430656     0.001611772388     0.000565064766
       4       -0.000006500817    -0.000001071191    -0.000005404901
       5        0.000908398692    -0.001417355064    -0.000848085736
       6        0.000008775066    -0.000016681922    -0.000007558058
       7        0.000015833275     0.000012000067    -0.000003372744
       8        0.000000658723    -0.000006759315     0.000003344725
       9        0.000000902712     0.000003423449    -0.000004811995
      10       -0.000011956080    -0.000010291296     0.000013818352
      11        0.000000585197     0.000002021113    -0.000003526981
      12       -0.000008923378     0.000003787994    -0.000003951585
      13        0.000007166217    -0.000002743893     0.000000697972

  **** Optimization is complete! (in 5 steps) ****
    Final optimized geometry and variables:
    Molecular point group: c1

    Geometry (in Angstrom), charge = 0, multiplicity = 1:

    H           -2.184396906682    -1.135309578566     0.390365951416
    O           -2.357924449805    -0.283489293415     0.034913255990
    C           -1.187683601276     0.487237518811    -0.019573256212
    C            0.062245828108    -0.369312093010     0.020884695058
    H           -1.197070441434     1.040457390769    -0.948995365587
    H           -1.162911733719     1.196203163874     0.800174672736
    O            1.168606230849     0.465469341118    -0.037520091389
    H            0.057386240775    -1.065866440358    -0.817087274686
    H            0.077645495276    -0.959058797184     0.940017867909
    C            2.393398354244    -0.192478029016    -0.023383757064
    H            2.494567886427    -0.861321472224    -0.874790936971
    H            3.170149898981     0.556010149437    -0.073602715722
    H            2.522583345623    -0.771584758062     0.888101482090

  Mulliken Charges: (a.u.)
   Center  Symbol    Alpha    Beta     Spin     Total
       1     H     0.39387  0.39387  0.00000  0.21227
       2     O     4.20346  4.20346  0.00000 -0.40693
       3     C     2.95236  2.95236  0.00000  0.09528
       4     C     2.97734  2.97734  0.00000  0.04532
       5     H     0.46234  0.46234  0.00000  0.07532
       6     H     0.46918  0.46918  0.00000  0.06164
       7     O     4.17181  4.17181  0.00000 -0.34361
       8     H     0.47039  0.47039  0.00000  0.05921
       9     H     0.48063  0.48063  0.00000  0.03874
      10     C     3.03336  3.03336  0.00000 -0.06672
      11     H     0.46994  0.46994  0.00000  0.06012
      12     H     0.44471  0.44471  0.00000  0.11059
      13     H     0.47062  0.47062  0.00000  0.05876

   Total alpha = 21.00000, Total beta = 21.00000, Total charge = -0.00000
