                              Psi4 1.0.54 Driver

  ==> Input File <==

--------------------------------------------------------------------------
set {
	reference rhf
	basis cc-pvtz
}

set_num_threads( 4 )
memory 2 gb

molecule MOL {
0 1

O	 -2.071633	 -1.227563	 -0.223463
C	 -1.652164	 -0.152425	 0.058082
C	 -0.327811	 0.006324	 0.778296
C	 -2.402515	 1.108629	 -0.298924
C	 0.308781	 -1.357880	 1.070054
H	 0.351792	 0.610116	 0.186096
H	 -0.521106	 0.524100	 1.709092
C	 1.637226	 -1.241550	 1.811628
H	 0.465213	 -1.897432	 0.139406
H	 -0.387191	 -1.947301	 1.657055
C	 2.267902	 -2.596292	 2.115079
H	 2.328136	 -0.645265	 1.222043
H	 1.480831	 -0.699782	 2.739835
H	 2.468871	 -3.148293	 1.202971
H	 1.612752	 -3.203291	 2.730465
H	 3.206239	 -2.480653	 2.644752
H	 -3.240910	 0.874416	 -0.936711
H	 -1.747554	 1.818823	 -0.790984
H	 -2.760419	 1.579708	 0.610998

	symmetry c1
}
set optking {
	frozen_dihedral = ("
		5 3 2 4
	")
}

ee,wfn = optimize('scf', return_wfn=True)
oeprop( wfn, 'DIPOLE', 'QUADRUPOLE', 'MULLIKEN_CHARGES')
f=open( 'psi4out.xyz', 'w' )
f.write( "19  " )
f.write( str(ee) + "\n" )
f.write( MOL.save_string_xyz() )
f.close()
--------------------------------------------------------------------------

    Molecular point group: c1
  Charge       = 0
  Multiplicity = 1
  Basis Set: CC-PVTZ
  Basis Set:
  @DF-RHF Final Energy:  -309.17784975353658
    Total Energy =                       -309.1778497535365204
    Molecular point group: c1
  Basis Set: CC-PVTZ
  Basis Set:
  Basis Set: CC-PVTZ
  Basis Set:
  @DF-RHF Final Energy:  -309.15310545342987
    Total Energy =                       -309.1531054534300438
  Basis Set: CC-PVTZ
  Basis Set:
  Basis Set: CC-PVTZ
  Basis Set:
  @DF-RHF Final Energy:  -309.17815520884204
    Total Energy =                       -309.1781552088420426
  Basis Set: CC-PVTZ
  Basis Set:
  Basis Set: CC-PVTZ
  Basis Set:
  @DF-RHF Final Energy:  -309.17791519309003
    Total Energy =                       -309.1779151930900866
  Basis Set: CC-PVTZ
  Basis Set:
  @DF-RHF Final Energy:  -309.17893758057869
    Total Energy =                       -309.1789375805788040
  @DF-RHF Final Energy:  -309.17904449063218
    Total Energy =                       -309.1790444906320090
  @DF-RHF Final Energy:  -309.17905161888706
    Total Energy =                       -309.1790516188867741
  Basis Set: CC-PVTZ
  Basis Set:
  @DF-RHF Final Energy:  -309.17905046573406
    Total Energy =                       -309.1790504657341216
  Basis Set: CC-PVTZ
  Basis Set:
  Basis Set: CC-PVTZ
  Basis Set:
  @DF-RHF Final Energy:  -309.17906281910018
    Total Energy =                       -309.1790628191000678
  Basis Set: CC-PVTZ
  Basis Set:
  Basis Set: CC-PVTZ
  Basis Set:
  @DF-RHF Final Energy:  -309.17906675557992
    Total Energy =                       -309.1790667555800951
  Basis Set: CC-PVTZ
  Basis Set:
  Charge       = 0
  Multiplicity = 1
  Basis Set: CC-PVTZ
  Basis Set:

    Orbital Energies (a.u.)
    -----------------------

    Doubly Occupied:

       1A    -20.539164     2A    -11.320819     3A    -11.230529
       4A    -11.226800     5A    -11.217766     6A    -11.215302
       7A    -11.208235     8A     -1.399240     9A     -1.087279
      10A     -1.030839    11A     -0.984522    12A     -0.887088
      13A     -0.801915    14A     -0.732058    15A     -0.657656
      16A     -0.653792    17A     -0.628616    18A     -0.612783
      19A     -0.582346    20A     -0.569939    21A     -0.555770
      22A     -0.530474    23A     -0.512064    24A     -0.490432
      25A     -0.477958    26A     -0.474243    27A     -0.469170
      28A     -0.402709

  @DF-RHF Final Energy:  -309.17906734597807

   => Energetics <=

    Nuclear Repulsion Energy =            301.3657664276828427
    One-Electron Energy =               -1016.0906478648621487
    Two-Electron Energy =                 405.5458140912010094
    DFT Exchange-Correlation Energy =       0.0000000000000000
    Empirical Dispersion Energy =           0.0000000000000000
    PCM Polarization Energy =               0.0000000000000000
    EFP Energy =                            0.0000000000000000
    Total Energy =                       -309.1790673459782965
    Molecular point group: c1
  Basis Set: CC-PVTZ
  Basis Set:

  -Total Gradient:
     Atom            X                  Y                   Z
    ------   -----------------  -----------------  -----------------
       1        0.000029833849     0.000017643629     0.000000678949
       2       -0.000072739428    -0.000053891465     0.000002187124
       3        0.000049774173     0.000016009031     0.000009416236
       4        0.000002092421     0.000028168675    -0.000007562286
       5        0.000010685584     0.000017167838    -0.000014151214
       6       -0.000001590379    -0.000001595025    -0.000007512942
       7       -0.000003779152    -0.000005421325    -0.000000072223
       8       -0.000010637495    -0.000009160777     0.000019647921
       9       -0.000006243436    -0.000006645784    -0.000008027897
      10        0.000004021184     0.000000204216     0.000006070468
      11       -0.000005150274     0.000003131186    -0.000005537347
      12       -0.000007478289     0.000006704518    -0.000002476452
      13        0.000003679312     0.000006063515     0.000006628148
      14       -0.000000663916    -0.000006300545    -0.000002167370
      15        0.000001254766    -0.000003338873     0.000005056131
      16        0.000003043321    -0.000000897672    -0.000003017996
      17        0.000020797475     0.000016124562     0.000003269890
      18       -0.000014561395    -0.000008508927     0.000016510296
      19       -0.000002338319    -0.000015456776    -0.000018939436

  **** Optimization is complete! (in 11 steps) ****
    Final optimized geometry and variables:
    Molecular point group: c1

    Geometry (in Angstrom), charge = 0, multiplicity = 1:

    O           -2.052327864866    -0.270709085501    -0.501882693593
    C           -1.418780503979     0.730474162382    -0.423794672766
    C            0.049491253851     0.733293256090    -0.048804542580
    C           -2.041753585329     2.081056448944    -0.696211357338
    C            0.634901798188    -0.646287101218     0.216457904244
    H            0.590573516063     1.234371528245    -0.848308626402
    H            0.163655089929     1.374438747348     0.822362038715
    C            2.113540803405    -0.595345741664     0.590520317430
    H            0.499546548170    -1.265960885258    -0.662849897722
    H            0.071851416680    -1.125970261615     1.009147093771
    C            2.705162907447    -1.975389073503     0.856485158616
    H            2.672739125653    -0.112525354737    -0.206818402884
    H            2.243305876208     0.026992517838     1.472244751653
    H            2.621809506515    -2.611150485296    -0.018416033212
    H            2.190146958336    -2.470277487485     1.672841136833
    H            3.754724349684    -1.908644940073     1.118802327814
    H           -3.082990539165     1.959469321108    -0.952022135753
    H           -1.521496567824     2.575539215361    -1.509092781098
    H           -1.952376557258     2.716986047092     0.177606844823

  Mulliken Charges: (a.u.)
   Center  Symbol    Alpha    Beta     Spin     Total
       1     O     4.17047  4.17047  0.00000 -0.34094
       2     C     2.86257  2.86257  0.00000  0.27486
       3     C     3.11177  3.11177  0.00000 -0.22355
       4     C     3.15123  3.15123  0.00000 -0.30247
       5     C     3.08029  3.08029  0.00000 -0.16058
       6     H     0.44571  0.44571  0.00000  0.10859
       7     H     0.44570  0.44570  0.00000  0.10859
       8     C     3.08517  3.08517  0.00000 -0.17034
       9     H     0.44662  0.44662  0.00000  0.10677
      10     H     0.44661  0.44661  0.00000  0.10678
      11     C     3.14960  3.14960  0.00000 -0.29920
      12     H     0.45593  0.45593  0.00000  0.08814
      13     H     0.45591  0.45591  0.00000  0.08817
      14     H     0.45381  0.45381  0.00000  0.09238
      15     H     0.45380  0.45380  0.00000  0.09239
      16     H     0.44871  0.44871  0.00000  0.10258
      17     H     0.43538  0.43538  0.00000  0.12924
      18     H     0.45035  0.45035  0.00000  0.09930
      19     H     0.45035  0.45035  0.00000  0.09929

   Total alpha = 28.00000, Total beta = 28.00000, Total charge =  0.00000

*** Psi4 exiting successfully. Buy a developer a beer!
