                              Psi4 1.0.54 Driver

  ==> Input File <==

--------------------------------------------------------------------------
set {
	reference rhf
	basis cc-pvtz
}

set_num_threads( 4 )
memory 2 gb

molecule MOL {
0 1

H	 -3.144994	 -1.202467	 -0.018751
O	 -2.321472	 -0.864941	 -0.318626
C	 -2.021813	 0.336996	 0.342658
C	 -0.669613	 0.837286	 -0.127252
H	 -2.780861	 1.084746	 0.127159
H	 -2.006390	 0.184138	 1.420053
C	 0.490865	 -0.082543	 0.241244
H	 -0.708709	 0.967192	 -1.204587
H	 -0.507562	 1.822272	 0.303070
C	 1.724215	 0.675829	 0.723249
H	 0.751110	 -0.689660	 -0.618254
H	 0.167699	 -0.771427	 1.019142
C	 2.881861	 -0.243069	 1.099104
H	 2.048416	 1.362441	 -0.054029
H	 1.459701	 1.289924	 1.580342
H	 3.192785	 -0.845437	 0.252112
H	 3.742122	 0.324779	 1.434969
H	 2.600316	 -0.920433	 1.898701

	symmetry c1
}
set optking {
	frozen_dihedral = ("
		10 7 4 8
	")
}

ee,wfn = optimize('scf', return_wfn=True)
oeprop( wfn, 'DIPOLE', 'QUADRUPOLE', 'MULLIKEN_CHARGES')
f=open( 'psi4out.xyz', 'w' )
f.write( "18  " )
f.write( str(ee) + "\n" )
f.write( MOL.save_string_xyz() )
f.close()
--------------------------------------------------------------------------

    Molecular point group: c1
  Charge       = 0
  Multiplicity = 1
  Basis Set: CC-PVTZ
  Basis Set:
  @DF-RHF Final Energy:  -271.28273334263599
    Total Energy =                       -271.2827333426358791
    Molecular point group: c1
  Basis Set: CC-PVTZ
  Basis Set:
  Basis Set: CC-PVTZ
  Basis Set:
  @DF-RHF Final Energy:  -271.28295140600369
    Total Energy =                       -271.2829514060038036
  Basis Set: CC-PVTZ
  Basis Set:
  Basis Set: CC-PVTZ
  Basis Set:
  @DF-RHF Final Energy:  -271.28303964438152
    Total Energy =                       -271.2830396443814607
  Basis Set: CC-PVTZ
  Basis Set:
  Basis Set: CC-PVTZ
  Basis Set:
  @DF-RHF Final Energy:  -271.28304119270172
    Total Energy =                       -271.2830411927017167
  Basis Set: CC-PVTZ
  Basis Set:
  Charge       = 0
  Multiplicity = 1
  Basis Set: CC-PVTZ
  Basis Set:

    Orbital Energies (a.u.)
    -----------------------

    Doubly Occupied:

       1A    -20.546045     2A    -11.265695     3A    -11.210219
       4A    -11.210174     5A    -11.205606     6A    -11.203240
       7A     -1.364046     8A     -1.075437     9A     -1.010100
      10A     -0.914140    11A     -0.820302    12A     -0.784623
      13A     -0.705775    14A     -0.651285    15A     -0.620858
      16A     -0.578211    17A     -0.574685    18A     -0.559591
      19A     -0.524152    20A     -0.507746    21A     -0.485379
      22A     -0.468235    23A     -0.458100    24A     -0.449334
      25A     -0.431269

  @DF-RHF Final Energy:  -271.28304142331615

   => Energetics <=

    Nuclear Repulsion Energy =            249.3826560847029441
    One-Electron Energy =                -862.0829026494305936
    Two-Electron Energy =                 341.4172051414113298
    DFT Exchange-Correlation Energy =       0.0000000000000000
    Empirical Dispersion Energy =           0.0000000000000000
    PCM Polarization Energy =               0.0000000000000000
    EFP Energy =                            0.0000000000000000
    Total Energy =                       -271.2830414233163197
    Molecular point group: c1
  Basis Set: CC-PVTZ
  Basis Set:

  -Total Gradient:
     Atom            X                  Y                   Z
    ------   -----------------  -----------------  -----------------
       1        0.000001265621     0.000006093512     0.000000150730
       2        0.000002034005    -0.000037800332    -0.000028711761
       3       -0.000013256030     0.000048735557     0.000031468075
       4        0.002194837840     0.003226364493     0.001160120537
       5        0.000003980248    -0.000006701742     0.000003188539
       6        0.000012925796     0.000007879972    -0.000016677511
       7        0.000654718607    -0.000507502824    -0.003219099289
       8       -0.002040892300    -0.002634415250    -0.000204888398
       9        0.000000483369    -0.000008558419    -0.000000413842
      10       -0.000820770071    -0.000091568343     0.002267727586
      11        0.000001802337     0.000008693869    -0.000000829478
      12        0.000004718828     0.000000932067     0.000004724770
      13        0.000009118685    -0.000005051334     0.000005805220
      14       -0.000006240146    -0.000006221304     0.000002227001
      15       -0.000007327691    -0.000003079738    -0.000008511512
      16       -0.000002157288     0.000004570713     0.000005300381
      17        0.000003610304    -0.000003417998     0.000002052413
      18        0.000001147890     0.000001047100    -0.000003633461

  **** Optimization is complete! (in 5 steps) ****
    Final optimized geometry and variables:
    Molecular point group: c1

    Geometry (in Angstrom), charge = 0, multiplicity = 1:

    H           -3.072565475544    -1.313462968511    -0.340247879769
    O           -2.254153651509    -0.959367085599    -0.634801898621
    C           -1.998607088901     0.265568930277     0.001715435157
    C           -0.641992209158     0.773924773168    -0.446330376063
    H           -2.765826550939     0.992311400535    -0.254206176784
    H           -2.008645309005     0.141310049233     1.082923235228
    C            0.520286292188    -0.156607063730    -0.063292102066
    H           -0.685187339790     0.892909870504    -1.523602211969
    H           -0.496101866401     1.759214637834    -0.014686830528
    C            1.763938298771     0.592575133340     0.409107001637
    H            0.771732907708    -0.795787777198    -0.901525224400
    H            0.199163120559    -0.824843021589     0.730545228197
    C            2.924548178855    -0.332843748423     0.757154702231
    H            2.080558866336     1.292703349402    -0.360154525410
    H            1.507805680707     1.192948029027     1.278059671504
    H            3.229883325537    -0.917605890407    -0.104076592590
    H            3.787049761130     0.228197591818     1.098701706771
    H            2.648385569962    -1.027000496851     1.544120234837

  Mulliken Charges: (a.u.)
   Center  Symbol    Alpha    Beta     Spin     Total
       1     H     0.39610  0.39610  0.00000  0.20781
       2     O     4.19938  4.19938  0.00000 -0.39876
       3     C     2.97209  2.97209  0.00000  0.05582
       4     C     3.09492  3.09492  0.00000 -0.18985
       5     H     0.46568  0.46568  0.00000  0.06864
       6     H     0.47482  0.47482  0.00000  0.05036
       7     C     3.08492  3.08492  0.00000 -0.16984
       8     H     0.45030  0.45030  0.00000  0.09940
       9     H     0.45390  0.45390  0.00000  0.09220
      10     C     3.08493  3.08493  0.00000 -0.16985
      11     H     0.44751  0.44751  0.00000  0.10499
      12     H     0.45452  0.45452  0.00000  0.09095
      13     C     3.14975  3.14975  0.00000 -0.29949
      14     H     0.45468  0.45468  0.00000  0.09064
      15     H     0.45697  0.45697  0.00000  0.08606
      16     H     0.45459  0.45459  0.00000  0.09082
      17     H     0.44947  0.44947  0.00000  0.10106
      18     H     0.45547  0.45547  0.00000  0.08906

   Total alpha = 25.00000, Total beta = 25.00000, Total charge =  0.00000

*** Psi4 exiting successfully. Buy a developer a beer!
