  ==> Input File <==

--------------------------------------------------------------------------
set {
	reference rhf
	basis 6-31G*
}

set_num_threads( 4 )
memory 2 gb

molecule MOL {
0 1

H	 3.619048	 0.562362	 0.800323
O	 2.710413	 0.405765	 1.038263
C	 2.077727	 -0.067559	 -0.035091
C	 0.624473	 -0.343591	 0.253101
O	 2.632341	 -0.235250	 -1.072057
C	 -0.265902	 0.883932	 0.072916
H	 0.324016	 -1.163849	 -0.390541
H	 0.565024	 -0.726111	 1.268924
C	 -1.728698	 0.646073	 0.462102
H	 -0.209144	 1.219470	 -0.958188
H	 0.135059	 1.692851	 0.673903
C	 -2.482460	 -0.343073	 -0.431425
H	 -2.245265	 1.602650	 0.432430
H	 -1.779332	 0.308348	 1.496285
C	 -3.960546	 -0.461025	 -0.060175
H	 -2.395034	 -0.026811	 -1.468912
H	 -2.024850	 -1.327147	 -0.371646
H	 -4.472726	 -1.168004	 -0.705284
H	 -4.465146	 0.496508	 -0.151489
H	 -4.081218	 -0.800940	 0.964585

	symmetry c1
}
set optking {
	frozen_dihedral = ("
		5 3 4 7
	")
}

ee = optimize('scf')
oeprop('DIPOLE', 'QUADRUPOLE', 'MULLIKEN_CHARGES')
f=open( 'psi4out.xyz', 'w' )
f.write( "20  " )
f.write( str(ee) + "\n" )
f.write( MOL.save_string_xyz() )
f.close()
--------------------------------------------------------------------------

    Molecular point group: c1
  Charge       = 0
  Multiplicity = 1
  Basis Set: 6-31G*
  Basis Set:
  @DF-RHF Final Energy:  -383.94655269082801
    Total Energy =                       -383.9465526908281845
    Molecular point group: c1
  Basis Set: 6-31G*
  Basis Set:
  Basis Set: 6-31G*
  Basis Set:
  @DF-RHF Final Energy:  -383.94613188076306
    Total Energy =                       -383.9461318807632324
  Basis Set: 6-31G*
  Basis Set:
  Basis Set: 6-31G*
  Basis Set:
  @DF-RHF Final Energy:  -383.94706918974066
    Total Energy =                       -383.9470691897406027
  Basis Set: 6-31G*
  Basis Set:
  Basis Set: 6-31G*
  Basis Set:
  @DF-RHF Final Energy:  -383.94723661015405
    Total Energy =                       -383.9472366101539365
  Basis Set: 6-31G*
  Basis Set:
  Basis Set: 6-31G*
  Basis Set:
  @DF-RHF Final Energy:  -383.94719959617265
    Total Energy =                       -383.9471995961728226
  Basis Set: 6-31G*
  Basis Set:
  Basis Set: 6-31G*
  Basis Set:
  @DF-RHF Final Energy:  -383.94724133870261
    Total Energy =                       -383.9472413387030656
  Basis Set: 6-31G*
  Basis Set:
  Charge       = 0
  Multiplicity = 1
  Basis Set: 6-31G*
  Basis Set:

    Orbital Energies (a.u.)
    -----------------------

    Doubly Occupied:

       1A    -20.613006     2A    -20.548564     3A    -11.379317
       4A    -11.238020     5A    -11.233501     6A    -11.224515
       7A    -11.221792     8A    -11.213613     9A     -1.473448
      10A     -1.363651    11A     -1.099539    12A     -1.042178
      13A     -0.960899    14A     -0.865194    15A     -0.822244
      16A     -0.787828    17A     -0.701083    18A     -0.686730
      19A     -0.645945    20A     -0.629998    21A     -0.622513
      22A     -0.592661    23A     -0.578229    24A     -0.555190
      25A     -0.540495    26A     -0.521109    27A     -0.497965
      28A     -0.484054    29A     -0.474069    30A     -0.469973
      31A     -0.458666    32A     -0.435522

  @DF-RHF Final Energy:  -383.94724143560882

   => Energetics <=

    Nuclear Repulsion Energy =            376.5588856242650309
    One-Electron Energy =               -1269.0492277118751190
    Two-Electron Energy =                 508.5431006520011579
    DFT Exchange-Correlation Energy =       0.0000000000000000
    Empirical Dispersion Energy =           0.0000000000000000
    PCM Polarization Energy =               0.0000000000000000
    EFP Energy =                            0.0000000000000000
    Total Energy =                       -383.9472414356089303
    Molecular point group: c1
  Basis Set: 6-31G*
  Basis Set:

  -Total Gradient:
     Atom            X                  Y                   Z
    ------   -----------------  -----------------  -----------------
       1       -0.000006211846    -0.000008240036    -0.000005745322
       2       -0.000010893983     0.000012888092     0.000027166182
       3        0.000218738578    -0.000750900771     0.000193338539
       4       -0.000229682266     0.000594820067    -0.000421112253
       5       -0.000134510171     0.000462010257    -0.000113948832
       6        0.000010275646     0.000005031576    -0.000002666366
       7        0.000140205593    -0.000315442429     0.000309113105
       8        0.000000848661     0.000003429912     0.000001128086
       9       -0.000011742381     0.000000881996    -0.000005726971
      10        0.000006351867     0.000004648645    -0.000001634148
      11       -0.000001589784    -0.000003641935     0.000007937927
      12        0.000015148142    -0.000009169274     0.000012757252
      13       -0.000008789149    -0.000004369686    -0.000001980729
      14        0.000004383323     0.000001687047    -0.000001203999
      15       -0.000003177994     0.000009566945    -0.000001315190
      16        0.000007307890    -0.000002416040     0.000006351508
      17        0.000004904973    -0.000003861634    -0.000000384297
      18        0.000000319633     0.000003141100    -0.000002381522
      19       -0.000002670102     0.000001583996     0.000002676183
      20        0.000000783359    -0.000001647827    -0.000002369155

  **** Optimization is complete! (in 7 steps) ****
    Final optimized geometry and variables:
    Molecular point group: c1

    Geometry (in Angstrom), charge = 0, multiplicity = 1:

    H            3.618507753590     0.564459173755     0.699749810629
    O            2.733890719060     0.351581652218     0.981076564891
    C            2.071754292461    -0.132560404619    -0.069100212954
    C            0.634994241460    -0.449227209949     0.250943311350
    O            2.580286769940    -0.251717768390    -1.136642617748
    C           -0.245307365213     0.798854251999     0.064891498100
    H            0.327425573261    -1.244676641189    -0.413707196725
    H            0.566599673175    -0.801026427233     1.274030017621
    C           -1.715062516279     0.576949430476     0.436105960575
    H           -0.173645570366     1.130120256983    -0.967489630322
    H            0.153986811754     1.599400108608     0.680794400874
    C           -2.464122596995    -0.410560457089    -0.462524464805
    H           -2.221073083148     1.538799059277     0.394063461060
    H           -1.779167179414     0.246145540446     1.471267231995
    C           -3.948711104245    -0.510284776825    -0.112385538728
    H           -2.357275982904    -0.102916787769    -1.500554192505
    H           -2.017147851834    -1.398143416192    -0.388436904732
    H           -4.457754500047    -1.216964010502    -0.760100604724
    H           -4.442393930143     0.451418395703    -0.218612660942
    H           -4.088405357894    -0.841394405937     0.912831807388

  Mulliken Charges: (a.u.)
   Center  Symbol    Alpha    Beta     Spin     Total
       1     H     0.26802  0.26802  0.00000  0.46396
       2     O     4.34757  4.34757  0.00000 -0.69514
       3     C     2.63334  2.63334  0.00000  0.73331
       4     C     3.19896  3.19896  0.00000 -0.39792
       5     O     4.27888  4.27888  0.00000 -0.55777
       6     C     3.16823  3.16823  0.00000 -0.33646
       7     H     0.39651  0.39651  0.00000  0.20698
       8     H     0.40283  0.40283  0.00000  0.19434
       9     C     3.15352  3.15352  0.00000 -0.30704
      10     H     0.40885  0.40885  0.00000  0.18230
      11     H     0.40869  0.40869  0.00000  0.18261
      12     C     3.15508  3.15508  0.00000 -0.31016
      13     H     0.41783  0.41783  0.00000  0.16434
      14     H     0.42142  0.42142  0.00000  0.15716
      15     C     3.23966  3.23966  0.00000 -0.47933
      16     H     0.42006  0.42006  0.00000  0.15989
      17     H     0.42108  0.42108  0.00000  0.15783
      18     H     0.41751  0.41751  0.00000  0.16497
      19     H     0.42078  0.42078  0.00000  0.15843
      20     H     0.42115  0.42115  0.00000  0.15769

   Total alpha = 32.00000, Total beta = 32.00000, Total charge =  0.00000
