  ==> Input File <==

--------------------------------------------------------------------------
set {
	reference rhf
	basis cc-pvtz
}

set_num_threads( 4 )
memory 2 gb

molecule MOL {
0 1

H	 2.979157	 -0.132286	 -0.883433
N	 2.433987	 -0.362316	 -0.080024
C	 1.263552	 0.494993	 0.021953
H	 3.025082	 -0.254785	 0.717710
C	 -0.016533	 -0.325589	 -0.026925
H	 1.280915	 1.180773	 -0.818522
H	 1.263064	 1.106893	 0.925038
C	 -1.280353	 0.525521	 0.047747
H	 -0.016686	 -0.912532	 -0.939714
H	 -0.014099	 -1.037598	 0.796369
C	 -2.560681	 -0.301323	 -0.007747
H	 -1.279957	 1.241025	 -0.770189
H	 -1.270445	 1.110526	 0.963468
H	 -2.617064	 -0.872870	 -0.928010
H	 -3.439525	 0.331102	 0.043462
H	 -2.609427	 -1.002736	 0.818585

	symmetry c1
}
set optking {
	frozen_dihedral = ("
		1 2 3 6
	")
}

ee = optimize('scf')
oeprop('DIPOLE', 'QUADRUPOLE', 'MULLIKEN_CHARGES')
f=open( 'psi4out.xyz', 'w' )
f.write( "16  " )
f.write( str(ee) + "\n" )
f.write( MOL.save_string_xyz() )
f.close()
--------------------------------------------------------------------------

    Molecular point group: c1
  Charge       = 0
  Multiplicity = 1
  Basis Set: CC-PVTZ
  Basis Set:
  @DF-RHF Final Energy:  -212.39670158296406
    Total Energy =                       -212.3967015829643401
    Molecular point group: c1
  Basis Set: CC-PVTZ
  Basis Set:
  Basis Set: CC-PVTZ
  Basis Set:
  @DF-RHF Final Energy:  -212.39724724984933
    Total Energy =                       -212.3972472498494426
  Basis Set: CC-PVTZ
  Basis Set:
  Basis Set: CC-PVTZ
  Basis Set:
  @DF-RHF Final Energy:  -212.39739514927180
    Total Energy =                       -212.3973951492718015
  Basis Set: CC-PVTZ
  Basis Set:
  Basis Set: CC-PVTZ
  Basis Set:
  @DF-RHF Final Energy:  -212.39739782961698
    Total Energy =                       -212.3973978296168639
  Basis Set: CC-PVTZ
  Basis Set:
  Charge       = 0
  Multiplicity = 1
  Basis Set: CC-PVTZ
  Basis Set:

    Orbital Energies (a.u.)
    -----------------------

    Doubly Occupied:

       1A    -15.524932     2A    -11.238956     3A    -11.210128
       4A    -11.203779     5A    -11.201647     6A     -1.174758
       7A     -1.058334     8A     -0.958821     9A     -0.842954
      10A     -0.787315    11A     -0.677465    12A     -0.623173
      13A     -0.611621    14A     -0.578182    15A     -0.551389
      16A     -0.533711    17A     -0.487315    18A     -0.477023
      19A     -0.465782    20A     -0.458714    21A     -0.379283

  @DF-RHF Final Energy:  -212.39739844269835

   => Energetics <=

    Nuclear Repulsion Energy =            186.0848246328491484
    One-Electron Energy =                -654.8738829610908851
    Two-Electron Energy =                 256.3916598855433904
    DFT Exchange-Correlation Energy =       0.0000000000000000
    Empirical Dispersion Energy =           0.0000000000000000
    PCM Polarization Energy =               0.0000000000000000
    EFP Energy =                            0.0000000000000000
    Total Energy =                       -212.3973984426983179
    Molecular point group: c1
  Basis Set: CC-PVTZ
  Basis Set:

  -Total Gradient:
     Atom            X                  Y                   Z
    ------   -----------------  -----------------  -----------------
       1       -0.000171703980    -0.000190112042    -0.000189481527
       2        0.000265884265     0.000213716773     0.000243241349
       3       -0.000273529895    -0.000223747795    -0.000247143728
       4        0.000016780996     0.000012105560     0.000020752483
       5        0.000051542654     0.000023600092     0.000028299444
       6        0.000145010742     0.000177330985     0.000141817543
       7       -0.000031462373    -0.000021066604     0.000001196788
       8        0.000008159988    -0.000009074773    -0.000004820816
       9        0.000017875823     0.000017836939     0.000004854861
      10       -0.000000188777    -0.000001668407    -0.000000662182
      11       -0.000024156053     0.000011843719     0.000004738887
      12        0.000006922716    -0.000002992202     0.000006377475
      13       -0.000005195533    -0.000005704928    -0.000003616120
      14        0.000002916857     0.000001445080    -0.000000808390
      15       -0.000010539804    -0.000007068205    -0.000003447188
      16        0.000001682368     0.000003555807    -0.000001298878

  **** Optimization is complete! (in 5 steps) ****
    Final optimized geometry and variables:
    Molecular point group: c1

    Geometry (in Angstrom), charge = 0, multiplicity = 1:

    H            3.020535308947    -0.127484598281    -0.841323050311
    N            2.446576660802    -0.358305875275    -0.061710982627
    C            1.257782862068     0.486881792213     0.015163860262
    H            3.007320994223    -0.293032853870     0.758039771831
    C           -0.024917811466    -0.333784367527    -0.023284365386
    H            1.252362804446     1.197602694270    -0.805975347263
    H            1.273518320283     1.080998925959     0.924668495576
    C           -1.287930054958     0.517737035743     0.055628972241
    H           -0.032042626700    -0.923261383119    -0.935496924447
    H           -0.006987941328    -1.045308123436     0.797423558580
    C           -2.569455609954    -0.308279947285     0.014908922665
    H           -1.295424985348     1.230873838918    -0.764940445175
    H           -1.270877565620     1.107290840002     0.968895463199
    H           -2.634344743238    -0.882953872836    -0.902929090397
    H           -3.448158247137     0.324070034753     0.072276774313
    H           -2.609777070636    -1.007242644583     0.843601635102

  Mulliken Charges: (a.u.)
   Center  Symbol    Alpha    Beta     Spin     Total
       1     H     0.42565  0.42565  0.00000  0.14870
       2     N     3.69786  3.69786  0.00000 -0.39571
       3     C     3.04591  3.04591  0.00000 -0.09183
       4     H     0.42606  0.42606  0.00000  0.14788
       5     C     3.06125  3.06125  0.00000 -0.12250
       6     H     0.45769  0.45769  0.00000  0.08462
       7     H     0.45833  0.45833  0.00000  0.08335
       8     C     3.09178  3.09178  0.00000 -0.18355
       9     H     0.45670  0.45670  0.00000  0.08660
      10     H     0.45728  0.45728  0.00000  0.08543
      11     C     3.14889  3.14889  0.00000 -0.29779
      12     H     0.45683  0.45683  0.00000  0.08633
      13     H     0.45686  0.45686  0.00000  0.08629
      14     H     0.45472  0.45472  0.00000  0.09056
      15     H     0.44941  0.44941  0.00000  0.10119
      16     H     0.45478  0.45478  0.00000  0.09043

   Total alpha = 21.00000, Total beta = 21.00000, Total charge =  0.00000
