                              Psi4 1.0.54 Driver

  ==> Input File <==

--------------------------------------------------------------------------
set {
	reference rhf
	basis cc-pvtz
}

set_num_threads( 4 )
memory 2 gb

molecule MOL {
0 1

H	 -3.258660	 -0.290394	 1.471450
C	 -3.307964	 -0.275695	 0.374072
C	 -2.653809	 0.914422	 -0.273689
O	 -3.855140	 -1.148880	 -0.205112
C	 -1.216901	 1.136108	 0.207794
H	 -2.700131	 0.790676	 -1.347875
H	 -3.256452	 1.781007	 -0.010713
C	 -0.247837	 0.040196	 -0.230469
H	 -0.872882	 2.093195	 -0.169002
H	 -1.209325	 1.218376	 1.291938
C	 1.181757	 0.280428	 0.247371
H	 -0.259600	 -0.030819	 -1.314870
H	 -0.591284	 -0.923375	 0.136958
C	 2.151032	 -0.811012	 -0.202643
H	 1.515939	 1.247397	 -0.115449
H	 1.191514	 0.341223	 1.333422
C	 3.580021	 -0.656538	 0.320835
H	 2.170545	 -0.847575	 -1.289412
H	 1.766632	 -1.772905	 0.124928
C	 4.528880	 -1.787220	 -0.069436
H	 3.542351	 -0.593126	 1.403864
H	 3.987307	 0.290665	 -0.023011
H	 4.143825	 -2.748364	 0.256032
H	 4.681769	 -1.837883	 -1.140763
H	 5.500528	 -1.649135	 0.390779

	symmetry c1
}
set optking {
	frozen_dihedral = ("
		20 17 14 18
	")
}

ee,wfn = optimize('scf', return_wfn=True)
oeprop( wfn, 'DIPOLE', 'QUADRUPOLE', 'MULLIKEN_CHARGES')
f=open( 'psi4out.xyz', 'w' )
f.write( "25  " )
f.write( str(ee) + "\n" )
f.write( MOL.save_string_xyz() )
f.close()
--------------------------------------------------------------------------

    Molecular point group: c1
  Charge       = 0
  Multiplicity = 1
  Basis Set: CC-PVTZ
  Basis Set:
  @DF-RHF Final Energy:  -387.26171397152757
    Total Energy =                       -387.2617139715279109
    Molecular point group: c1
  Basis Set: CC-PVTZ
  Basis Set:
  Basis Set: CC-PVTZ
  Basis Set:
  @DF-RHF Final Energy:  -387.26196603851827
    Total Energy =                       -387.2619660385187217
  Basis Set: CC-PVTZ
  Basis Set:
  Basis Set: CC-PVTZ
  Basis Set:
  @DF-RHF Final Energy:  -387.26211261214939
    Total Energy =                       -387.2621126121492807
  Basis Set: CC-PVTZ
  Basis Set:
  Basis Set: CC-PVTZ
  Basis Set:
  @DF-RHF Final Energy:  -387.26205063670074
    Total Energy =                       -387.2620506367002235
  Basis Set: CC-PVTZ
  Basis Set:
  Basis Set: CC-PVTZ
  Basis Set:
  @DF-RHF Final Energy:  -387.26211516089876
    Total Energy =                       -387.2621151608989294
  Basis Set: CC-PVTZ
  Basis Set:
  Charge       = 0
  Multiplicity = 1
  Basis Set: CC-PVTZ
  Basis Set:

    Orbital Energies (a.u.)
    -----------------------

    Doubly Occupied:

       1A    -20.551402     2A    -11.321003     3A    -11.233819
       4A    -11.232876     5A    -11.221768     6A    -11.218147
       7A    -11.215846     8A    -11.214715     9A    -11.208339
      10A     -1.406416    11A     -1.105401    12A     -1.071503
      13A     -1.016456    14A     -0.944611    15A     -0.868711
      16A     -0.814699    17A     -0.794721    18A     -0.787628
      19A     -0.668069    20A     -0.666510    21A     -0.641500
      22A     -0.617191    23A     -0.607562    24A     -0.593688
      25A     -0.568292    26A     -0.553585    27A     -0.541321
      28A     -0.522317    29A     -0.505945    30A     -0.503329
      31A     -0.488305    32A     -0.477084    33A     -0.466455
      34A     -0.466214    35A     -0.442311    36A     -0.411907

  @DF-RHF Final Energy:  -387.26211588493817

   => Energetics <=

    Nuclear Repulsion Energy =            436.0813300284534648
    One-Electron Energy =               -1388.7475981447212234
    Two-Electron Energy =                 565.4041522313295900
    DFT Exchange-Correlation Energy =       0.0000000000000000
    Empirical Dispersion Energy =           0.0000000000000000
    PCM Polarization Energy =               0.0000000000000000
    EFP Energy =                            0.0000000000000000
    Total Energy =                       -387.2621158849381118
    Molecular point group: c1
  Basis Set: CC-PVTZ
  Basis Set:

  -Total Gradient:
     Atom            X                  Y                   Z
    ------   -----------------  -----------------  -----------------
       1       -0.000010639494     0.000006377465     0.000000230512
       2        0.000036601852    -0.000008427276     0.000001676230
       3       -0.000025243833    -0.000001954802     0.000001543897
       4       -0.000010091144    -0.000000245634    -0.000004447696
       5        0.000012259364    -0.000005289819    -0.000005051984
       6        0.000000268870     0.000002284562    -0.000000032374
       7        0.000003692786    -0.000000420490     0.000002536190
       8       -0.000021546804     0.000016520786    -0.000011211296
       9        0.000000105995     0.000002117599    -0.000002647539
      10        0.000001978458     0.000001646236    -0.000000021241
      11       -0.000016882514    -0.000014056225     0.000007261053
      12        0.000001493865     0.000000984868    -0.000003727379
      13        0.000004049886     0.000002235815     0.000005898500
      14        0.000042510251    -0.000581181645     0.000150650681
      15       -0.000004204264     0.000001551378    -0.000004270505
      16        0.000007400669    -0.000003810487     0.000003545587
      17        0.000079934478     0.000290887701    -0.000387434732
      18       -0.000063734106     0.000425924079    -0.000024909730
      19       -0.000007119750     0.000001313356    -0.000005091014
      20       -0.000060577849    -0.000113505890     0.000285972960
      21        0.000003212752     0.000002487875    -0.000000269394
      22        0.000011173138    -0.000000215696     0.000002956849
      23       -0.000017064207    -0.000024326339     0.000016409510
      24       -0.000005267044     0.000000214892    -0.000039110442
      25        0.000037688641    -0.000001112312     0.000009543357

  **** Optimization is complete! (in 6 steps) ****
    Final optimized geometry and variables:
    Molecular point group: c1

    Geometry (in Angstrom), charge = 0, multiplicity = 1:

    H           -3.310383940028    -0.019010378107     1.407676167412
    C           -3.341356238900     0.010730499901     0.309919231738
    C           -2.661835328893     1.200861118995    -0.311195851877
    O           -3.890004991677    -0.847550154090    -0.289779079011
    C           -1.231159880338     1.399135745941     0.197968129894
    H           -2.690867461987     1.091232453260    -1.387531265879
    H           -3.258786628350     2.071223702721    -0.047724985442
    C           -0.268046049917     0.296308392261    -0.236003542873
    H           -0.868619727383     2.356053241415    -0.161526512392
    H           -1.241735657227     1.468888964365     1.282944385255
    C            1.156179358875     0.515296940411     0.266174066791
    H           -0.264092659106     0.235418269021    -1.321022676991
    H           -0.627855275285    -0.666684531137     0.117267225516
    C            2.125948641650    -0.579752480778    -0.169062982190
    H            1.517481109959     1.477157902301    -0.089910704800
    H            1.148546331099     0.576838669295     1.351809475091
    C            3.552429237874    -0.356606267515     0.325297453224
    H            2.129513841416    -0.642194014870    -1.254624173375
    H            1.767439804783    -1.541057999223     0.190709777537
    C            4.507118167608    -1.477162177440    -0.072966034844
    H            3.545643987669    -0.259672603581     1.407649725382
    H            3.922988307312     0.588521191180    -0.062102599020
    H            4.183822365743    -2.429192709597     0.334634858479
    H            4.559909274209    -1.582065280305    -1.151629459814
    H            5.510574132986    -1.285969819981     0.289714660186

  Mulliken Charges: (a.u.)
   Center  Symbol    Alpha    Beta     Spin     Total
       1     H     0.46418  0.46418  0.00000  0.07165
       2     C     2.90476  2.90476  0.00000  0.19049
       3     C     3.08896  3.08896  0.00000 -0.17792
       4     O     4.16625  4.16625  0.00000 -0.33250
       5     C     3.11688  3.11688  0.00000 -0.23376
       6     H     0.44290  0.44290  0.00000  0.11419
       7     H     0.44049  0.44049  0.00000  0.11902
       8     C     3.09048  3.09048  0.00000 -0.18096
       9     H     0.44306  0.44306  0.00000  0.11388
      10     H     0.44981  0.44981  0.00000  0.10038
      11     C     3.08974  3.08974  0.00000 -0.17947
      12     H     0.44992  0.44992  0.00000  0.10017
      13     H     0.44843  0.44843  0.00000  0.10314
      14     C     3.08657  3.08657  0.00000 -0.17313
      15     H     0.45356  0.45356  0.00000  0.09289
      16     H     0.45423  0.45423  0.00000  0.09154
      17     C     3.08481  3.08481  0.00000 -0.16962
      18     H     0.45400  0.45400  0.00000  0.09201
      19     H     0.45351  0.45351  0.00000  0.09298
      20     C     3.15023  3.15023  0.00000 -0.30046
      21     H     0.45498  0.45498  0.00000  0.09004
      22     H     0.45448  0.45448  0.00000  0.09105
      23     H     0.45464  0.45464  0.00000  0.09071
      24     H     0.45484  0.45484  0.00000  0.09032
      25     H     0.44830  0.44830  0.00000  0.10339

   Total alpha = 36.00000, Total beta = 36.00000, Total charge = -0.00000

*** Psi4 exiting successfully. Buy a developer a beer!
