  ==> Input File <==

--------------------------------------------------------------------------
set {
	reference rhf
	basis 6-31G*
}

set_num_threads( 4 )
memory 2 gb

molecule MOL {
0 1

H	 2.130696	 -0.615975	 1.325223
C	 1.951159	 -0.223429	 0.317018
C	 0.692068	 0.589600	 0.160137
O	 2.723218	 -0.449442	 -0.557609
C	 -0.558097	 -0.297372	 0.091132
H	 0.791645	 1.202255	 -0.728243
H	 0.616171	 1.253469	 1.020572
C	 -1.850991	 0.512573	 -0.019058
H	 -0.476753	 -0.965681	 -0.762987
H	 -0.604799	 -0.930658	 0.975228
C	 -3.096943	 -0.368295	 -0.099594
H	 -1.800724	 1.150330	 -0.898172
H	 -1.931651	 1.177355	 0.838044
H	 -3.060452	 -1.020287	 -0.967456
H	 -3.996858	 0.233488	 -0.175704
H	 -3.191959	 -0.995686	 0.782074

	symmetry c1
}
set optking {
	frozen_dihedral = ("
		4 2 3 6
	")
}

ee = optimize('scf')
oeprop('DIPOLE', 'QUADRUPOLE', 'MULLIKEN_CHARGES')
f=open( 'psi4out.xyz', 'w' )
f.write( "16  " )
f.write( str(ee) + "\n" )
f.write( MOL.save_string_xyz() )
f.close()
--------------------------------------------------------------------------

    Molecular point group: c1
  Charge       = 0
  Multiplicity = 1
  Basis Set: 6-31G*
  Basis Set:
  @DF-RHF Final Energy:  -270.01943687081859
    Total Energy =                       -270.0194368708184811
    Molecular point group: c1
  Basis Set: 6-31G*
  Basis Set:
  Basis Set: 6-31G*
  Basis Set:
  @DF-RHF Final Energy:  -270.01792550606990
    Total Energy =                       -270.0179255060701280
  Basis Set: 6-31G*
  Basis Set:
  Basis Set: 6-31G*
  Basis Set:
  @DF-RHF Final Energy:  -270.01953826687856
    Total Energy =                       -270.0195382668783850
  Basis Set: 6-31G*
  Basis Set:
  Basis Set: 6-31G*
  Basis Set:
  @DF-RHF Final Energy:  -270.01954713492933
    Total Energy =                       -270.0195471349294394
  Basis Set: 6-31G*
  Basis Set:
  Basis Set: 6-31G*
  Basis Set:
  @DF-RHF Final Energy:  -270.01955041888436
    Total Energy =                       -270.0195504188843643
  Basis Set: 6-31G*
  Basis Set:
  Basis Set: 6-31G*
  Basis Set:
  @DF-RHF Final Energy:  -270.01955633542752
    Total Energy =                       -270.0195563354272394
  Basis Set: 6-31G*
  Basis Set:
  Charge       = 0
  Multiplicity = 1
  Basis Set: 6-31G*
  Basis Set:

    Orbital Energies (a.u.)
    -----------------------

    Doubly Occupied:

       1A    -20.562393     2A    -11.326398     3A    -11.236467
       4A    -11.234794     5A    -11.228754     6A    -11.217849
       7A     -1.402221     8A     -1.095552     9A     -1.018133
      10A     -0.905983    11A     -0.812377    12A     -0.790918
      13A     -0.680738    14A     -0.645900    15A     -0.629155
      16A     -0.602779    17A     -0.578447    18A     -0.552167
      19A     -0.525233    20A     -0.512325    21A     -0.487224
      22A     -0.480095    23A     -0.477432    24A     -0.408563

  @DF-RHF Final Energy:  -270.01955673090822

   => Energetics <=

    Nuclear Repulsion Energy =            229.5919755961260194
    One-Electron Energy =                -820.3992720353987806
    Two-Electron Energy =                 320.7877397083645405
    DFT Exchange-Correlation Energy =       0.0000000000000000
    Empirical Dispersion Energy =           0.0000000000000000
    PCM Polarization Energy =               0.0000000000000000
    EFP Energy =                            0.0000000000000000
    Total Energy =                       -270.0195567309081639
    Molecular point group: c1
  Basis Set: 6-31G*
  Basis Set:

  -Total Gradient:
     Atom            X                  Y                   Z
    ------   -----------------  -----------------  -----------------
       1        0.000007847981    -0.000003869004    -0.000001096768
       2        0.000887019561     0.001403672251     0.000445354787
       3       -0.000772345904    -0.001271783603    -0.000750020786
       4       -0.000547383470    -0.000859103670    -0.000216009680
       5        0.000004373987     0.000003549494    -0.000015048846
       6        0.000414152756     0.000728665345     0.000539429207
       7        0.000007452771     0.000005409674    -0.000000251853
       8       -0.000002651965     0.000000134062    -0.000005410242
       9        0.000001674199    -0.000006099303    -0.000003629788
      10       -0.000007332613    -0.000000482106    -0.000002566459
      11        0.000003955469    -0.000001630468     0.000011534197
      12        0.000000312836    -0.000002429337    -0.000003618360
      13        0.000001977786     0.000003294401    -0.000002462310
      14        0.000001859307     0.000003354950     0.000000734267
      15        0.000001638023     0.000001324885     0.000002527972
      16       -0.000002550722    -0.000004007572     0.000000534662

  **** Optimization is complete! (in 7 steps) ****
    Final optimized geometry and variables:
    Molecular point group: c1

    Geometry (in Angstrom), charge = 0, multiplicity = 1:

    H            2.143224574972    -0.594634178269     1.342475106657
    C            1.973858590148    -0.176207303990     0.343400302648
    C            0.725508982954     0.654195960121     0.190686636071
    O            2.729400232895    -0.419333259784    -0.541318984419
    C           -0.521417440353    -0.240794713390     0.118104936307
    H            0.822471921169     1.257136764565    -0.704754735686
    H            0.642768346747     1.322805374808     1.045018286333
    C           -1.817502970329     0.563496922692     0.005868187315
    H           -0.428824378882    -0.905893790903    -0.736439394216
    H           -0.566888413525    -0.875029976417     1.001692844784
    C           -3.058711156745    -0.323982752487    -0.074933685757
    H           -1.768770249943     1.199667037724    -0.874528278982
    H           -1.902772677251     1.229404091226     0.861653827602
    H           -3.017160747986    -0.978086642984    -0.940892332630
    H           -3.961368713837     0.273266808009    -0.154390213941
    H           -3.152474910670    -0.949594185300     0.808104131392

  Mulliken Charges: (a.u.)
   Center  Symbol    Alpha    Beta     Spin     Total
       1     H     0.43112  0.43112  0.00000  0.13776
       2     C     2.83460  2.83460  0.00000  0.33081
       3     C     3.20365  3.20365  0.00000 -0.40731
       4     O     4.23619  4.23619  0.00000 -0.47239
       5     C     3.16378  3.16378  0.00000 -0.32757
       6     H     0.40004  0.40004  0.00000  0.19992
       7     H     0.41404  0.41404  0.00000  0.17193
       8     C     3.15166  3.15166  0.00000 -0.30332
       9     H     0.40977  0.40977  0.00000  0.18046
      10     H     0.41906  0.41906  0.00000  0.16188
      11     C     3.24060  3.24060  0.00000 -0.48120
      12     H     0.41836  0.41836  0.00000  0.16329
      13     H     0.42110  0.42110  0.00000  0.15779
      14     H     0.41889  0.41889  0.00000  0.16223
      15     H     0.41658  0.41658  0.00000  0.16684
      16     H     0.42056  0.42056  0.00000  0.15888

   Total alpha = 24.00000, Total beta = 24.00000, Total charge = -0.00000
