                              Psi4 1.0.54 Driver

  ==> Input File <==

--------------------------------------------------------------------------
set {
	reference rhf
	basis cc-pvtz
}

set_num_threads( 4 )
memory 2 gb

molecule MOL {
0 1

O	 0.749630	 1.305591	 -0.000460
C	 0.576499	 0.134701	 -0.003900
C	 -0.765656	 -0.550508	 -0.002152
O	 1.564816	 -0.744612	 -0.000631
C	 -1.945526	 0.411052	 0.000603
H	 -0.794329	 -1.203792	 -0.868145
H	 -0.791555	 -1.205429	 0.862701
C	 -3.282915	 -0.321280	 0.002596
H	 -1.880300	 1.059126	 -0.864925
H	 -1.877207	 1.057892	 0.866807
H	 -3.388495	 -0.952755	 -0.873419
H	 -4.107811	 0.380864	 0.004116
H	 -3.385717	 -0.953283	 0.878571
C	 2.769210	 -0.364854	 0.634372
H	 3.190782	 0.508998	 0.160331
H	 3.437421	 -1.204067	 0.529940
H	 2.598485	 -0.151619	 1.679085

	symmetry c1
}
set optking {
	frozen_dihedral = ("
		14 4 2 1
	")
}

ee,wfn = optimize('scf', return_wfn=True)
oeprop( wfn, 'DIPOLE', 'QUADRUPOLE', 'MULLIKEN_CHARGES')
f=open( 'psi4out.xyz', 'w' )
f.write( "17  " )
f.write( str(ee) + "\n" )
f.write( MOL.save_string_xyz() )
f.close()
--------------------------------------------------------------------------

    Molecular point group: c1
  Charge       = 0
  Multiplicity = 1
  Basis Set: CC-PVTZ
  Basis Set:
  @DF-RHF Final Energy:  -345.03029670394847
    Total Energy =                       -345.0302967039482951
    Molecular point group: c1
  Basis Set: CC-PVTZ
  Basis Set:
  Basis Set: CC-PVTZ
  Basis Set:
  @DF-RHF Final Energy:  -344.85844016530240
    Total Energy =                       -344.8584401653019995
  Basis Set: CC-PVTZ
  Basis Set:
  Basis Set: CC-PVTZ
  Basis Set:
  @DF-RHF Final Energy:  -344.98001067087660
    Total Energy =                       -344.9800106708765384
  Basis Set: CC-PVTZ
  Basis Set:
  Basis Set: CC-PVTZ
  Basis Set:
  @DF-RHF Final Energy:  -345.02668102005794
    Total Energy =                       -345.0266810200578789
  Basis Set: CC-PVTZ
  Basis Set:
  @DF-RHF Final Energy:  -344.93355247935278
    Total Energy =                       -344.9335524793528407
  @DF-RHF Final Energy:  -345.02129034246002
    Total Energy =                       -345.0212903424595652
  @DF-RHF Final Energy:  -345.03019238763176
    Total Energy =                       -345.0301923876314163
  @DF-RHF Final Energy:  -345.03062574577592
    Total Energy =                       -345.0306257457759216
  Basis Set: CC-PVTZ
  Basis Set:
  @DF-RHF Final Energy:  -345.03087129143478
    Total Energy =                       -345.0308712914347211
  Basis Set: CC-PVTZ
  Basis Set:
  Basis Set: CC-PVTZ
  Basis Set:
  @DF-RHF Final Energy:  -345.03088565506835
    Total Energy =                       -345.0308856550678343
  Basis Set: CC-PVTZ
  Basis Set:
  Basis Set: CC-PVTZ
  Basis Set:
  @DF-RHF Final Energy:  -345.03088889522201
    Total Energy =                       -345.0308888952218922
  Basis Set: CC-PVTZ
  Basis Set:
  Charge       = 0
  Multiplicity = 1
  Basis Set: CC-PVTZ
  Basis Set:

    Orbital Energies (a.u.)
    -----------------------

    Doubly Occupied:

       1A    -20.592308     2A    -20.536827     3A    -11.365761
       4A    -11.280753     5A    -11.234776     6A    -11.220365
       7A    -11.212994     8A     -1.469499     9A     -1.366967
      10A     -1.081691    11A     -1.000941    12A     -0.941863
      13A     -0.829094    14A     -0.768536    15A     -0.702084
      16A     -0.684099    17A     -0.676338    18A     -0.637263
      19A     -0.601123    20A     -0.576934    21A     -0.568139
      22A     -0.530167    23A     -0.524434    24A     -0.500144
      25A     -0.488330    26A     -0.479622    27A     -0.458958
      28A     -0.440048

  @DF-RHF Final Energy:  -345.03088819135991

   => Energetics <=

    Nuclear Repulsion Energy =            312.7177809961288517
    One-Electron Energy =               -1089.9572193348753899
    Two-Electron Energy =                 432.2085501473867453
    DFT Exchange-Correlation Energy =       0.0000000000000000
    Empirical Dispersion Energy =           0.0000000000000000
    PCM Polarization Energy =               0.0000000000000000
    EFP Energy =                            0.0000000000000000
    Total Energy =                       -345.0308881913598498
    Molecular point group: c1
  Basis Set: CC-PVTZ
  Basis Set:

  -Total Gradient:
     Atom            X                  Y                   Z
    ------   -----------------  -----------------  -----------------
       1       -0.003747078646     0.004252047672    -0.006646798916
       2        0.006041690194    -0.009475398143     0.011521108780
       3        0.000083332211     0.000098814054    -0.000092329364
       4       -0.003435952676     0.010748735574    -0.007887706581
       5       -0.000153215037    -0.000017379513    -0.000085565743
       6       -0.000026412831     0.000047113047     0.000072781271
       7        0.000064894421     0.000038435107    -0.000051679228
       8        0.000057947095     0.000077878834     0.000039754809
       9       -0.000064609442    -0.000015907292     0.000040810650
      10       -0.000052015950    -0.000054278376    -0.000106709151
      11        0.000053295783     0.000047513365     0.000124015514
      12       -0.000089908498    -0.000010695282     0.000011090189
      13        0.000017519865     0.000026153976    -0.000024979720
      14        0.001076021794    -0.005755659291     0.003063990369
      15        0.000022057472    -0.000046282289    -0.000016068351
      16        0.000103940123     0.000035342063     0.000019568718
      17        0.000048494121     0.000003566496     0.000018716755

  **** Optimization is complete! (in 12 steps) ****
    Final optimized geometry and variables:
    Molecular point group: c1

    Geometry (in Angstrom), charge = 0, multiplicity = 1:

    O            0.333606101220     1.308334431998     0.713477513279
    C            0.476732600964     0.375931937124     0.001147210890
    C           -0.556871285172    -0.688080198500    -0.259468062779
    O            1.564876268416     0.187743365662    -0.738433590666
    C           -1.899688604273    -0.421553267807     0.405955711536
    H           -0.659530919828    -0.780721120438    -1.335298736779
    H           -0.133531122933    -1.629991548918     0.077373520418
    C           -2.911456365112    -1.526135981543     0.122457728779
    H           -2.286484989088     0.530203546762     0.061399786459
    H           -1.754879111046    -0.318510684784     1.474218605409
    H           -3.098060829904    -1.626666612714    -0.941508826530
    H           -3.858583530472    -1.316361430589     0.604865877635
    H           -2.560436973600    -2.485856794088     0.487366276769
    C            2.785150973065     0.699955814972    -0.241233397037
    H            2.766694056145     1.778462968581    -0.201682288801
    H            3.551174128160     0.367774987620    -0.923018745437
    H            2.980707403905     0.311070480960     0.748734141351

  Mulliken Charges: (a.u.)
   Center  Symbol    Alpha    Beta     Spin     Total
       1     O     4.19085  4.19085  0.00000 -0.38170
       2     C     2.80450  2.80450  0.00000  0.39101
       3     C     3.09700  3.09700  0.00000 -0.19400
       4     O     4.15179  4.15179  0.00000 -0.30358
       5     C     3.07945  3.07945  0.00000 -0.15891
       6     H     0.43884  0.43884  0.00000  0.12232
       7     H     0.44426  0.44426  0.00000  0.11147
       8     C     3.15093  3.15093  0.00000 -0.30185
       9     H     0.44714  0.44714  0.00000  0.10571
      10     H     0.44605  0.44605  0.00000  0.10791
      11     H     0.45557  0.45557  0.00000  0.08885
      12     H     0.44558  0.44558  0.00000  0.10884
      13     H     0.45606  0.45606  0.00000  0.08787
      14     C     3.03704  3.03704  0.00000 -0.07407
      15     H     0.44870  0.44870  0.00000  0.10261
      16     H     0.44521  0.44521  0.00000  0.10959
      17     H     0.46102  0.46102  0.00000  0.07795

   Total alpha = 28.00000, Total beta = 28.00000, Total charge =  0.00000

*** Psi4 exiting successfully. Buy a developer a beer!
