  ==> Input File <==

--------------------------------------------------------------------------
set {
	reference rhf
	basis 6-31G*
}

set_num_threads( 4 )
memory 2 gb

molecule MOL {
0 1

O	 0.441212	 0.830774	 -4.546312
C	 -0.115601	 0.985928	 -3.502128
C	 0.066461	 -0.007175	 -2.367709
C	 -0.998642	 2.186326	 -3.243944
C	 1.400664	 0.228823	 -1.641520
H	 0.059834	 -1.002742	 -2.797948
H	 -0.757260	 0.062314	 -1.662953
C	 1.631333	 -0.777471	 -0.511575
H	 2.198666	 0.170974	 -2.373115
H	 1.421707	 1.237767	 -1.232453
C	 2.915987	 -0.544314	 0.291766
H	 1.644456	 -1.783954	 -0.925757
H	 0.784372	 -0.739318	 0.170371
C	 3.373361	 0.914346	 0.347591
H	 3.708709	 -1.142521	 -0.150311
H	 2.780642	 -0.921148	 1.303579
H	 3.506512	 1.320010	 -0.651625
H	 4.322697	 0.999599	 0.867103
H	 2.660624	 1.545032	 0.868198
H	 -2.028354	 1.862032	 -3.118279
H	 -0.938293	 2.875841	 -4.074433
H	 -0.706772	 2.687921	 -2.325784

	symmetry c1
}
set optking {
	frozen_dihedral = ("
		12 8 11 15
	")
}

ee = optimize('scf')
oeprop('DIPOLE', 'QUADRUPOLE', 'MULLIKEN_CHARGES')
f=open( 'psi4out.xyz', 'w' )
f.write( "22  " )
f.write( str(ee) + "\n" )
f.write( MOL.save_string_xyz() )
f.close()
--------------------------------------------------------------------------

    Molecular point group: c1
  Charge       = 0
  Multiplicity = 1
  Basis Set: 6-31G*
  Basis Set:
  @DF-RHF Final Energy:  -348.09219856620069
    Total Energy =                       -348.0921985662009774
    Molecular point group: c1
  Basis Set: 6-31G*
  Basis Set:
  Basis Set: 6-31G*
  Basis Set:
  @DF-RHF Final Energy:  -348.09326630647769
    Total Energy =                       -348.0932663064776307
  Basis Set: 6-31G*
  Basis Set:
  Basis Set: 6-31G*
  Basis Set:
  @DF-RHF Final Energy:  -348.09428708509699
    Total Energy =                       -348.0942870850965392
  Basis Set: 6-31G*
  Basis Set:
  Basis Set: 6-31G*
  Basis Set:
  @DF-RHF Final Energy:  -348.09268676282016
    Total Energy =                       -348.0926867628203354
  Basis Set: 6-31G*
  Basis Set:
  @DF-RHF Final Energy:  -348.09439505814544
    Total Energy =                       -348.0943950581454374
  @DF-RHF Final Energy:  -348.09424408336088
    Total Energy =                       -348.0942440833607066
  @DF-RHF Final Energy:  -348.09428818818742
    Total Energy =                       -348.0942881881873063
  Basis Set: 6-31G*
  Basis Set:
  @DF-RHF Final Energy:  -348.09444430957006
    Total Energy =                       -348.0944443095700080
  Basis Set: 6-31G*
  Basis Set:
  Basis Set: 6-31G*
  Basis Set:
  @DF-RHF Final Energy:  -348.09446494123472
    Total Energy =                       -348.0944649412349463
  Basis Set: 6-31G*
  Basis Set:
  Basis Set: 6-31G*
  Basis Set:
  @DF-RHF Final Energy:  -348.09447499413511
    Total Energy =                       -348.0944749941352825
  Basis Set: 6-31G*
  Basis Set:
  Charge       = 0
  Multiplicity = 1
  Basis Set: 6-31G*
  Basis Set:

    Orbital Energies (a.u.)
    -----------------------

    Doubly Occupied:

       1A    -20.547119     2A    -11.324199     3A    -11.229299
       4A    -11.228697     5A    -11.228019     6A    -11.222957
       7A    -11.220821     8A    -11.213253     9A     -1.392845
      10A     -1.094931    11A     -1.043396    12A     -0.999088
      13A     -0.938144    14A     -0.862493    15A     -0.780977
      16A     -0.733091    17A     -0.663232    18A     -0.646895
      19A     -0.628023    20A     -0.615212    21A     -0.594972
      22A     -0.587868    23A     -0.556471    24A     -0.547137
      25A     -0.528657    26A     -0.525979    27A     -0.502899
      28A     -0.484754    29A     -0.467963    30A     -0.462313
      31A     -0.459911    32A     -0.395812

  @DF-RHF Final Energy:  -348.09447573352912

   => Energetics <=

    Nuclear Repulsion Energy =            374.0136440768511079
    One-Electron Energy =               -1212.7613845964178836
    Two-Electron Energy =                 490.6532647860377097
    DFT Exchange-Correlation Energy =       0.0000000000000000
    Empirical Dispersion Energy =           0.0000000000000000
    PCM Polarization Energy =               0.0000000000000000
    EFP Energy =                            0.0000000000000000
    Total Energy =                       -348.0944757335291229
    Molecular point group: c1
  Basis Set: 6-31G*
  Basis Set:

  -Total Gradient:
     Atom            X                  Y                   Z
    ------   -----------------  -----------------  -----------------
       1        0.000003513019    -0.000007616081    -0.000023557619
       2        0.000060484990     0.000060767439     0.000023503160
       3        0.000007587403     0.000004961846     0.000020152465
       4       -0.000044900726    -0.000035618313    -0.000036236565
       5       -0.000014786591    -0.000011548564    -0.000005864433
       6       -0.000011293099    -0.000006201311    -0.000004203780
       7        0.000011733717    -0.000015409659     0.000024243540
       8       -0.003377443159    -0.003610725302     0.006975351630
       9       -0.000062290109     0.000001381935    -0.000020905825
      10        0.000038016155     0.000039264357    -0.000011557925
      11        0.002298056412     0.006132969438    -0.005528325371
      12        0.002465783486     0.002024039766    -0.005005153937
      13       -0.000001729887    -0.000004625171    -0.000021300095
      14        0.000008303092     0.000022778094     0.000001996311
      15       -0.001424069606    -0.004588278379     0.003585755786
      16        0.000023158816    -0.000013545219    -0.000015542283
      17        0.000021970282     0.000003797333     0.000020084562
      18       -0.000007712120    -0.000004116413     0.000020127213
      19       -0.000014246310     0.000005753257    -0.000017994368
      20       -0.000001260034     0.000008686387     0.000012637321
      21        0.000006783353    -0.000003909734     0.000002376785
      22        0.000014340915    -0.000002805708     0.000004413424

  **** Optimization is complete! (in 11 steps) ****
    Final optimized geometry and variables:
    Molecular point group: c1

    Geometry (in Angstrom), charge = 0, multiplicity = 1:

    O           -0.678624171490     0.304080738753    -2.672159150878
    C           -1.232906901705     0.469297365740    -1.628226448239
    C           -1.035826432576    -0.503217183016    -0.478755383887
    C           -2.134952655569     1.659612585745    -1.388132230645
    C            0.274452421222    -0.209078990064     0.269486752730
    H           -1.000417571481    -1.503246821309    -0.896625600644
    H           -1.874260185935    -0.453818447569     0.210628387477
    C            0.507875056599    -1.192091407660     1.422873854093
    H            1.094672290092    -0.266093205180    -0.440079082708
    H            0.254870081386     0.810751536012     0.644214390289
    C            1.860774261289    -1.039020319738     2.146658127995
    H            0.464151187919    -2.189611485192     0.993460868878
    H           -0.308302303673    -1.103632000023     2.135188900944
    C            2.376541884367     0.388258869464     2.326943789756
    H            2.606303801462    -1.655255386212     1.650936750750
    H            1.755858840491    -1.487694509823     3.132261459880
    H            2.612089569040     0.861664352648     1.380026754267
    H            3.281846318117     0.388116898069     2.925632566106
    H            1.646446499923     1.010373739978     2.837731019442
    H           -3.160169132062     1.320958826653    -1.263722767991
    H           -2.081212909268     2.339558185137    -2.226903258624
    H           -1.855720439048     2.177102025103    -0.474980600302

  Mulliken Charges: (a.u.)
   Center  Symbol    Alpha    Beta     Spin     Total
       1     O     4.26239  4.26239  0.00000 -0.52479
       2     C     2.73696  2.73696  0.00000  0.52607
       3     C     3.19965  3.19965  0.00000 -0.39929
       4     C     3.28955  3.28955  0.00000 -0.57911
       5     C     3.16586  3.16586  0.00000 -0.33172
       6     H     0.40143  0.40143  0.00000  0.19714
       7     H     0.41711  0.41711  0.00000  0.16579
       8     C     3.15288  3.15288  0.00000 -0.30577
       9     H     0.40662  0.40662  0.00000  0.18676
      10     H     0.41827  0.41827  0.00000  0.16345
      11     C     3.15424  3.15424  0.00000 -0.30847
      12     H     0.41857  0.41857  0.00000  0.16286
      13     H     0.42203  0.42203  0.00000  0.15594
      14     C     3.24370  3.24370  0.00000 -0.48739
      15     H     0.41915  0.41915  0.00000  0.16169
      16     H     0.42033  0.42033  0.00000  0.15935
      17     H     0.41775  0.41775  0.00000  0.16450
      18     H     0.41726  0.41726  0.00000  0.16548
      19     H     0.42243  0.42243  0.00000  0.15513
      20     H     0.40683  0.40683  0.00000  0.18635
      21     H     0.39711  0.39711  0.00000  0.20579
      22     H     0.40988  0.40988  0.00000  0.18024

   Total alpha = 32.00000, Total beta = 32.00000, Total charge =  0.00000
