  ==> Input File <==

--------------------------------------------------------------------------
set {
	reference rhf
	basis cc-pvtz
}

set_num_threads( 4 )
memory 2 gb

molecule MOL {
0 1

H	 -3.162190	 0.493205	 -0.000107
C	 -2.363908	 -0.234727	 0.000005
O	 -1.158738	 0.454634	 -0.000087
H	 -2.464314	 -0.863616	 -0.882153
H	 -2.464327	 -0.863359	 0.882345
C	 -0.665416	 0.753426	 -1.268028
C	 0.645322	 1.501334	 -1.130216
H	 -1.387311	 1.358472	 -1.817049
H	 -0.516210	 -0.164519	 -1.837023
C	 1.252305	 1.866198	 -2.480326
H	 0.471906	 2.397156	 -0.544250
H	 1.336087	 0.886251	 -0.564117
H	 0.586686	 2.502449	 -3.054105
H	 2.186528	 2.399029	 -2.352501
H	 1.456917	 0.981448	 -3.073976

	symmetry c1
}
set optking {
	frozen_dihedral = ("
		6 3 2 4
	")
}

ee = optimize('scf')
oeprop('DIPOLE', 'QUADRUPOLE', 'MULLIKEN_CHARGES')
f=open( 'psi4out.xyz', 'w' )
f.write( "15  " )
f.write( str(ee) + "\n" )
f.write( MOL.save_string_xyz() )
f.close()
--------------------------------------------------------------------------

    Molecular point group: c1
  Charge       = 0
  Multiplicity = 1
  Basis Set: CC-PVTZ
  Basis Set:
  @DF-RHF Final Energy:  -232.22559615410043
    Total Energy =                       -232.2255961541002875
    Molecular point group: c1
  Basis Set: CC-PVTZ
  Basis Set:
  Basis Set: CC-PVTZ
  Basis Set:
  @DF-RHF Final Energy:  -232.22623760658064
    Total Energy =                       -232.2262376065806393
  Basis Set: CC-PVTZ
  Basis Set:
  Basis Set: CC-PVTZ
  Basis Set:
  @DF-RHF Final Energy:  -232.22637409873656
    Total Energy =                       -232.2263740987366987
  Basis Set: CC-PVTZ
  Basis Set:
  Charge       = 0
  Multiplicity = 1
  Basis Set: CC-PVTZ
  Basis Set:

    Orbital Energies (a.u.)
    -----------------------

    Doubly Occupied:

       1A    -20.545735     2A    -11.264724     3A    -11.261536
       4A    -11.212502     5A    -11.210602     6A     -1.379403
       7A     -1.058268     8A     -0.956112     9A     -0.877438
      10A     -0.809476    11A     -0.674924    12A     -0.655118
      13A     -0.632330    14A     -0.608007    15A     -0.564792
      16A     -0.542857    17A     -0.503300    18A     -0.490559
      19A     -0.478717    20A     -0.462618    21A     -0.413508

  @DF-RHF Final Energy:  -232.22637521030475

   => Energetics <=

    Nuclear Repulsion Energy =            189.8484896473102594
    One-Electron Energy =                -690.9446805103515317
    Two-Electron Energy =                 268.8698156527365768
    DFT Exchange-Correlation Energy =       0.0000000000000000
    Empirical Dispersion Energy =           0.0000000000000000
    PCM Polarization Energy =               0.0000000000000000
    EFP Energy =                            0.0000000000000000
    Total Energy =                       -232.2263752103046954
    Molecular point group: c1
  Basis Set: CC-PVTZ
  Basis Set:

  -Total Gradient:
     Atom            X                  Y                   Z
    ------   -----------------  -----------------  -----------------
       1        0.000009057293     0.000013406221     0.000003322732
       2        0.002024690263    -0.003575701823     0.001712740617
       3       -0.002002548499     0.003467388162    -0.000276059457
       4       -0.001169544110     0.002173886956    -0.001392759767
       5        0.000073644057     0.000019097738    -0.000005582322
       6        0.001117660818    -0.002104564039    -0.000146295624
       7       -0.000020169782    -0.000002583382     0.000062979582
       8       -0.000002989341    -0.000006599352     0.000063567657
       9       -0.000009804448    -0.000002900738    -0.000023812929
      10       -0.000028639418     0.000006316971    -0.000008408115
      11        0.000020873442     0.000015992387     0.000002696558
      12       -0.000009164677    -0.000002768862     0.000003631801
      13        0.000002165988     0.000000617256    -0.000009755922
      14       -0.000005177092    -0.000000235977     0.000007240411
      15       -0.000000054492    -0.000001351518     0.000006494780

  **** Optimization is complete! (in 4 steps) ****
    Final optimized geometry and variables:
    Molecular point group: c1

    Geometry (in Angstrom), charge = 0, multiplicity = 1:

    H           -2.722006750216    -0.388015694061     1.001245921880
    C           -1.885994253001    -1.083244859019     0.977042256868
    O           -0.672946175434    -0.402198525389     0.961215922525
    H           -2.006846079423    -1.710564715282     0.098210582838
    H           -1.922983995686    -1.700924312473     1.863399830492
    C           -0.177504191927    -0.096489918740    -0.304745486292
    C            1.132932530684     0.650130039635    -0.157717967102
    H           -0.894543157072     0.513401009411    -0.855159474365
    H           -0.026597239196    -1.011686849104    -0.876493446017
    C            1.749300858120     1.014511638003    -1.503816945369
    H            0.957246279098     1.546166604347     0.427323760144
    H            1.818864251315     0.033753744155     0.412986302632
    H            1.088065374936     1.651204864064    -2.082248120460
    H            2.683122839946     1.546686917669    -1.369821025971
    H            1.957285911351     0.129457513074    -2.095949475921

  Mulliken Charges: (a.u.)
   Center  Symbol    Alpha    Beta     Spin     Total
       1     H     0.46534  0.46534  0.00000  0.06931
       2     C     3.03133  3.03133  0.00000 -0.06267
       3     O     4.17414  4.17414  0.00000 -0.34827
       4     H     0.47424  0.47424  0.00000  0.05152
       5     H     0.45040  0.45040  0.00000  0.09921
       6     C     2.95580  2.95580  0.00000  0.08840
       7     C     3.08126  3.08126  0.00000 -0.16252
       8     H     0.47680  0.47680  0.00000  0.04639
       9     H     0.47462  0.47462  0.00000  0.05075
      10     C     3.15583  3.15583  0.00000 -0.31166
      11     H     0.45099  0.45099  0.00000  0.09802
      12     H     0.45121  0.45121  0.00000  0.09758
      13     H     0.45583  0.45583  0.00000  0.08833
      14     H     0.44626  0.44626  0.00000  0.10747
      15     H     0.45593  0.45593  0.00000  0.08814

   Total alpha = 21.00000, Total beta = 21.00000, Total charge =  0.00000
