  ==> Input File <==

--------------------------------------------------------------------------
set {
	reference rhf
	basis 6-31G*
}

set_num_threads( 1 )
memory 2 gb

molecule MOL {
0 1

H	 2.460838	 -0.232807	 -0.761236
O	 1.654024	 -0.625927	 -0.460906
C	 1.135793	 0.118896	 0.612333
C	 0.031547	 1.023609	 0.088541
H	 1.915668	 0.729681	 1.063582
H	 0.754543	 -0.542641	 1.387006
C	 -1.134819	 0.293262	 -0.585751
H	 0.474374	 1.714721	 -0.623187
H	 -0.338529	 1.620940	 0.920081
C	 -1.917817	 -0.639439	 0.339494
H	 -0.758119	 -0.268455	 -1.433105
H	 -1.813832	 1.041889	 -0.986690
H	 -2.777680	 -1.057197	 -0.174994
H	 -1.310268	 -1.471279	 0.680599
H	 -2.283753	 -0.111424	 1.216626

	symmetry c1
}
set optking {
	frozen_dihedral = ("
		8 4 7 11,
		2 3 4 8
	")
}

ee = energy('scf')
oeprop('DIPOLE', 'QUADRUPOLE', 'MULLIKEN_CHARGES')
f=open( 'psi4out.xyz', 'w' )
f.write( "15  " )
f.write( str(ee) + "\n" )
f.write( MOL.save_string_xyz() )
f.close()
--------------------------------------------------------------------------

    Molecular point group: c1

    Geometry (in Angstrom), charge = 0, multiplicity = 1:

       Center              X                  Y                   Z               Mass
    ------------   -----------------  -----------------  -----------------  -----------------
           H          2.459124938198    -0.246021683718    -0.752893138720     1.007825032070
           O          1.652310938198    -0.639141683718    -0.452563138720    15.994914619560
           C          1.134079938198     0.105681316282     0.620675861280    12.000000000000
           C          0.029833938198     1.010394316282     0.096883861280    12.000000000000
           H          1.913954938198     0.716466316282     1.071924861280     1.007825032070
           H          0.752829938198    -0.555855683718     1.395348861280     1.007825032070
           C         -1.136532061802     0.280047316282    -0.577408138720    12.000000000000
           H          0.472660938198     1.701506316282    -0.614844138720     1.007825032070
           H         -0.340242061802     1.607725316282     0.928423861280     1.007825032070
           C         -1.919530061802    -0.652653683718     0.347836861280    12.000000000000
           H         -0.759832061802    -0.281669683718    -1.424762138720     1.007825032070
           H         -1.815545061802     1.028674316282    -0.978347138720     1.007825032070
           H         -2.779393061802    -1.070411683718    -0.166651138720     1.007825032070
           H         -1.311981061802    -1.484493683718     0.688941861280     1.007825032070
           H         -2.285466061802    -0.124638683718     1.224968861280     1.007825032070

  Charge       = 0
  Multiplicity = 1
  Basis Set: 6-31G*
  Basis Set:

    Orbital Energies (a.u.)
    -----------------------

    Doubly Occupied:

       1A    -20.552629     2A    -11.268266     3A    -11.210898
       4A    -11.208634     5A    -11.203727     6A     -1.360595
       7A     -1.063070     8A     -0.969125     9A     -0.870681
      10A     -0.779696    11A     -0.695416    12A     -0.643190
      13A     -0.617686    14A     -0.575520    15A     -0.559799
      16A     -0.533829    17A     -0.505366    18A     -0.483281
      19A     -0.466666    20A     -0.452193    21A     -0.423699

  @DF-RHF Final Energy:  -232.14134600309183

   => Energetics <=

    Nuclear Repulsion Energy =            192.0546062813722301
    One-Electron Energy =                -695.5040046093910178
    Two-Electron Energy =                 271.3080523249270186
    DFT Exchange-Correlation Energy =       0.0000000000000000
    Empirical Dispersion Energy =           0.0000000000000000
    PCM Polarization Energy =               0.0000000000000000
    EFP Energy =                            0.0000000000000000
    Total Energy =                       -232.1413460030917690

  Mulliken Charges: (a.u.)
   Center  Symbol    Alpha    Beta     Spin     Total
       1     H     0.27954  0.27954  0.00000  0.44093
       2     O     4.36947  4.36947  0.00000 -0.73894
       3     C     3.00570  3.00570  0.00000 -0.01141
       4     C     3.15663  3.15663  0.00000 -0.31325
       5     H     0.42863  0.42863  0.00000  0.14273
       6     H     0.41758  0.41758  0.00000  0.16484
       7     C     3.15243  3.15243  0.00000 -0.30487
       8     H     0.42462  0.42462  0.00000  0.15076
       9     H     0.42801  0.42801  0.00000  0.14398
      10     C     3.24410  3.24410  0.00000 -0.48820
      11     H     0.40899  0.40899  0.00000  0.18202
      12     H     0.42326  0.42326  0.00000  0.15348
      13     H     0.41898  0.41898  0.00000  0.16204
      14     H     0.41707  0.41707  0.00000  0.16586
      15     H     0.42498  0.42498  0.00000  0.15004

   Total alpha = 21.00000, Total beta = 21.00000, Total charge =  0.00000
