  ==> Input File <==

--------------------------------------------------------------------------
set {
	reference rhf
	basis 6-31G*
}

set_num_threads( 1 )
memory 2 gb

molecule MOL {
0 1

O	 1.214711	 1.306902	 -0.000018
C	 1.122059	 0.121804	 -0.000188
C	 -0.170150	 -0.657997	 -0.000612
O	 2.172624	 -0.688929	 0.000216
C	 -1.412532	 0.227344	 -0.000452
H	 -0.153702	 -1.313099	 -0.867402
H	 -0.153924	 -1.313811	 0.865644
C	 -1.981695	 0.430204	 1.404634
H	 -2.167602	 -0.214576	 -0.643165
H	 -1.167363	 1.188951	 -0.440575
C	 -3.225979	 1.317148	 1.414147
H	 -2.224889	 -0.536362	 1.841308
H	 -1.220275	 0.870800	 2.045091
H	 -4.018676	 0.885991	 0.809672
H	 -3.609440	 1.444643	 2.421609
H	 -3.006739	 2.303379	 1.015497
C	 3.452279	 -0.082609	 0.000533
H	 3.583069	 0.529321	 -0.880332
H	 4.163299	 -0.894027	 0.001117
H	 3.582335	 0.529955	 0.881077

	symmetry c1
}
set optking {
	frozen_dihedral = ("
		9 5 8 12,
		1 2 3 6,
		1 2 4 17
	")
}

ee = energy('scf')
oeprop('DIPOLE', 'QUADRUPOLE', 'MULLIKEN_CHARGES')
f=open( 'psi4out.xyz', 'w' )
f.write( "20  " )
f.write( str(ee) + "\n" )
f.write( MOL.save_string_xyz() )
f.close()
--------------------------------------------------------------------------

    Molecular point group: c1

    Geometry (in Angstrom), charge = 0, multiplicity = 1:

       Center              X                  Y                   Z               Mass
    ------------   -----------------  -----------------  -----------------  -----------------
           O          1.032566795519     1.051366114859    -0.352561935400    15.994914619560
           C          0.939914795519    -0.133731885141    -0.352731935400    12.000000000000
           C         -0.352294204481    -0.913532885141    -0.353155935400    12.000000000000
           O          1.990479795519    -0.944464885141    -0.352327935400    15.994914619560
           C         -1.594676204481    -0.028191885141    -0.352995935400    12.000000000000
           H         -0.335846204481    -1.568634885141    -1.219945935400     1.007825032070
           H         -0.336068204481    -1.569346885141     0.513100064600     1.007825032070
           C         -2.163839204481     0.174668114859     1.052090064600    12.000000000000
           H         -2.349746204481    -0.470111885141    -0.995708935400     1.007825032070
           H         -1.349507204481     0.933415114859    -0.793118935400     1.007825032070
           C         -3.408123204481     1.061612114859     1.061603064600    12.000000000000
           H         -2.407033204481    -0.791897885141     1.488764064600     1.007825032070
           H         -1.402419204481     0.615264114859     1.692547064600     1.007825032070
           H         -4.200820204481     0.630455114859     0.457128064600     1.007825032070
           H         -3.791584204481     1.189107114859     2.069065064600     1.007825032070
           H         -3.188883204481     2.047843114859     0.662953064600     1.007825032070
           C          3.270134795519    -0.338144885141    -0.352010935400    12.000000000000
           H          3.400924795519     0.273785114859    -1.232875935400     1.007825032070
           H          3.981154795519    -1.149562885141    -0.351426935400     1.007825032070
           H          3.400190795519     0.274419114859     0.528533064600     1.007825032070

  Charge       = 0
  Multiplicity = 1
  Basis Set: 6-31G*
  Basis Set:

    Orbital Energies (a.u.)
    -----------------------

    Doubly Occupied:

       1A    -20.604509     2A    -20.546600     3A    -11.373097
       4A    -11.281382     5A    -11.234632     6A    -11.216996
       7A    -11.216363     8A    -11.207429     9A     -1.470253
      10A     -1.364004    11A     -1.087371    12A     -1.022303
      13A     -0.968775    14A     -0.883890    15A     -0.805156
      16A     -0.766604    17A     -0.703948    18A     -0.680830
      19A     -0.672930    20A     -0.629587    21A     -0.607681
      22A     -0.588743    23A     -0.578595    24A     -0.545639
      25A     -0.529418    26A     -0.514885    27A     -0.511969
      28A     -0.477642    29A     -0.468759    30A     -0.460647
      31A     -0.456655    32A     -0.439877

  @DF-RHF Final Energy:  -383.93869692518115

   => Energetics <=

    Nuclear Repulsion Energy =            386.3099449735285589
    One-Electron Energy =               -1288.6630754014179274
    Two-Electron Energy =                 518.4144335027084480
    DFT Exchange-Correlation Energy =       0.0000000000000000
    Empirical Dispersion Energy =           0.0000000000000000
    PCM Polarization Energy =               0.0000000000000000
    EFP Energy =                            0.0000000000000000
    Total Energy =                       -383.9386969251809205

  Mulliken Charges: (a.u.)
   Center  Symbol    Alpha    Beta     Spin     Total
       1     O     4.28558  4.28558  0.00000 -0.57117
       2     C     2.60865  2.60865  0.00000  0.78270
       3     C     3.21049  3.21049  0.00000 -0.42098
       4     O     4.30624  4.30624  0.00000 -0.61249
       5     C     3.15896  3.15896  0.00000 -0.31791
       6     H     0.39746  0.39746  0.00000  0.20507
       7     H     0.39883  0.39883  0.00000  0.20234
       8     C     3.15508  3.15508  0.00000 -0.31017
       9     H     0.41967  0.41967  0.00000  0.16066
      10     H     0.39883  0.39883  0.00000  0.20235
      11     C     3.24052  3.24052  0.00000 -0.48104
      12     H     0.42447  0.42447  0.00000  0.15106
      13     H     0.41680  0.41680  0.00000  0.16640
      14     H     0.42252  0.42252  0.00000  0.15495
      15     H     0.41917  0.41917  0.00000  0.16167
      16     H     0.41799  0.41799  0.00000  0.16402
      17     C     3.09235  3.09235  0.00000 -0.18471
      18     H     0.40899  0.40899  0.00000  0.18202
      19     H     0.40835  0.40835  0.00000  0.18330
      20     H     0.40904  0.40904  0.00000  0.18192

   Total alpha = 32.00000, Total beta = 32.00000, Total charge = -0.00000
