  ==> Input File <==

--------------------------------------------------------------------------
set {
	reference rhf
	basis 6-31G*
}

set_num_threads( 4 )
memory 2 gb

molecule MOL {
0 1

H	 -2.698709	 -0.000305	 0.034435
C	 -1.693833	 0.000034	 0.434417
O	 -0.828952	 -0.000968	 -0.659236
H	 -1.574200	 0.882896	 1.055746
H	 -1.574147	 -0.881698	 1.057355
C	 -0.078944	 -1.163540	 -0.924601
C	 0.909979	 -1.489757	 0.192775
C	 -0.959074	 -2.357842	 -1.287883
H	 0.492295	 -0.892585	 -1.804545
H	 1.481785	 -0.607185	 0.458579
H	 1.602590	 -2.257646	 -0.137184
H	 0.414628	 -1.859186	 1.085139
H	 -1.681382	 -2.075946	 -2.046344
H	 -0.347400	 -3.163057	 -1.682784
H	 -1.497126	 -2.747951	 -0.429888

	symmetry c1
}
set optking {
	frozen_dihedral = ("
		6 3 2 1
	")
}

ee = optimize('scf')
oeprop('DIPOLE', 'QUADRUPOLE', 'MULLIKEN_CHARGES')
f=open( 'psi4out.xyz', 'w' )
f.write( "15  " )
f.write( str(ee) + "\n" )
f.write( MOL.save_string_xyz() )
f.close()
--------------------------------------------------------------------------

    Molecular point group: c1
  Charge       = 0
  Multiplicity = 1
  Basis Set: 6-31G*
  Basis Set:
  @DF-RHF Final Energy:  -232.13438642686597
    Total Energy =                       -232.1343864268659445
    Molecular point group: c1
  Basis Set: 6-31G*
  Basis Set:
  Basis Set: 6-31G*
  Basis Set:
  @DF-RHF Final Energy:  -232.13525224210335
    Total Energy =                       -232.1352522421035474
  Basis Set: 6-31G*
  Basis Set:
  Basis Set: 6-31G*
  Basis Set:
  @DF-RHF Final Energy:  -232.13555841321681
    Total Energy =                       -232.1355584132169270
  Basis Set: 6-31G*
  Basis Set:
  Basis Set: 6-31G*
  Basis Set:
  @DF-RHF Final Energy:  -232.13554974583121
    Total Energy =                       -232.1355497458310992
  Basis Set: 6-31G*
  Basis Set:
  Basis Set: 6-31G*
  Basis Set:
  @DF-RHF Final Energy:  -232.13557762026414
    Total Energy =                       -232.1355776202643142
  Basis Set: 6-31G*
  Basis Set:
  Basis Set: 6-31G*
  Basis Set:
  @DF-RHF Final Energy:  -232.13557970169489
    Total Energy =                       -232.1355797016947236
  Basis Set: 6-31G*
  Basis Set:
  Charge       = 0
  Multiplicity = 1
  Basis Set: 6-31G*
  Basis Set:

    Orbital Energies (a.u.)
    -----------------------

    Doubly Occupied:

       1A    -20.545985     2A    -11.274937     3A    -11.261452
       4A    -11.210730     5A    -11.210180     6A     -1.368063
       7A     -1.049955     8A     -0.939810     9A     -0.931419
      10A     -0.781557    11A     -0.675812    12A     -0.638148
      13A     -0.631967    14A     -0.569329    15A     -0.563421
      16A     -0.552621    17A     -0.538236    18A     -0.500877
      19A     -0.497746    20A     -0.441927    21A     -0.402874

  @DF-RHF Final Energy:  -232.13558011491472

   => Energetics <=

    Nuclear Repulsion Energy =            198.6319414314529581
    One-Electron Energy =                -708.3609530487549364
    Two-Electron Energy =                 277.5934315023872614
    DFT Exchange-Correlation Energy =       0.0000000000000000
    Empirical Dispersion Energy =           0.0000000000000000
    PCM Polarization Energy =               0.0000000000000000
    EFP Energy =                            0.0000000000000000
    Total Energy =                       -232.1355801149147169
    Molecular point group: c1
  Basis Set: 6-31G*
  Basis Set:

  -Total Gradient:
     Atom            X                  Y                   Z
    ------   -----------------  -----------------  -----------------
       1        0.000002454513     0.001244544643     0.000062039529
       2        0.000320719573    -0.001444513604     0.000232329983
       3       -0.001072206196    -0.000120676654    -0.000921450982
       4        0.000027476386    -0.000009926744    -0.000011783586
       5       -0.000003564350     0.000000870939     0.000017378549
       6        0.000742457651     0.000361446001     0.000610817568
       7       -0.000023154243     0.000006539596     0.000006959939
       8        0.000008725679    -0.000019049651     0.000009918989
       9        0.000001263699    -0.000009166024    -0.000002725176
      10        0.000004394379     0.000001237873    -0.000008744203
      11       -0.000011925341     0.000003302316    -0.000008805781
      12       -0.000008340540    -0.000004401235     0.000015700954
      13        0.000014141332     0.000004461608    -0.000002120638
      14       -0.000000986112    -0.000011609479     0.000001241147
      15       -0.000001456427    -0.000003059586    -0.000000756292

  **** Optimization is complete! (in 7 steps) ****
    Final optimized geometry and variables:
    Molecular point group: c1

    Geometry (in Angstrom), charge = 0, multiplicity = 1:

    H           -2.197786987238     1.004216151437     0.482341581687
    C           -1.179357148670     0.977426134752     0.857385890833
    O           -0.272586860741     0.996064961181    -0.206911917304
    H           -1.018161801647     1.862297215491     1.462460363488
    H           -1.070573382679     0.109200534191     1.495997793429
    C            0.475117380135    -0.162517996509    -0.492021875973
    C            1.474744479192    -0.491385539476     0.614832356568
    C           -0.411907701263    -1.349840362186    -0.860366118384
    H            1.039306162061     0.116437803947    -1.373902848390
    H            2.069216546511     0.384167311134     0.851406586953
    H            2.144772078013    -1.282383325388     0.292070415665
    H            0.986640048531    -0.827870360046     1.524032771662
    H           -1.107476086808    -1.068002837910    -1.643359651262
    H            0.193719537308    -2.174665586239    -1.222972163796
    H           -0.983257980018    -1.711480883034    -0.011030863665

  Mulliken Charges: (a.u.)
   Center  Symbol    Alpha    Beta     Spin     Total
       1     H     0.42276  0.42276  0.00000  0.15449
       2     C     3.07905  3.07905  0.00000 -0.15809
       3     O     4.31516  4.31516  0.00000 -0.63032
       4     H     0.41819  0.41819  0.00000  0.16362
       5     H     0.42961  0.42961  0.00000  0.14078
       6     C     2.91010  2.91010  0.00000  0.17981
       7     C     3.25041  3.25041  0.00000 -0.50082
       8     C     3.25181  3.25181  0.00000 -0.50361
       9     H     0.41549  0.41549  0.00000  0.16903
      10     H     0.41152  0.41152  0.00000  0.17695
      11     H     0.42036  0.42036  0.00000  0.15928
      12     H     0.42218  0.42218  0.00000  0.15564
      13     H     0.41172  0.41172  0.00000  0.17656
      14     H     0.41965  0.41965  0.00000  0.16070
      15     H     0.42201  0.42201  0.00000  0.15597

   Total alpha = 21.00000, Total beta = 21.00000, Total charge = -0.00000
