  ==> Input File <==

--------------------------------------------------------------------------
set {
	reference rhf
	basis 6-31G*
}

set_num_threads( 4 )
memory 2 gb

molecule MOL {
0 1

H	 2.845955	 -0.323208	 0.022310
C	 1.900140	 0.071967	 -0.330070
C	 0.778463	 -0.508087	 0.517968
H	 1.782469	 -0.206877	 -1.370777
H	 1.922247	 1.149867	 -0.254252
N	 -0.540928	 0.005139	 0.058438
H	 0.716718	 -1.581298	 0.454712
H	 0.859711	 -0.198647	 1.550086
O	 -1.274637	 -0.761641	 -0.482849
O	 -0.774189	 1.156935	 0.266896

	symmetry c1
}
set optking {
	frozen_dihedral = ("
		9 6 3 2
	")
}

ee = optimize('scf')
oeprop('DIPOLE', 'QUADRUPOLE', 'MULLIKEN_CHARGES')
f=open( 'psi4out.xyz', 'w' )
f.write( "10  " )
f.write( str(ee) + "\n" )
f.write( MOL.save_string_xyz() )
f.close()
--------------------------------------------------------------------------

    Molecular point group: c1
  Charge       = 0
  Multiplicity = 1
  Basis Set: 6-31G*
  Basis Set:
  @DF-RHF Final Energy:  -282.70044388914528
    Total Energy =                       -282.7004438891451059
    Molecular point group: c1
  Basis Set: 6-31G*
  Basis Set:
  Basis Set: 6-31G*
  Basis Set:
  @DF-RHF Final Energy:  -282.69488294425923
    Total Energy =                       -282.6948829442592341
  Basis Set: 6-31G*
  Basis Set:
  Basis Set: 6-31G*
  Basis Set:
  @DF-RHF Final Energy:  -282.70033919732674
    Total Energy =                       -282.7003391973266844
  Basis Set: 6-31G*
  Basis Set:
  Basis Set: 6-31G*
  Basis Set:
  @DF-RHF Final Energy:  -282.70049782215301
    Total Energy =                       -282.7004978221530678
  Basis Set: 6-31G*
  Basis Set:
  Basis Set: 6-31G*
  Basis Set:
  @DF-RHF Final Energy:  -282.70049882199555
    Total Energy =                       -282.7004988219954953
  Basis Set: 6-31G*
  Basis Set:
  Charge       = 0
  Multiplicity = 1
  Basis Set: 6-31G*
  Basis Set:

    Orbital Energies (a.u.)
    -----------------------

    Doubly Occupied:

       1A    -20.604228     2A    -20.600330     3A    -15.848685
       4A    -11.303778     5A    -11.252764     6A     -1.632323
       7A     -1.417927     8A     -1.127669     9A     -0.967436
      10A     -0.837664    11A     -0.760774    12A     -0.736465
      13A     -0.725705    14A     -0.657442    15A     -0.590605
      16A     -0.561889    17A     -0.547807    18A     -0.485512
      19A     -0.477982    20A     -0.449807

  @DF-RHF Final Energy:  -282.70049942249244

   => Energetics <=

    Nuclear Repulsion Energy =            186.2409335001540853
    One-Electron Energy =                -754.7092824529761401
    Two-Electron Energy =                 285.7678495303293289
    DFT Exchange-Correlation Energy =       0.0000000000000000
    Empirical Dispersion Energy =           0.0000000000000000
    PCM Polarization Energy =               0.0000000000000000
    EFP Energy =                            0.0000000000000000
    Total Energy =                       -282.7004994224926691
    Molecular point group: c1
  Basis Set: 6-31G*
  Basis Set:

  -Total Gradient:
     Atom            X                  Y                   Z
    ------   -----------------  -----------------  -----------------
       1        0.000008353623     0.000003380743    -0.000004843409
       2       -0.000016500557    -0.000062052567    -0.000033033209
       3        0.000032970933     0.000098752502     0.000027402804
       4        0.000007493474     0.000004032127    -0.000007322022
       5        0.000001247599    -0.000005356782     0.000000375455
       6       -0.000075869046    -0.000052478444     0.000063782748
       7       -0.000009790569     0.000004518672    -0.000003162577
       8       -0.000006239623    -0.000003774192     0.000008219023
       9        0.000044992835     0.000013959415    -0.000064141220
      10        0.000013341332    -0.000000981471     0.000012722409

  **** Optimization is complete! (in 6 steps) ****
    Final optimized geometry and variables:
    Molecular point group: c1

    Geometry (in Angstrom), charge = 0, multiplicity = 1:

    H            2.840391346448    -0.318520514094     0.019719771572
    C            1.890649714345     0.072028950992    -0.326507534773
    C            0.774178351881    -0.513239696256     0.527195737538
    H            1.766740468976    -0.206043705660    -1.366574861495
    H            1.908274772821     1.150515367280    -0.248002475156
    N           -0.540362773234     0.004007567318     0.061571796653
    H            0.715443305681    -1.586138801815     0.454794598794
    H            0.858170258407    -0.205717324863     1.558560731211
    O           -1.274724410287    -0.760304875949    -0.482752491759
    O           -0.761142279886     1.161272249454     0.251915036886

  Mulliken Charges: (a.u.)
   Center  Symbol    Alpha    Beta     Spin     Total
       1     H     0.40496  0.40496  0.00000  0.19009
       2     C     3.25763  3.25763  0.00000 -0.51525
       3     C     3.09095  3.09095  0.00000 -0.18191
       4     H     0.40130  0.40130  0.00000  0.19740
       5     H     0.39380  0.39380  0.00000  0.21239
       6     N     3.21951  3.21951  0.00000  0.56098
       7     H     0.38596  0.38596  0.00000  0.22807
       8     H     0.38760  0.38760  0.00000  0.22479
       9     O     4.22758  4.22758  0.00000 -0.45516
      10     O     4.23070  4.23070  0.00000 -0.46141

   Total alpha = 20.00000, Total beta = 20.00000, Total charge = -0.00000
