  ==> Input File <==

--------------------------------------------------------------------------
set {
	reference rhf
	basis 6-31G*
}

set_num_threads( 4 )
memory 2 gb

molecule MOL {
0 1

H	 2.332609	 0.878551	 -1.051851
C	 2.357710	 0.000000	 -0.417167
C	 1.175432	 0.000000	 0.532082
H	 3.291263	 0.000000	 0.136880
H	 2.332609	 -0.878551	 -1.051851
O	 0.000000	 0.000000	 -0.221444
H	 1.206604	 0.877321	 1.177902
H	 1.206604	 -0.877321	 1.177902
C	 -1.175432	 0.000000	 0.532082
C	 -0.979397	 -0.904720	 1.732876
H	 -2.009942	 -0.350013	 -0.075233
H	 -1.413830	 1.013343	 0.854648
H	 -0.753336	 -1.915180	 1.411670
H	 -1.877087	 -0.928260	 2.342866
H	 -0.156388	 -0.549912	 2.342855

	symmetry c1
}
set optking {
	frozen_dihedral = ("
		11 9 6 3
	")
}

ee = optimize('scf')
oeprop('DIPOLE', 'QUADRUPOLE', 'MULLIKEN_CHARGES')
f=open( 'psi4out.xyz', 'w' )
f.write( "15  " )
f.write( str(ee) + "\n" )
f.write( MOL.save_string_xyz() )
f.close()
--------------------------------------------------------------------------

    Molecular point group: c1
  Charge       = 0
  Multiplicity = 1
  Basis Set: 6-31G*
  Basis Set:
  @DF-RHF Final Energy:  -232.12834008890687
    Total Energy =                       -232.1283400889070663
    Molecular point group: c1
  Basis Set: 6-31G*
  Basis Set:
  Basis Set: 6-31G*
  Basis Set:
  @DF-RHF Final Energy:  -232.12788183954154
    Total Energy =                       -232.1278818395414874
  Basis Set: 6-31G*
  Basis Set:
  Basis Set: 6-31G*
  Basis Set:
  @DF-RHF Final Energy:  -232.13648116883243
    Total Energy =                       -232.1364811688324608
  Basis Set: 6-31G*
  Basis Set:
  Basis Set: 6-31G*
  Basis Set:
  @DF-RHF Final Energy:  -232.13820329707687
    Total Energy =                       -232.1382032970768705
  Basis Set: 6-31G*
  Basis Set:
  Basis Set: 6-31G*
  Basis Set:
  @DF-RHF Final Energy:  -232.13858879555744
    Total Energy =                       -232.1385887955574390
  Basis Set: 6-31G*
  Basis Set:
  Basis Set: 6-31G*
  Basis Set:
  @DF-RHF Final Energy:  -232.13870463693038
    Total Energy =                       -232.1387046369302425
  Basis Set: 6-31G*
  Basis Set:
  Basis Set: 6-31G*
  Basis Set:
  @DF-RHF Final Energy:  -232.13871530374342
    Total Energy =                       -232.1387153037437088
  Basis Set: 6-31G*
  Basis Set:
  Charge       = 0
  Multiplicity = 1
  Basis Set: 6-31G*
  Basis Set:

    Orbital Energies (a.u.)
    -----------------------

    Doubly Occupied:

       1A    -20.547986     2A    -11.268676     3A    -11.266981
       4A    -11.215020     5A    -11.207359     6A     -1.371455
       7A     -1.039881     8A     -0.989780     9A     -0.869735
      10A     -0.800421    11A     -0.674819    12A     -0.658375
      13A     -0.625532    14A     -0.592430    15A     -0.547505
      16A     -0.536460    17A     -0.524128    18A     -0.502555
      19A     -0.494203    20A     -0.450449    21A     -0.405749

  @DF-RHF Final Energy:  -232.13871628793328

   => Energetics <=

    Nuclear Repulsion Energy =            193.2652531918471936
    One-Electron Energy =                -697.6289415909375293
    Two-Electron Energy =                 272.2249721111573990
    DFT Exchange-Correlation Energy =       0.0000000000000000
    Empirical Dispersion Energy =           0.0000000000000000
    PCM Polarization Energy =               0.0000000000000000
    EFP Energy =                            0.0000000000000000
    Total Energy =                       -232.1387162879329367
    Molecular point group: c1
  Basis Set: 6-31G*
  Basis Set:

  -Total Gradient:
     Atom            X                  Y                   Z
    ------   -----------------  -----------------  -----------------
       1        0.000000422244    -0.000003243360     0.000002109978
       2        0.000026740081    -0.000006731138     0.000007026168
       3       -0.000002551713    -0.004294011692     0.000173670913
       4        0.000014940017     0.000004589375    -0.000008927705
       5       -0.000001590504     0.000002841191     0.000004688913
       6        0.000221683953     0.005338144978     0.000076421978
       7       -0.000009652781     0.000004204429     0.000012659067
       8       -0.000011147059     0.000009987855    -0.000006883287
       9       -0.001100814609     0.003609631036    -0.001953918985
      10       -0.000000973914    -0.000001045724    -0.000007334281
      11        0.000875497277    -0.004670434508     0.001714416228
      12       -0.000027870574     0.000000418075     0.000015213338
      13        0.000009274748    -0.000010869730     0.000000233035
      14        0.000008394646     0.000009985483    -0.000011195559
      15       -0.000002351812     0.000006533728    -0.000018179800

  **** Optimization is complete! (in 8 steps) ****
    Final optimized geometry and variables:
    Molecular point group: c1

    Geometry (in Angstrom), charge = 0, multiplicity = 1:

    H            1.983450159137     1.189363049357    -1.529865613180
    C            2.096146791399     0.276102869197    -0.956810262280
    C            0.982622316419     0.150422471320     0.065433880936
    H            3.064713568504     0.291195602445    -0.466166399939
    H            2.070625591434    -0.561496605501    -1.644799291329
    O           -0.232093741412     0.120538964326    -0.625618217859
    H            1.010497785943     0.993920116925     0.755557586613
    H            1.116737054547    -0.754039256064     0.651808507172
    C           -1.420259163820     0.159746966832     0.117585917271
    C           -1.435470417736    -0.695101152024     1.381775928419
    H           -2.182940987330    -0.227858138484    -0.545940884595
    H           -1.665327980896     1.190741834489     0.366501757605
    H           -1.176352585622    -1.724480136896     1.156242819541
    H           -2.436572333522    -0.684946240302     1.802128559872
    H           -0.757027598623    -0.329634653410     2.144369309460

  Mulliken Charges: (a.u.)
   Center  Symbol    Alpha    Beta     Spin     Total
       1     H     0.41402  0.41402  0.00000  0.17196
       2     C     3.24268  3.24268  0.00000 -0.48536
       3     C     2.98904  2.98904  0.00000  0.02192
       4     H     0.42345  0.42345  0.00000  0.15310
       5     H     0.41354  0.41354  0.00000  0.17292
       6     O     4.31382  4.31382  0.00000 -0.62764
       7     H     0.43390  0.43390  0.00000  0.13220
       8     H     0.42902  0.42902  0.00000  0.14196
       9     C     2.98141  2.98141  0.00000  0.03718
      10     C     3.26478  3.26478  0.00000 -0.52956
      11     H     0.41693  0.41693  0.00000  0.16613
      12     H     0.42985  0.42985  0.00000  0.14029
      13     H     0.41377  0.41377  0.00000  0.17245
      14     H     0.41652  0.41652  0.00000  0.16696
      15     H     0.41725  0.41725  0.00000  0.16549

   Total alpha = 21.00000, Total beta = 21.00000, Total charge = -0.00000
