  ==> Input File <==

--------------------------------------------------------------------------
set {
	reference rhf
	basis 6-31G*
}

set_num_threads( 4 )
memory 2 gb

molecule MOL {
0 1

O	 -1.088634	 -1.047909	 -2.097023
C	 -1.750253	 -1.119319	 -1.111236
C	 -2.984888	 -1.974850	 -0.988710
O	 -1.481751	 -0.454642	 0.000584
H	 -2.715314	 -3.005231	 -1.187475
H	 -3.434885	 -1.895151	 -0.010145
H	 -3.696047	 -1.670033	 -1.747142
C	 -0.334255	 0.388708	 0.000906
C	 0.891947	 -0.504646	 0.000751
H	 -0.365390	 1.025305	 -0.873475
H	 -0.365484	 1.024911	 0.875569
C	 2.191998	 0.301789	 0.000897
H	 0.855148	 -1.151283	 -0.871571
H	 0.855132	 -1.151660	 0.872805
C	 3.441114	 -0.581407	 0.000108
H	 2.215074	 0.954890	 -0.869742
H	 2.215465	 0.953923	 0.872248
C	 4.739576	 0.224112	 -0.001102
H	 3.419457	 -1.233487	 -0.870178
H	 3.420834	 -1.233096	 0.870717
H	 4.804918	 0.861552	 -0.878265
H	 5.606527	 -0.429058	 -0.001824
H	 4.806469	 0.861674	 0.875853

	symmetry c1
}
set optking {
	frozen_dihedral = ("
		2 4 8 10
	")
}

ee = optimize('scf')
oeprop('DIPOLE', 'QUADRUPOLE', 'MULLIKEN_CHARGES')
f=open( 'psi4out.xyz', 'w' )
f.write( "23  " )
f.write( str(ee) + "\n" )
f.write( MOL.save_string_xyz() )
f.close()
--------------------------------------------------------------------------

    Molecular point group: c1
  Charge       = 0
  Multiplicity = 1
  Basis Set: 6-31G*
  Basis Set:
  @DF-RHF Final Energy:  -422.97492894082785
    Total Energy =                       -422.9749289408287041
    Molecular point group: c1
  Basis Set: 6-31G*
  Basis Set:
  Basis Set: 6-31G*
  Basis Set:
  @DF-RHF Final Energy:  -422.97797073902939
    Total Energy =                       -422.9779707390296153
  Basis Set: 6-31G*
  Basis Set:
  Basis Set: 6-31G*
  Basis Set:
  @DF-RHF Final Energy:  -422.97815864716404
    Total Energy =                       -422.9781586471642640
  Basis Set: 6-31G*
  Basis Set:
  Basis Set: 6-31G*
  Basis Set:
  @DF-RHF Final Energy:  -422.97831124792566
    Total Energy =                       -422.9783112479258307
  Basis Set: 6-31G*
  Basis Set:
  Basis Set: 6-31G*
  Basis Set:
  @DF-RHF Final Energy:  -422.97841516680967
    Total Energy =                       -422.9784151668095546
  Basis Set: 6-31G*
  Basis Set:
  Basis Set: 6-31G*
  Basis Set:
  @DF-RHF Final Energy:  -422.97842620774617
    Total Energy =                       -422.9784262077453150
  Basis Set: 6-31G*
  Basis Set:
  Charge       = 0
  Multiplicity = 1
  Basis Set: 6-31G*
  Basis Set:

    Orbital Energies (a.u.)
    -----------------------

    Doubly Occupied:

       1A    -20.602996     2A    -20.540840     3A    -11.375260
       4A    -11.282354     5A    -11.232338     6A    -11.221542
       7A    -11.219087     8A    -11.218999     9A    -11.210957
      10A     -1.467116    11A     -1.361134    12A     -1.090806
      13A     -1.040352    14A     -1.002018    15A     -0.931148
      16A     -0.852270    17A     -0.798576    18A     -0.761955
      19A     -0.699234    20A     -0.677818    21A     -0.656923
      22A     -0.648657    23A     -0.603567    24A     -0.590009
      25A     -0.583290    26A     -0.572151    27A     -0.550158
      28A     -0.538828    29A     -0.521131    30A     -0.514229
      31A     -0.485231    32A     -0.475221    33A     -0.473646
      34A     -0.468364    35A     -0.438261    36A     -0.434829

  @DF-RHF Final Energy:  -422.97842635282251

   => Energetics <=

    Nuclear Repulsion Energy =            457.5589140550555953
    One-Electron Energy =               -1482.7920893263496964
    Two-Electron Energy =                 602.2547489184721599
    DFT Exchange-Correlation Energy =       0.0000000000000000
    Empirical Dispersion Energy =           0.0000000000000000
    PCM Polarization Energy =               0.0000000000000000
    EFP Energy =                            0.0000000000000000
    Total Energy =                       -422.9784263528219981
    Molecular point group: c1
  Basis Set: 6-31G*
  Basis Set:

  -Total Gradient:
     Atom            X                  Y                   Z
    ------   -----------------  -----------------  -----------------
       1        0.000019121312     0.000001332426     0.000008261810
       2        0.001130777879    -0.001691789417     0.000623682988
       3        0.000012700858    -0.000035313740     0.000003678474
       4       -0.001868661971     0.002841295599    -0.000515833241
       5       -0.000008878980     0.000011943137    -0.000019981634
       6        0.000003554866     0.000004937139    -0.000002469544
       7       -0.000017250648     0.000015814451     0.000005235188
       8        0.001758704876    -0.002847576899    -0.001372288970
       9       -0.000031574188     0.000009419009     0.000008640722
      10       -0.001017115632     0.001685030741     0.001335012262
      11        0.000000193886     0.000020419895    -0.000008836960
      12        0.000017108553    -0.000007472483    -0.000022630177
      13       -0.000009517114     0.000016611658    -0.000008783529
      14        0.000012865426    -0.000022147609    -0.000023568804
      15        0.000007377073     0.000004452491     0.000016140242
      16        0.000018391224    -0.000008046749    -0.000023269220
      17       -0.000028025820     0.000000088329    -0.000030087905
      18        0.000003128343    -0.000003319491     0.000021374329
      19       -0.000002787475     0.000017784117     0.000003379643
      20       -0.000001115326    -0.000014615008     0.000000799542
      21       -0.000005133996    -0.000002597955     0.000000455130
      22        0.000002133279     0.000000881987     0.000001479337
      23        0.000004003581     0.000002868371    -0.000000389683

  **** Optimization is complete! (in 7 steps) ****
    Final optimized geometry and variables:
    Molecular point group: c1

    Geometry (in Angstrom), charge = 0, multiplicity = 1:

    O           -1.672505060723    -0.517432140337    -1.692413407045
    C           -2.239849763558    -0.582215551562    -0.648595758047
    C           -3.491869124079    -1.391558798189    -0.427232578579
    O           -1.853207350107     0.055878930865     0.444133748423
    H           -3.280397226575    -2.428952086177    -0.657720178465
    H           -3.852642152843    -1.306915963871     0.587127761092
    H           -4.252688668219    -1.050870966954    -1.119260006697
    C           -0.655949245315     0.828970619938     0.394677279624
    C            0.598923672248    -0.029738369167     0.412437266239
    H           -0.691229011084     1.480810347188    -0.467115467891
    H           -0.705546861697     1.442378033228     1.283898662914
    C            1.866610369104     0.825105667403     0.478387955645
    H            0.621454513553    -0.653425771315    -0.473009159683
    H            0.552724511664    -0.689892482190     1.275171985877
    C            3.146899457133    -0.011339152873     0.517679920219
    H            1.900374259408     1.489116769154    -0.383445087829
    H            1.831059571007     1.465747460191     1.358299265994
    C            4.413305592958     0.841308583136     0.582403993352
    H            3.184970274411    -0.649343628910    -0.362084099895
    H            3.115007199608    -0.677001842350     1.377416564516
    H            4.491004566437     1.494058506360    -0.282385663178
    H            5.303388757398     0.220540053355     0.608849523492
    H            4.420247131377     1.467311855302     1.470294879083

  Mulliken Charges: (a.u.)
   Center  Symbol    Alpha    Beta     Spin     Total
       1     O     4.28517  4.28517  0.00000 -0.57033
       2     C     2.61510  2.61510  0.00000  0.76980
       3     C     3.28784  3.28784  0.00000 -0.57567
       4     O     4.31363  4.31363  0.00000 -0.62727
       5     H     0.39791  0.39791  0.00000  0.20417
       6     H     0.39951  0.39951  0.00000  0.20098
       7     H     0.39736  0.39736  0.00000  0.20529
       8     C     2.99759  2.99759  0.00000  0.00482
       9     C     3.17391  3.17391  0.00000 -0.34782
      10     H     0.40640  0.40640  0.00000  0.18721
      11     H     0.41064  0.41064  0.00000  0.17873
      12     C     3.16075  3.16075  0.00000 -0.32150
      13     H     0.40026  0.40026  0.00000  0.19948
      14     H     0.41752  0.41752  0.00000  0.16496
      15     C     3.15136  3.15136  0.00000 -0.30272
      16     H     0.41920  0.41920  0.00000  0.16161
      17     H     0.42362  0.42362  0.00000  0.15276
      18     C     3.23986  3.23986  0.00000 -0.47972
      19     H     0.41957  0.41957  0.00000  0.16085
      20     H     0.42217  0.42217  0.00000  0.15565
      21     H     0.42065  0.42065  0.00000  0.15870
      22     H     0.41819  0.41819  0.00000  0.16362
      23     H     0.42181  0.42181  0.00000  0.15639

   Total alpha = 36.00000, Total beta = 36.00000, Total charge =  0.00000
