  ==> Input File <==

--------------------------------------------------------------------------
set {
	reference rhf
	basis cc-pvtz
}

set_num_threads( 4 )
memory 2 gb

molecule MOL {
0 1

H	 -0.664917	 0.385644	 -2.599568
O	 -1.090382	 1.169120	 -2.300242
C	 -0.552349	 1.558211	 -1.074373
C	 -0.793473	 0.591216	 0.050087
H	 -1.006286	 2.511064	 -0.828783
H	 0.517745	 1.737836	 -1.160005
C	 -1.534243	 -0.493009	 -0.013340
H	 -0.299925	 0.844812	 0.973856
H	 -1.101195	 -1.466332	 -0.144046
H	 -2.604242	 -0.437780	 0.050785

	symmetry c1
}
set optking {
	frozen_dihedral = ("
		3 4 7 9
	")
}

ee = optimize('scf')
oeprop('DIPOLE', 'QUADRUPOLE', 'MULLIKEN_CHARGES')
f=open( 'psi4out.xyz', 'w' )
f.write( "10  " )
f.write( str(ee) + "\n" )
f.write( MOL.save_string_xyz() )
f.close()
--------------------------------------------------------------------------

    Molecular point group: c1
  Charge       = 0
  Multiplicity = 1
  Basis Set: CC-PVTZ
  Basis Set:
  @DF-RHF Final Energy:  -191.85731213555485
    Total Energy =                       -191.8573121355548778
    Molecular point group: c1
  Basis Set: CC-PVTZ
  Basis Set:
  Basis Set: CC-PVTZ
  Basis Set:
  @DF-RHF Final Energy:  -191.89384840244418
    Total Energy =                       -191.8938484024442346
  Basis Set: CC-PVTZ
  Basis Set:
  Basis Set: CC-PVTZ
  Basis Set:
  @DF-RHF Final Energy:  -191.92895541847778
    Total Energy =                       -191.9289554184777558
  Basis Set: CC-PVTZ
  Basis Set:
  Basis Set: CC-PVTZ
  Basis Set:
  @DF-RHF Final Energy:  -191.93998207468974
    Total Energy =                       -191.9399820746897944
  Basis Set: CC-PVTZ
  Basis Set:
  @DF-RHF Final Energy:  -191.94111634891004
    Total Energy =                       -191.9411163489099295
  @DF-RHF Final Energy:  -191.94149396814493
    Total Energy =                       -191.9414939681448971
  @DF-RHF Final Energy:  -191.94157274514572
    Total Energy =                       -191.9415727451457201
  @DF-RHF Final Energy:  -191.94072608168750
    Total Energy =                       -191.9407260816875009
  @DF-RHF Final Energy:  -191.93759024248601
    Total Energy =                       -191.9375902424859817
  @DF-RHF Final Energy:  -191.94155656096692
    Total Energy =                       -191.9415565609670296
  @DF-RHF Final Energy:  -191.94158984143544
    Total Energy =                       -191.9415898414355013
  @DF-RHF Final Energy:  -191.94159087850170
    Total Energy =                       -191.9415908785015574
  @DF-RHF Final Energy:  -191.94151874184848
    Total Energy =                       -191.9415187418485687
  @DF-RHF Final Energy:  -191.94159080617806
    Total Energy =                       -191.9415908061780840
  @DF-RHF Final Energy:  -191.94159113708821
    Total Energy =                       -191.9415911370882668
  @DF-RHF Final Energy:  -191.94158804326301
    Total Energy =                       -191.9415880432630672
  @DF-RHF Final Energy:  -191.94141493228193
    Total Energy =                       -191.9414149322820151
  @DF-RHF Final Energy:  -191.94159193547921
    Total Energy =                       -191.9415919354791527
  @DF-RHF Final Energy:  -191.94158867880884
    Total Energy =                       -191.9415886788088983
  @DF-RHF Final Energy:  -191.94159146562254
    Total Energy =                       -191.9415914656224516
  @DF-RHF Final Energy:  -191.94158855557004
    Total Energy =                       -191.9415885555700640
  @DF-RHF Final Energy:  -191.93807413752216
    Total Energy =                       -191.9380741375223067
  @DF-RHF Final Energy:  -191.93855352432911
    Total Energy =                       -191.9385535243291940
  @DF-RHF Final Energy:  -191.94149961773218
    Total Energy =                       -191.9414996177321200
  @DF-RHF Final Energy:  -191.94158956914060
    Total Energy =                       -191.9415895691406035
  @DF-RHF Final Energy:  -191.94158970702961
    Total Energy =                       -191.9415897070296921
  @DF-RHF Final Energy:  -191.94158787918423
    Total Energy =                       -191.9415878791840555
  @DF-RHF Final Energy:  -191.94158795853022
    Total Energy =                       -191.9415879585299081
  @DF-RHF Final Energy:  -191.94158688740956
    Total Energy =                       -191.9415868874095281
  @DF-RHF Final Energy:  -191.94158627692434
    Total Energy =                       -191.9415862769243688
  @DF-RHF Final Energy:  -191.94158620791029
    Total Energy =                       -191.9415862079103192
  @DF-RHF Final Energy:  -191.94158591207884
    Total Energy =                       -191.9415859120787218
  @DF-RHF Final Energy:  -191.94158244662572
    Total Energy =                       -191.9415824466257163
  @DF-RHF Final Energy:  -191.94130572269074
    Total Energy =                       -191.9413057226907426
  @DF-RHF Final Energy:  -191.94158628405009
    Total Energy =                       -191.9415862840500608
  @DF-RHF Final Energy:  -191.94158625696286
    Total Energy =                       -191.9415862569628644
  Basis Set: CC-PVTZ
  Basis Set:
  @DF-RHF Final Energy:  -191.94158608476391
    Total Energy =                       -191.9415860847638555
  Basis Set: CC-PVTZ
  Basis Set:
  Basis Set: CC-PVTZ
  Basis Set:
  @DF-RHF Final Energy:  -191.94158613987321
    Total Energy =                       -191.9415861398731806
  Basis Set: CC-PVTZ
  Basis Set:
  Basis Set: CC-PVTZ
  Basis Set:
  @DF-RHF Final Energy:  -191.94158595030524
    Total Energy =                       -191.9415859503052673
  Basis Set: CC-PVTZ
  Basis Set:
  Charge       = 0
  Multiplicity = 1
  Basis Set: CC-PVTZ
  Basis Set:

    Orbital Energies (a.u.)
    -----------------------

    Doubly Occupied:

       1A    -20.558778     2A    -11.292251     3A    -11.247099
       4A    -11.221931     5A     -1.381038     6A     -1.068177
       7A     -0.940162     8A     -0.778470     9A     -0.698365
      10A     -0.656075    11A     -0.628552    12A     -0.587178
      13A     -0.528660    14A     -0.502768    15A     -0.454746
      16A     -0.350301

  @DF-RHF Final Energy:  -191.94158581395112

   => Energetics <=

    Nuclear Repulsion Energy =            118.8639214710541978
    One-Electron Energy =                -495.8219107206016361
    Two-Electron Energy =                 185.0164034355960609
    DFT Exchange-Correlation Energy =       0.0000000000000000
    Empirical Dispersion Energy =           0.0000000000000000
    PCM Polarization Energy =               0.0000000000000000
    EFP Energy =                            0.0000000000000000
    Total Energy =                       -191.9415858139513773
    Molecular point group: c1
  Basis Set: CC-PVTZ
  Basis Set:

  -Total Gradient:
     Atom            X                  Y                   Z
    ------   -----------------  -----------------  -----------------
       1        0.000020561892     0.000299347146     0.000213337576
       2       -0.000681403001    -0.000713129683    -0.000190787602
       3        0.032262632990    -0.013525682455     0.001318786302
       4       -0.050752852669     0.021396009730    -0.024317020882
       5        0.000095211154    -0.000003478058     0.000114480176
       6        0.000419834892     0.000202521073     0.000081405518
       7        0.010243270019    -0.004335704440     0.068554791816
       8       -0.000104116130     0.000249226042     0.000344953536
       9        0.008694476723    -0.003308399434    -0.045879871188
      10       -0.000197615870    -0.000260709922    -0.000240075255

    Molecular point group: c1

    Geometry (in Angstrom), charge = 0, multiplicity = 1:

    H           -0.109394351332    -0.349575206262    -1.618628778547
    O           -0.174053246971     0.560205015122    -1.389370169872
    C            0.481154216828     0.788082614841    -0.186163284383
    C            0.070485081673    -0.092000857489     0.970195933296
    H            0.369088303103     1.842728290065     0.032155210993
    H            1.547563364539     0.589017621315    -0.265220680774
    C           -0.448374443298    -1.312252207275     0.966650619209
    H            0.774244321177     0.097093390924     1.776637945768
    H            0.081611949376    -2.231845190693     1.139816565503
    H           -1.130319190066    -1.501643038910     0.140466821069

  Mulliken Charges: (a.u.)
   Center  Symbol    Alpha    Beta     Spin     Total
       1     H     0.39053  0.39053  0.00000  0.21894
       2     O     4.19688  4.19688  0.00000 -0.39376
       3     C     2.95106  2.95106  0.00000  0.09788
       4     C     3.06260  3.06260  0.00000 -0.12520
       5     H     0.44770  0.44770  0.00000  0.10460
       6     H     0.46364  0.46364  0.00000  0.07272
       7     C     3.17989  3.17989  0.00000 -0.35979
       8     H     0.43827  0.43827  0.00000  0.12346
       9     H     0.41838  0.41838  0.00000  0.16324
      10     H     0.45104  0.45104  0.00000  0.09791

   Total alpha = 16.00000, Total beta = 16.00000, Total charge =  0.00000
