                              Psi4 1.0.54 Driver

  ==> Input File <==

--------------------------------------------------------------------------
set {
	reference rhf
	basis cc-pvtz
}

set_num_threads( 4 )
memory 2 gb

molecule MOL {
0 1

O	 -2.817697	 1.304178	 0.001046
C	 -2.664672	 0.129869	 0.003507
C	 -3.797908	 -0.860100	 -0.001145
O	 -1.481217	 -0.452708	 0.001092
H	 -4.408836	 -0.679689	 -0.875387
H	 -3.443486	 -1.878443	 -0.002770
H	 -4.412123	 -0.683688	 0.871605
C	 -0.332055	 0.384012	 -0.000250
C	 0.892252	 -0.506059	 -0.000295
H	 -0.360822	 1.020205	 -0.874146
H	 -0.359817	 1.021310	 0.872861
C	 2.188199	 0.299473	 -0.001416
H	 0.857046	 -1.152781	 -0.871031
H	 0.857910	 -1.151798	 0.871202
C	 3.437151	 -0.577593	 -0.000991
H	 2.209565	 0.950707	 -0.871712
H	 2.210062	 0.952234	 0.867721
C	 4.707904	 0.192267	 0.341808
H	 3.548854	 -1.041869	 -0.976710
H	 3.304468	 -1.389021	 0.708986
H	 4.886632	 0.990047	 -0.371247
H	 5.574612	 -0.458314	 0.333660
H	 4.640214	 0.640482	 1.327392

	symmetry c1
}
set optking {
	frozen_dihedral = ("
		19 15 12 16
	")
}

ee,wfn = optimize('scf', return_wfn=True)
oeprop( wfn, 'DIPOLE', 'QUADRUPOLE', 'MULLIKEN_CHARGES')
f=open( 'psi4out.xyz', 'w' )
f.write( "23  " )
f.write( str(ee) + "\n" )
f.write( MOL.save_string_xyz() )
f.close()
--------------------------------------------------------------------------

    Molecular point group: c1
  Charge       = 0
  Multiplicity = 1
  Basis Set: CC-PVTZ
  Basis Set:
  @DF-RHF Final Energy:  -423.13404956399904
    Total Energy =                       -423.1340495639991559
    Molecular point group: c1
  Basis Set: CC-PVTZ
  Basis Set:
  Basis Set: CC-PVTZ
  Basis Set:
  @DF-RHF Final Energy:  -423.13392709606541
    Total Energy =                       -423.1339270960656904
  Basis Set: CC-PVTZ
  Basis Set:
  Basis Set: CC-PVTZ
  Basis Set:
  @DF-RHF Final Energy:  -423.13371997074177
    Total Energy =                       -423.1337199707418222
  Basis Set: CC-PVTZ
  Basis Set:
  Basis Set: CC-PVTZ
  Basis Set:
  @DF-RHF Final Energy:  -423.13416200104740
    Total Energy =                       -423.1341620010473434
  Basis Set: CC-PVTZ
  Basis Set:
  Basis Set: CC-PVTZ
  Basis Set:
  @DF-RHF Final Energy:  -423.13417274776725
    Total Energy =                       -423.1341727477670247
  Basis Set: CC-PVTZ
  Basis Set:
  Basis Set: CC-PVTZ
  Basis Set:
  @DF-RHF Final Energy:  -423.13417662867676
    Total Energy =                       -423.1341766286769825
  Basis Set: CC-PVTZ
  Basis Set:
  Charge       = 0
  Multiplicity = 1
  Basis Set: CC-PVTZ
  Basis Set:

    Orbital Energies (a.u.)
    -----------------------

    Doubly Occupied:

       1A    -20.595896     2A    -20.529509     3A    -11.366379
       4A    -11.279351     5A    -11.230655     6A    -11.222206
       7A    -11.221377     8A    -11.219518     9A    -11.210760
      10A     -1.471127    11A     -1.363982    12A     -1.095116
      13A     -1.043118    14A     -1.004184    15A     -0.931543
      16A     -0.842106    17A     -0.802852    18A     -0.775996
      19A     -0.694841    20A     -0.688277    21A     -0.671277
      22A     -0.648221    23A     -0.607559    24A     -0.589268
      25A     -0.584011    26A     -0.568347    27A     -0.558419
      28A     -0.537989    29A     -0.524524    30A     -0.505213
      31A     -0.492660    32A     -0.477007    33A     -0.471665
      34A     -0.466555    35A     -0.455219    36A     -0.438783

  @DF-RHF Final Energy:  -423.13417667161502

   => Energetics <=

    Nuclear Repulsion Energy =            450.4798796413359696
    One-Electron Energy =               -1468.8570899254859796
    Two-Electron Energy =                 595.2430336125351005
    DFT Exchange-Correlation Energy =       0.0000000000000000
    Empirical Dispersion Energy =           0.0000000000000000
    PCM Polarization Energy =               0.0000000000000000
    EFP Energy =                            0.0000000000000000
    Total Energy =                       -423.1341766716149095
    Molecular point group: c1
  Basis Set: CC-PVTZ
  Basis Set:

  -Total Gradient:
     Atom            X                  Y                   Z
    ------   -----------------  -----------------  -----------------
       1       -0.000001675324    -0.000014800072     0.000002565351
       2       -0.000015069133     0.000010966939     0.000010173842
       3        0.000001221127     0.000005607837    -0.000002202329
       4        0.000005692655    -0.000004897320     0.000016115286
       5        0.000002748904    -0.000002068524     0.000002244944
       6        0.000001685872     0.000004193891    -0.000000432510
       7        0.000004480943     0.000001780938    -0.000005777699
       8        0.000000756922     0.000004239827    -0.000046354001
       9        0.000008225288     0.000001956831    -0.000002897248
      10        0.000008682250    -0.000001736388     0.000011553300
      11       -0.000009052428    -0.000001265150     0.000006229333
      12        0.001947649166     0.002648703015     0.001515767395
      13       -0.000004834495     0.000001040492     0.000000063694
      14        0.000007292599    -0.000000510015    -0.000002666634
      15       -0.002057798785    -0.002900968659     0.000683875040
      16       -0.001323352818    -0.001768351818    -0.001379028387
      17        0.000002130792     0.000001265634    -0.000002750275
      18       -0.000004665689    -0.000003894020    -0.000005444697
      19        0.001432727054     0.002024981071    -0.000797127014
      20        0.000002303822    -0.000001554975    -0.000000672548
      21       -0.000000460466    -0.000006784672     0.000010465750
      22       -0.000009896169     0.000009643122    -0.000000582021
      23        0.000001207906    -0.000007547984    -0.000013118569

  **** Optimization is complete! (in 7 steps) ****
    Final optimized geometry and variables:
    Molecular point group: c1

    Geometry (in Angstrom), charge = 0, multiplicity = 1:

    O           -2.804032394282     1.333242104956    -0.053455974203
    C           -2.661588936953     0.157598747115    -0.045127835206
    C           -3.803754957616    -0.822256298902    -0.047214838673
    O           -1.483395472568    -0.435286406487    -0.032945628389
    H           -4.409449564645    -0.642606701691    -0.925297319127
    H           -3.458462630958    -1.843737707607    -0.040054489597
    H           -4.419879605869    -0.634034790682     0.821789794823
    C           -0.327131125683     0.391185770603    -0.029889618797
    C            0.889505941442    -0.509127956397    -0.014243097934
    H           -0.342908330320     1.022511284324    -0.907700519928
    H           -0.356033408002     1.034324000797     0.839097234037
    C            2.193184309722     0.285890054032    -0.000046419840
    H            0.859685646251    -1.156660951210    -0.884921938177
    H            0.839173586085    -1.153737507096     0.857209681594
    C            3.432221728358    -0.607077337838    -0.040324972018
    H            2.206507592793     0.948864861540    -0.861280433826
    H            2.224252664753     0.915321301492     0.885065835010
    C            4.721319297435     0.153538883762     0.256356377695
    H            3.514150629678    -1.055671254994    -1.025969346173
    H            3.321352315885    -1.420510599860     0.670185285162
    H            4.864887085851     0.968409990384    -0.445574071954
    H            5.585309628815    -0.497219198880     0.187508565102
    H            4.704961485668     0.577980490090     1.254490727230

  Mulliken Charges: (a.u.)
   Center  Symbol    Alpha    Beta     Spin     Total
       1     O     4.20243  4.20243  0.00000 -0.40486
       2     C     2.81522  2.81522  0.00000  0.36957
       3     C     3.14002  3.14002  0.00000 -0.28005
       4     O     4.14462  4.14462  0.00000 -0.28925
       5     H     0.44211  0.44211  0.00000  0.11577
       6     H     0.44186  0.44186  0.00000  0.11629
       7     H     0.44214  0.44214  0.00000  0.11573
       8     C     2.97905  2.97905  0.00000  0.04191
       9     C     3.08130  3.08130  0.00000 -0.16260
      10     H     0.45400  0.45400  0.00000  0.09200
      11     H     0.45415  0.45415  0.00000  0.09169
      12     C     3.09787  3.09787  0.00000 -0.19574
      13     H     0.45089  0.45089  0.00000  0.09823
      14     H     0.45087  0.45087  0.00000  0.09825
      15     C     3.08514  3.08514  0.00000 -0.17028
      16     H     0.45237  0.45237  0.00000  0.09526
      17     H     0.45297  0.45297  0.00000  0.09406
      18     C     3.14927  3.14927  0.00000 -0.29854
      19     H     0.45271  0.45271  0.00000  0.09458
      20     H     0.45382  0.45382  0.00000  0.09237
      21     H     0.45444  0.45444  0.00000  0.09111
      22     H     0.44797  0.44797  0.00000  0.10405
      23     H     0.45478  0.45478  0.00000  0.09045

   Total alpha = 36.00000, Total beta = 36.00000, Total charge = -0.00000

*** Psi4 exiting successfully. Buy a developer a beer!
