  ==> Input File <==

--------------------------------------------------------------------------
set {
	reference rhf
	basis 6-31G*
}

set_num_threads( 4 )
memory 2 gb

molecule MOL {
0 1

O	 0.749854	 1.307668	 -0.000040
C	 0.576249	 0.131685	 -0.000108
C	 -0.766779	 -0.556801	 -0.000461
O	 1.568443	 -0.749345	 -0.000005
C	 -1.945214	 0.412366	 0.000161
H	 -0.796911	 -1.211249	 -0.867467
H	 -0.796854	 -1.212390	 0.865687
C	 -3.287791	 -0.317055	 0.000105
H	 -1.876087	 1.060580	 -0.866812
H	 -1.875822	 1.059691	 0.867761
H	 -3.394745	 -0.949193	 -0.877058
H	 -4.111778	 0.388953	 0.000015
H	 -3.394954	 -0.949187	 0.877259
C	 2.194319	 -1.012270	 1.242717
H	 2.632513	 -0.110552	 1.645746
H	 2.962100	 -1.741918	 1.037796
H	 1.481010	 -1.408033	 1.951286

	symmetry c1
}
set optking {
	frozen_dihedral = ("
		14 4 2 1
	")
}

ee = optimize('scf')
oeprop('DIPOLE', 'QUADRUPOLE', 'MULLIKEN_CHARGES')
f=open( 'psi4out.xyz', 'w' )
f.write( "17  " )
f.write( str(ee) + "\n" )
f.write( MOL.save_string_xyz() )
f.close()
--------------------------------------------------------------------------

    Molecular point group: c1
  Charge       = 0
  Multiplicity = 1
  Basis Set: 6-31G*
  Basis Set:
  @DF-RHF Final Energy:  -344.88684776380813
    Total Energy =                       -344.8868477638083050
    Molecular point group: c1
  Basis Set: 6-31G*
  Basis Set:
  Basis Set: 6-31G*
  Basis Set:
  @DF-RHF Final Energy:  -344.88508867500684
    Total Energy =                       -344.8850886750066138
  Basis Set: 6-31G*
  Basis Set:
  Basis Set: 6-31G*
  Basis Set:
  @DF-RHF Final Energy:  -344.88783310624768
    Total Energy =                       -344.8878331062475127
  Basis Set: 6-31G*
  Basis Set:
  Basis Set: 6-31G*
  Basis Set:
  @DF-RHF Final Energy:  -344.88811930245527
    Total Energy =                       -344.8881193024558343
  Basis Set: 6-31G*
  Basis Set:
  Basis Set: 6-31G*
  Basis Set:
  @DF-RHF Final Energy:  -344.88812695413759
    Total Energy =                       -344.8881269541376469
  Basis Set: 6-31G*
  Basis Set:
  Charge       = 0
  Multiplicity = 1
  Basis Set: 6-31G*
  Basis Set:

    Orbital Energies (a.u.)
    -----------------------

    Doubly Occupied:

       1A    -20.586015     2A    -20.557625     3A    -11.375459
       4A    -11.290900     5A    -11.239676     6A    -11.224515
       7A    -11.216804     8A     -1.459691     9A     -1.367306
      10A     -1.081280    11A     -0.992875    12A     -0.949885
      13A     -0.833469    14A     -0.765450    15A     -0.699160
      16A     -0.678633    17A     -0.672906    18A     -0.633684
      19A     -0.617075    20A     -0.578550    21A     -0.565829
      22A     -0.538068    23A     -0.518575    24A     -0.495459
      25A     -0.492236    26A     -0.481366    27A     -0.453492
      28A     -0.435621

  @DF-RHF Final Energy:  -344.88812789804058

   => Energetics <=

    Nuclear Repulsion Energy =            312.1813477240974635
    One-Electron Energy =               -1088.5357445609920433
    Two-Electron Energy =                 431.4662689388540002
    DFT Exchange-Correlation Energy =       0.0000000000000000
    Empirical Dispersion Energy =           0.0000000000000000
    PCM Polarization Energy =               0.0000000000000000
    EFP Energy =                            0.0000000000000000
    Total Energy =                       -344.8881278980405796
    Molecular point group: c1
  Basis Set: 6-31G*
  Basis Set:

  -Total Gradient:
     Atom            X                  Y                   Z
    ------   -----------------  -----------------  -----------------
       1       -0.000253784553    -0.000143140588    -0.005099557381
       2       -0.000794684290    -0.001292345161     0.007855030419
       3        0.000027870542     0.000042733303    -0.000011760203
       4        0.003634855203     0.004405145932    -0.003682322497
       5       -0.000015777395     0.000002231799    -0.000003790030
       6        0.000005869695     0.000006749555     0.000011539613
       7        0.000005303917    -0.000003771710     0.000012257154
       8       -0.000007858875     0.000005551392     0.000004840838
       9        0.000003793341    -0.000004072704    -0.000001210660
      10        0.000000394564    -0.000002694964    -0.000003027627
      11       -0.000001678791     0.000002877629    -0.000005027197
      12       -0.000002046176    -0.000003099190     0.000002753030
      13        0.000000008787    -0.000003693212     0.000001589011
      14       -0.002622309476    -0.003006988461     0.000916565961
      15        0.000009618220    -0.000002736268    -0.000010571131
      16       -0.000000205508     0.000007973406     0.000000719587
      17        0.000010630793    -0.000010720754     0.000011971114

  **** Optimization is complete! (in 6 steps) ****
    Final optimized geometry and variables:
    Molecular point group: c1

    Geometry (in Angstrom), charge = 0, multiplicity = 1:

    O            0.856288673542     1.399625973276    -0.201515259607
    C            0.668843954658     0.233319932343    -0.160394332486
    C           -0.685963028746    -0.429552129122    -0.179020690277
    O            1.687869585595    -0.656712406589    -0.179697197320
    C           -1.855506184925     0.549624353784    -0.193017680228
    H           -0.705341007589    -1.080703973698    -1.049458537074
    H           -0.740717518412    -1.094353147317     0.680754053389
    C           -3.205429414718    -0.165543017678    -0.220955889189
    H           -1.763410092655     1.201065984245    -1.055250795898
    H           -1.795551923924     1.192384858116     0.679153521500
    H           -3.303336238610    -0.790803951683    -1.103973443148
    H           -4.021846437766     0.549015266772    -0.230889798580
    H           -3.334815705308    -0.802065560403     0.650096646519
    C            2.361795851184    -0.872109121410     1.042434500330
    H            2.775892805185     0.053938431062     1.420285522531
    H            3.159238121459    -1.568718569581     0.835978912404
    H            1.694278635602    -1.302970378147     1.781802138781

  Mulliken Charges: (a.u.)
   Center  Symbol    Alpha    Beta     Spin     Total
       1     O     4.25455  4.25455  0.00000 -0.50909
       2     C     2.61325  2.61325  0.00000  0.77351
       3     C     3.20987  3.20987  0.00000 -0.41974
       4     O     4.31610  4.31610  0.00000 -0.63219
       5     C     3.15263  3.15263  0.00000 -0.30525
       6     H     0.39790  0.39790  0.00000  0.20419
       7     H     0.40788  0.40788  0.00000  0.18423
       8     C     3.24266  3.24266  0.00000 -0.48531
       9     H     0.40891  0.40891  0.00000  0.18218
      10     H     0.41241  0.41241  0.00000  0.17518
      11     H     0.42056  0.42056  0.00000  0.15888
      12     H     0.41461  0.41461  0.00000  0.17078
      13     H     0.42203  0.42203  0.00000  0.15594
      14     C     3.09335  3.09335  0.00000 -0.18670
      15     H     0.40753  0.40753  0.00000  0.18495
      16     H     0.40317  0.40317  0.00000  0.19366
      17     H     0.42260  0.42260  0.00000  0.15480

   Total alpha = 28.00000, Total beta = 28.00000, Total charge =  0.00000
