                              Psi4 1.0.54 Driver

  ==> Input File <==

--------------------------------------------------------------------------
set {
	reference rhf
	basis cc-pvtz
}

set_num_threads( 4 )
memory 2 gb

molecule MOL {
0 1

H	 -2.698799	 -0.000846	 0.036018
C	 -1.694291	 -0.000483	 0.434279
O	 -0.828718	 -0.000608	 -0.655022
H	 -1.576855	 0.881100	 1.056504
H	 -1.576401	 -0.881658	 1.057001
C	 0.557892	 0.000078	 -0.420099
C	 0.940285	 0.790063	 0.826485
C	 1.152734	 -1.403635	 -0.420995
H	 0.954149	 0.526972	 -1.279158
H	 0.471169	 1.766179	 0.812815
H	 2.014697	 0.929302	 0.858058
H	 0.650217	 0.281974	 1.738784
H	 0.831025	 -1.948816	 -1.299816
H	 2.234885	 -1.344166	 -0.434659
H	 0.868215	 -1.969953	 0.458138

	symmetry c1
}
set optking {
	frozen_dihedral = ("
		9 6 3 2
	")
}

ee,wfn = optimize('scf', return_wfn=True)
oeprop( wfn, 'DIPOLE', 'QUADRUPOLE', 'MULLIKEN_CHARGES')
f=open( 'psi4out.xyz', 'w' )
f.write( "15  " )
f.write( str(ee) + "\n" )
f.write( MOL.save_string_xyz() )
f.close()
--------------------------------------------------------------------------

    Molecular point group: c1
  Charge       = 0
  Multiplicity = 1
  Basis Set: CC-PVTZ
  Basis Set:
  @DF-RHF Final Energy:  -232.22336551986248
    Total Energy =                       -232.2233655198622841
    Molecular point group: c1
  Basis Set: CC-PVTZ
  Basis Set:
  Basis Set: CC-PVTZ
  Basis Set:
  @DF-RHF Final Energy:  -232.22383963529094
    Total Energy =                       -232.2238396352907444
  Basis Set: CC-PVTZ
  Basis Set:
  Basis Set: CC-PVTZ
  Basis Set:
  @DF-RHF Final Energy:  -232.22438479712685
    Total Energy =                       -232.2243847971269020
  Basis Set: CC-PVTZ
  Basis Set:
  Basis Set: CC-PVTZ
  Basis Set:
  @DF-RHF Final Energy:  -232.22440781415798
    Total Energy =                       -232.2244078141581554
  Basis Set: CC-PVTZ
  Basis Set:
  Basis Set: CC-PVTZ
  Basis Set:
  @DF-RHF Final Energy:  -232.22441591144957
    Total Energy =                       -232.2244159114495119
  Basis Set: CC-PVTZ
  Basis Set:
  Charge       = 0
  Multiplicity = 1
  Basis Set: CC-PVTZ
  Basis Set:

    Orbital Energies (a.u.)
    -----------------------

    Doubly Occupied:

       1A    -20.540429     2A    -11.272795     3A    -11.259360
       4A    -11.211912     5A    -11.205780     6A     -1.371847
       7A     -1.052280     8A     -0.945579     9A     -0.924989
      10A     -0.781416    11A     -0.676318    12A     -0.643825
      13A     -0.634084    14A     -0.577687    15A     -0.556850
      16A     -0.551254    17A     -0.535141    18A     -0.504903
      19A     -0.494550    20A     -0.445950    21A     -0.405648

  @DF-RHF Final Energy:  -232.22441620698831

   => Energetics <=

    Nuclear Repulsion Energy =            198.8398220642610283
    One-Electron Energy =                -708.9432844595706911
    Two-Electron Energy =                 277.8790461883212970
    DFT Exchange-Correlation Energy =       0.0000000000000000
    Empirical Dispersion Energy =           0.0000000000000000
    PCM Polarization Energy =               0.0000000000000000
    EFP Energy =                            0.0000000000000000
    Total Energy =                       -232.2244162069883373
    Molecular point group: c1
  Basis Set: CC-PVTZ
  Basis Set:

  -Total Gradient:
     Atom            X                  Y                   Z
    ------   -----------------  -----------------  -----------------
       1        0.000021864388    -0.000001060770    -0.000006891968
       2        0.000020650917     0.003132229037     0.000102468118
       3       -0.000000574978    -0.004075936562     0.000158831198
       4       -0.000001039565     0.000002536279     0.000001286335
       5       -0.000017216599     0.000006324676     0.000002504088
       6        0.000243543082    -0.002160958553    -0.002100599187
       7        0.000027760919     0.000029973659     0.000014397834
       8        0.000044631662    -0.000003667258    -0.000032806654
       9       -0.000339427057     0.003070491665     0.001866125853
      10        0.000012142550    -0.000003823689     0.000001202778
      11       -0.000003175769     0.000003781001     0.000010514497
      12       -0.000006646703     0.000006291406    -0.000000745647
      13        0.000000156769    -0.000020688727    -0.000004706853
      14       -0.000000503633    -0.000009817487    -0.000006606953
      15       -0.000002165984     0.000024325324    -0.000004973438

  **** Optimization is complete! (in 6 steps) ****
    Final optimized geometry and variables:
    Molecular point group: c1

    Geometry (in Angstrom), charge = 0, multiplicity = 1:

    H           -2.703075192443     0.012099190025     0.056526487129
    C           -1.707828283190     0.111815542980     0.465734482830
    O           -0.831474221942     0.144538156654    -0.613480969651
    H           -1.671267289612     1.021431230324     1.055396509034
    H           -1.527455814624    -0.734146094823     1.124198021807
    C            0.559325550769     0.141856334916    -0.384212301869
    C            0.990370049607     0.894138116180     0.870776770642
    C            1.091510734490    -1.283703236980    -0.411609044280
    H            0.966689050365     0.692236379152    -1.224074480941
    H            0.598020199844     1.903740768117     0.874253749933
    H            2.071721384656     0.957804998879     0.889769117843
    H            0.674419276699     0.398453104328     1.780959173961
    H            0.794824825806    -1.774257030806    -1.329670211355
    H            2.174132182738    -1.292289557087    -0.350365041146
    H            0.704518106336    -1.860940860436     0.421492756772

  Mulliken Charges: (a.u.)
   Center  Symbol    Alpha    Beta     Spin     Total
       1     H     0.44197  0.44197  0.00000  0.11606
       2     C     3.03879  3.03879  0.00000 -0.07758
       3     O     4.18684  4.18684  0.00000 -0.37368
       4     H     0.46756  0.46756  0.00000  0.06489
       5     H     0.47119  0.47119  0.00000  0.05763
       6     C     2.93216  2.93216  0.00000  0.13568
       7     C     3.16887  3.16887  0.00000 -0.33774
       8     C     3.14410  3.14410  0.00000 -0.28819
       9     H     0.44860  0.44860  0.00000  0.10280
      10     H     0.44436  0.44436  0.00000  0.11128
      11     H     0.44532  0.44532  0.00000  0.10936
      12     H     0.45186  0.45186  0.00000  0.09629
      13     H     0.44584  0.44584  0.00000  0.10833
      14     H     0.45552  0.45552  0.00000  0.08896
      15     H     0.45705  0.45705  0.00000  0.08591

   Total alpha = 21.00000, Total beta = 21.00000, Total charge = -0.00000

*** Psi4 exiting successfully. Buy a developer a beer!
