  ==> Input File <==

--------------------------------------------------------------------------
set {
	reference rhf
	basis cc-pvtz
}

set_num_threads( 4 )
memory 2 gb

molecule MOL {
0 1

H	 -0.485477	 -1.631340	 -0.153906
N	 -0.625934	 -0.663929	 -0.000707
C	 -1.978635	 -0.158664	 0.001017
C	 0.462495	 0.112303	 0.197708
H	 -2.519057	 -0.493535	 -0.876362
H	 -1.938890	 0.917202	 -0.004137
H	 -2.514266	 -0.485137	 0.884506
C	 1.780699	 -0.629059	 0.158470
O	 0.401261	 1.289669	 0.395532
H	 1.919600	 -1.102718	 -0.806389
H	 2.580988	 0.070991	 0.333208
H	 1.804006	 -1.401373	 0.918474

	symmetry c1
}
set optking {
	frozen_dihedral = ("
		4 2 3 5
	")
}

ee = optimize('scf')
oeprop('DIPOLE', 'QUADRUPOLE', 'MULLIKEN_CHARGES')
f=open( 'psi4out.xyz', 'w' )
f.write( "12  " )
f.write( str(ee) + "\n" )
f.write( MOL.save_string_xyz() )
f.close()
--------------------------------------------------------------------------

    Molecular point group: c1
  Charge       = 0
  Multiplicity = 1
  Basis Set: CC-PVTZ
  Basis Set:
  @DF-RHF Final Energy:  -247.10097165076905
    Total Energy =                       -247.1009716507693383
    Molecular point group: c1
  Basis Set: CC-PVTZ
  Basis Set:
  Basis Set: CC-PVTZ
  Basis Set:
  @DF-RHF Final Energy:  -247.10094777432067
    Total Energy =                       -247.1009477743206730
  Basis Set: CC-PVTZ
  Basis Set:
  Basis Set: CC-PVTZ
  Basis Set:
  @DF-RHF Final Energy:  -247.10097499253533
    Total Energy =                       -247.1009749925353276
  Basis Set: CC-PVTZ
  Basis Set:
  Basis Set: CC-PVTZ
  Basis Set:
  @DF-RHF Final Energy:  -247.10100579712278
    Total Energy =                       -247.1010057971226388
  Basis Set: CC-PVTZ
  Basis Set:
  Basis Set: CC-PVTZ
  Basis Set:
  @DF-RHF Final Energy:  -247.10100821502488
    Total Energy =                       -247.1010082150248763
  Basis Set: CC-PVTZ
  Basis Set:
  Basis Set: CC-PVTZ
  Basis Set:
  @DF-RHF Final Energy:  -247.10101087091033
    Total Energy =                       -247.1010108709103292
  Basis Set: CC-PVTZ
  Basis Set:
  Charge       = 0
  Multiplicity = 1
  Basis Set: CC-PVTZ
  Basis Set:

    Orbital Energies (a.u.)
    -----------------------

    Doubly Occupied:

       1A    -20.506713     2A    -15.574867     3A    -11.336829
       4A    -11.252472     5A    -11.228076     6A     -1.388532
       7A     -1.231014     8A     -1.016694     9A     -0.932862
      10A     -0.788217    11A     -0.690950    12A     -0.651690
      13A     -0.635423    14A     -0.586809    15A     -0.582970
      16A     -0.555639    17A     -0.544929    18A     -0.511209
      19A     -0.417325    20A     -0.389401

  @DF-RHF Final Energy:  -247.10101104538694

   => Energetics <=

    Nuclear Repulsion Energy =            181.6488478978138801
    One-Electron Energy =                -695.8544731176612004
    Two-Electron Energy =                 267.1046141744604938
    DFT Exchange-Correlation Energy =       0.0000000000000000
    Empirical Dispersion Energy =           0.0000000000000000
    PCM Polarization Energy =               0.0000000000000000
    EFP Energy =                            0.0000000000000000
    Total Energy =                       -247.1010110453868265
    Molecular point group: c1
  Basis Set: CC-PVTZ
  Basis Set:

  -Total Gradient:
     Atom            X                  Y                   Z
    ------   -----------------  -----------------  -----------------
       1       -0.000002840956    -0.000000712153     0.000010210060
       2       -0.000002521784    -0.000001983318     0.000171303327
       3       -0.000042285545    -0.000134688025    -0.000000493403
       4        0.000010533853     0.000029315374    -0.000144643587
       5        0.000035290721     0.000111153095    -0.000061134267
       6       -0.000001072291     0.000002370230     0.000003519548
       7        0.000006923507     0.000000368694     0.000004451125
       8       -0.000003305381    -0.000005778165     0.000034178792
       9       -0.000001070825    -0.000001729845    -0.000000865292
      10       -0.000006604180     0.000013411207    -0.000007701020
      11       -0.000000970850    -0.000000700427     0.000001958815
      12        0.000007923730    -0.000011026667    -0.000010784099

  **** Optimization is complete! (in 7 steps) ****
    Final optimized geometry and variables:
    Molecular point group: c1

    Geometry (in Angstrom), charge = 0, multiplicity = 1:

    H           -0.482545378313    -1.622261593244    -0.284041248385
    N           -0.620512984681    -0.650148837400    -0.160838484379
    C           -1.973273555603    -0.145478065561    -0.143662302113
    C            0.467014262270     0.124464936016     0.049638838829
    H           -2.508628039779    -0.467102192390    -1.028324618166
    H           -1.935552629708     0.930609284062    -0.130237644217
    H           -2.513217315791    -0.485197932189     0.732905032904
    C            1.785789939820    -0.616449944521     0.013069518189
    O            0.404090816700     1.301938304902     0.245451879892
    H            1.923047761244    -1.098174032360    -0.947961725873
    H            2.586102066547     0.085311152045     0.181158277332
    H            1.810880268940    -1.382331089590     0.779653466569

  Mulliken Charges: (a.u.)
   Center  Symbol    Alpha    Beta     Spin     Total
       1     H     0.41044  0.41044  0.00000  0.17912
       2     N     3.62167  3.62167  0.00000 -0.24335
       3     C     3.08546  3.08546  0.00000 -0.17092
       4     C     2.83664  2.83664  0.00000  0.32671
       5     H     0.45520  0.45520  0.00000  0.08960
       6     H     0.43158  0.43158  0.00000  0.13683
       7     H     0.45630  0.45630  0.00000  0.08741
       8     C     3.15358  3.15358  0.00000 -0.30716
       9     O     4.21549  4.21549  0.00000 -0.43099
      10     H     0.44978  0.44978  0.00000  0.10043
      11     H     0.43354  0.43354  0.00000  0.13293
      12     H     0.45031  0.45031  0.00000  0.09938

   Total alpha = 20.00000, Total beta = 20.00000, Total charge = -0.00000
