  ==> Input File <==

--------------------------------------------------------------------------
set {
	reference rhf
	basis 6-31G*
}

set_num_threads( 4 )
memory 2 gb

molecule MOL {
0 1

H	 2.176868	 -0.646004	 -0.217325
O	 1.337496	 -0.537251	 0.205931
C	 0.702312	 0.627605	 -0.264544
C	 -0.714990	 0.596302	 0.266387
H	 0.682322	 0.642550	 -1.350929
H	 1.215941	 1.520383	 0.085680
O	 -1.405996	 -0.526611	 -0.195820
H	 -1.257453	 1.468809	 -0.075599
H	 -0.688972	 0.618407	 1.353696
H	 -0.806652	 -1.261800	 -0.178536

	symmetry c1
}
set optking {
	frozen_dihedral = ("
		10 7 4 3
	")
}

ee = optimize('scf')
oeprop('DIPOLE', 'QUADRUPOLE', 'MULLIKEN_CHARGES')
f=open( 'psi4out.xyz', 'w' )
f.write( "10  " )
f.write( str(ee) + "\n" )
f.write( MOL.save_string_xyz() )
f.close()
--------------------------------------------------------------------------

    Molecular point group: c1
  Charge       = 0
  Multiplicity = 1
  Basis Set: 6-31G*
  Basis Set:
  @DF-RHF Final Energy:  -228.92495135485132
    Total Energy =                       -228.9249513548513448
    Molecular point group: c1
  Basis Set: 6-31G*
  Basis Set:
  Basis Set: 6-31G*
  Basis Set:
  @DF-RHF Final Energy:  -228.92496108255250
    Total Energy =                       -228.9249610825524144
  Basis Set: 6-31G*
  Basis Set:
  Basis Set: 6-31G*
  Basis Set:
  @DF-RHF Final Energy:  -228.92503672436953
    Total Energy =                       -228.9250367243695905
  Basis Set: 6-31G*
  Basis Set:
  Charge       = 0
  Multiplicity = 1
  Basis Set: 6-31G*
  Basis Set:

    Orbital Energies (a.u.)
    -----------------------

    Doubly Occupied:

       1A    -20.573172     2A    -20.546114     3A    -11.279254
       4A    -11.267896     5A     -1.385532     6A     -1.349468
       7A     -1.002884     8A     -0.845069     9A     -0.730360
      10A     -0.673707    11A     -0.655701    12A     -0.602893
      13A     -0.574525    14A     -0.536998    15A     -0.486227
      16A     -0.457213    17A     -0.431016

  @DF-RHF Final Energy:  -228.92503732528363

   => Energetics <=

    Nuclear Repulsion Energy =            134.8282393103750962
    One-Electron Energy =                -580.7104965189062113
    Two-Electron Energy =                 216.9572198832476033
    DFT Exchange-Correlation Energy =       0.0000000000000000
    Empirical Dispersion Energy =           0.0000000000000000
    PCM Polarization Energy =               0.0000000000000000
    EFP Energy =                            0.0000000000000000
    Total Energy =                       -228.9250373252834834
    Molecular point group: c1
  Basis Set: 6-31G*
  Basis Set:

  -Total Gradient:
     Atom            X                  Y                   Z
    ------   -----------------  -----------------  -----------------
       1       -0.000013377450     0.000011323075    -0.000007001104
       2       -0.000065243540    -0.000067627313     0.000019466527
       3        0.000536557550    -0.000773189572     0.001329176070
       4       -0.000506996405     0.001281454129    -0.002288551573
       5       -0.000031121419     0.000001177774    -0.000000938578
       6       -0.000052845348     0.000043521918    -0.000005123069
       7       -0.000658403601    -0.000971165282     0.003349651508
       8        0.000041704397     0.000022995688    -0.000007140411
       9        0.000028223333     0.000017593080    -0.000006445851
      10        0.000721502484     0.000433916505    -0.002383093517

  **** Optimization is complete! (in 4 steps) ****
    Final optimized geometry and variables:
    Molecular point group: c1

    Geometry (in Angstrom), charge = 0, multiplicity = 1:

    H            2.172514977674    -0.644737786796    -0.222883345580
    O            1.324428215370    -0.548098000989     0.185967784108
    C            0.704034898683     0.636071348509    -0.254594243780
    C           -0.718080595806     0.604435487932     0.266073989653
    H            0.695661714462     0.680902100233    -1.340803183266
    H            1.221914807682     1.514254567542     0.123700746753
    O           -1.398198926866    -0.533680458491    -0.174848715449
    H           -1.261822434475     1.470929413140    -0.089614655421
    H           -0.696025720777     0.641263451060     1.353100890473
    H           -0.794208909655    -1.264504948389    -0.136655508917

  Mulliken Charges: (a.u.)
   Center  Symbol    Alpha    Beta     Spin     Total
       1     H     0.27571  0.27571  0.00000  0.44857
       2     O     4.37721  4.37721  0.00000 -0.75442
       3     C     3.01879  3.01879  0.00000 -0.03758
       4     C     2.99012  2.99012  0.00000  0.01976
       5     H     0.42304  0.42304  0.00000  0.15393
       6     H     0.42609  0.42609  0.00000  0.14782
       7     O     4.37623  4.37623  0.00000 -0.75245
       8     H     0.41828  0.41828  0.00000  0.16344
       9     H     0.42369  0.42369  0.00000  0.15261
      10     H     0.27084  0.27084  0.00000  0.45832

   Total alpha = 17.00000, Total beta = 17.00000, Total charge =  0.00000
