  ==> Input File <==

--------------------------------------------------------------------------
set {
	reference rhf
	basis 6-31G*
}

set_num_threads( 1 )
memory 2 gb

molecule MOL {
0 1

H	 -2.547412	 -0.733849	 0.266986
O	 -2.264925	 -0.068557	 0.878521
C	 -1.142126	 0.597479	 0.365972
C	 0.103798	 -0.264583	 0.466915
H	 -1.292947	 0.902546	 -0.665796
H	 -1.010590	 1.492444	 0.957737
O	 1.171513	 0.459272	 -0.058250
H	 -0.038319	 -1.194659	 -0.086928
H	 0.281748	 -0.529009	 1.507586
C	 2.397842	 -0.198080	 -0.002151
H	 2.508049	 -0.905315	 -0.822092
H	 3.173794	 0.550865	 -0.078850
H	 2.517602	 -0.735921	 0.936026

	symmetry c1
}
set optking {
	frozen_dihedral = ("
		8 4 3 5,
		1 2 3 5,
		10 7 4 8
	")
}

ee = energy('scf')
oeprop('DIPOLE', 'QUADRUPOLE', 'MULLIKEN_CHARGES')
f=open( 'psi4out.xyz', 'w' )
f.write( "13  " )
f.write( str(ee) + "\n" )
f.write( MOL.save_string_xyz() )
f.close()
--------------------------------------------------------------------------

    Molecular point group: c1

    Geometry (in Angstrom), charge = 0, multiplicity = 1:

       Center              X                  Y                   Z               Mass
    ------------   -----------------  -----------------  -----------------  -----------------
           H         -2.579563087881    -0.822016145300    -0.063304966719     1.007825032070
           O         -2.297076087881    -0.156724145300     0.548230033281    15.994914619560
           C         -1.174277087881     0.509311854700     0.035681033281    12.000000000000
           C          0.071646912119    -0.352750145300     0.136624033281    12.000000000000
           H         -1.325098087881     0.814378854700    -0.996086966719     1.007825032070
           H         -1.042741087881     1.404276854700     0.627446033281     1.007825032070
           O          1.139361912119     0.371104854700    -0.388540966719    15.994914619560
           H         -0.070470087881    -1.282826145300    -0.417218966719     1.007825032070
           H          0.249596912119    -0.617176145300     1.177295033281     1.007825032070
           C          2.365690912119    -0.286247145300    -0.332441966719    12.000000000000
           H          2.475897912119    -0.993482145300    -1.152382966719     1.007825032070
           H          3.141642912119     0.462697854700    -0.409140966719     1.007825032070
           H          2.485450912119    -0.824088145300     0.605735033281     1.007825032070

  Charge       = 0
  Multiplicity = 1
  Basis Set: 6-31G*
  Basis Set:

    Orbital Energies (a.u.)
    -----------------------

    Doubly Occupied:

       1A    -20.561809     2A    -20.560129     3A    -11.271059
       4A    -11.270002     5A    -11.268907     6A     -1.388719
       7A     -1.365179     8A     -1.018466     9A     -0.913306
      10A     -0.842204    11A     -0.709646    12A     -0.673389
      13A     -0.660193    14A     -0.638109    15A     -0.595260
      16A     -0.570262    17A     -0.545004    18A     -0.490347
      19A     -0.481868    20A     -0.438416    21A     -0.420824

  @DF-RHF Final Energy:  -267.94957908609013

   => Energetics <=

    Nuclear Repulsion Energy =            190.2543872919169132
    One-Electron Energy =                -743.0417619742264606
    Two-Electron Energy =                 284.8377955962199621
    DFT Exchange-Correlation Energy =       0.0000000000000000
    Empirical Dispersion Energy =           0.0000000000000000
    PCM Polarization Energy =               0.0000000000000000
    EFP Energy =                            0.0000000000000000
    Total Energy =                       -267.9495790860895568

  Mulliken Charges: (a.u.)
   Center  Symbol    Alpha    Beta     Spin     Total
       1     H     0.28125  0.28125  0.00000  0.43749
       2     O     4.37088  4.37088  0.00000 -0.74177
       3     C     3.00478  3.00478  0.00000 -0.00955
       4     C     2.99710  2.99710  0.00000  0.00580
       5     H     0.42225  0.42225  0.00000  0.15549
       6     H     0.40847  0.40847  0.00000  0.18305
       7     O     4.30791  4.30791  0.00000 -0.61582
       8     H     0.43780  0.43780  0.00000  0.12439
       9     H     0.42266  0.42266  0.00000  0.15468
      10     C     3.07919  3.07919  0.00000 -0.15837
      11     H     0.42701  0.42701  0.00000  0.14597
      12     H     0.41179  0.41179  0.00000  0.17642
      13     H     0.42889  0.42889  0.00000  0.14221

   Total alpha = 21.00000, Total beta = 21.00000, Total charge =  0.00000
