  ==> Input File <==

--------------------------------------------------------------------------
set {
	reference rhf
	basis cc-pvtz
}

set_num_threads( 4 )
memory 2 gb

molecule MOL {
0 1

H	 2.166625	 -0.614219	 0.741932
C	 1.931612	 -0.322383	 -0.290180
C	 0.660282	 0.462747	 -0.457780
O	 2.656359	 -0.631316	 -1.171620
C	 -0.554654	 -0.292621	 0.086567
H	 0.539466	 0.700067	 -1.506551
H	 0.779631	 1.395965	 0.088790
C	 -1.846385	 0.513195	 -0.016346
H	 -0.667411	 -1.226251	 -0.457086
H	 -0.380410	 -0.560223	 1.125653
C	 -3.089953	 -0.365049	 -0.098564
H	 -1.798267	 1.154820	 -0.891143
H	 -1.925398	 1.173265	 0.842889
H	 -3.055079	 -1.012299	 -0.968245
H	 -3.988403	 0.236438	 -0.170014
H	 -3.183055	 -0.995885	 0.779079

	symmetry c1
}
set optking {
	frozen_dihedral = ("
		9 5 8 12
	")
}

ee = optimize('scf')
oeprop('DIPOLE', 'QUADRUPOLE', 'MULLIKEN_CHARGES')
f=open( 'psi4out.xyz', 'w' )
f.write( "16  " )
f.write( str(ee) + "\n" )
f.write( MOL.save_string_xyz() )
f.close()
--------------------------------------------------------------------------

    Molecular point group: c1
  Charge       = 0
  Multiplicity = 1
  Basis Set: CC-PVTZ
  Basis Set:
  @DF-RHF Final Energy:  -270.11692086994003
    Total Energy =                       -270.1169208699401452
    Molecular point group: c1
  Basis Set: CC-PVTZ
  Basis Set:
  Basis Set: CC-PVTZ
  Basis Set:
  @DF-RHF Final Energy:  -270.11716863993593
    Total Energy =                       -270.1171686399358123
  Basis Set: CC-PVTZ
  Basis Set:
  Basis Set: CC-PVTZ
  Basis Set:
  @DF-RHF Final Energy:  -270.11701390566407
    Total Energy =                       -270.1170139056641801
  Basis Set: CC-PVTZ
  Basis Set:
  Basis Set: CC-PVTZ
  Basis Set:
  @DF-RHF Final Energy:  -270.11721675679979
    Total Energy =                       -270.1172167567998486
  Basis Set: CC-PVTZ
  Basis Set:
  Basis Set: CC-PVTZ
  Basis Set:
  @DF-RHF Final Energy:  -270.11721585087901
    Total Energy =                       -270.1172158508791199
  Basis Set: CC-PVTZ
  Basis Set:
  Charge       = 0
  Multiplicity = 1
  Basis Set: CC-PVTZ
  Basis Set:

    Orbital Energies (a.u.)
    -----------------------

    Doubly Occupied:

       1A    -20.552234     2A    -11.321400     3A    -11.234832
       4A    -11.234098     5A    -11.227354     6A    -11.216911
       7A     -1.406996     8A     -1.097093     9A     -1.020302
      10A     -0.906943    11A     -0.813410    12A     -0.794681
      13A     -0.678723    14A     -0.650966    15A     -0.631369
      16A     -0.602912    17A     -0.586429    18A     -0.553967
      19A     -0.525116    20A     -0.515338    21A     -0.488956
      22A     -0.482600    23A     -0.476362    24A     -0.411643

  @DF-RHF Final Energy:  -270.11722180768498

   => Energetics <=

    Nuclear Repulsion Energy =            229.3330075846304226
    One-Electron Energy =                -820.0391871782907174
    Two-Electron Energy =                 320.5889577859755377
    DFT Exchange-Correlation Energy =       0.0000000000000000
    Empirical Dispersion Energy =           0.0000000000000000
    PCM Polarization Energy =               0.0000000000000000
    EFP Energy =                            0.0000000000000000
    Total Energy =                       -270.1172218076847571
    Molecular point group: c1
  Basis Set: CC-PVTZ
  Basis Set:

  -Total Gradient:
     Atom            X                  Y                   Z
    ------   -----------------  -----------------  -----------------
       1       -0.000001538754     0.000001322765    -0.000002091856
       2       -0.000020638795    -0.000000020929     0.000002881881
       3        0.000014549335     0.000013748876    -0.000000788286
       4        0.000013395101    -0.000006042129    -0.000007106651
       5        0.002130548133     0.003048518367    -0.003741520487
       6       -0.000004824357    -0.000007129382     0.000006914017
       7       -0.000008322468    -0.000002196811     0.000001282121
       8       -0.002473810942    -0.004184350685    -0.002066302743
       9       -0.001390777921    -0.001876966262     0.003464770029
      10        0.000009467091     0.000005158133     0.000005865703
      11       -0.000014823220    -0.000008229308     0.000002822573
      12        0.001735031400     0.003003057605     0.002320935958
      13       -0.000007066395    -0.000009235667     0.000008970328
      14        0.000009742216     0.000013178615     0.000006480984
      15        0.000000789575     0.000005720979     0.000000490781
      16        0.000008280003     0.000003465832    -0.000003604353

  **** Optimization is complete! (in 6 steps) ****
    Final optimized geometry and variables:
    Molecular point group: c1

    Geometry (in Angstrom), charge = 0, multiplicity = 1:

    H            2.185295669692    -0.481256278054     1.109549213200
    C            1.980985242174    -0.196702609668     0.068966407426
    C            0.706675606615     0.572389024243    -0.144355098724
    O            2.737830628680    -0.500257636222    -0.786978610585
    C           -0.516918919406    -0.194832245077     0.357743565827
    H            0.618973125135     0.808047990052    -1.196623330011
    H            0.794666912461     1.507406983773     0.405677740954
    C           -1.812979741878     0.617329033173     0.278422466492
    H           -0.628859298213    -1.124925661768    -0.191505457441
    H           -0.354729562444    -0.493600781471     1.390622838674
    C           -3.067347803674    -0.246208070754     0.252682843216
    H           -1.783206750657     1.271133760667    -0.587956595700
    H           -1.855629241815     1.286209380955     1.133785010695
    H           -3.088347247468    -0.878338703820    -0.628221490012
    H           -3.962484330687     0.364336304739     0.245380726854
    H           -3.114466412350    -0.891834613601     1.123481934360

  Mulliken Charges: (a.u.)
   Center  Symbol    Alpha    Beta     Spin     Total
       1     H     0.46534  0.46534  0.00000  0.06932
       2     C     2.90884  2.90884  0.00000  0.18233
       3     C     3.07763  3.07763  0.00000 -0.15526
       4     O     4.16378  4.16378  0.00000 -0.32756
       5     C     3.10343  3.10343  0.00000 -0.20686
       6     H     0.44230  0.44230  0.00000  0.11540
       7     H     0.44953  0.44953  0.00000  0.10093
       8     C     3.08527  3.08527  0.00000 -0.17054
       9     H     0.44627  0.44627  0.00000  0.10747
      10     H     0.45128  0.45128  0.00000  0.09744
      11     C     3.14775  3.14775  0.00000 -0.29551
      12     H     0.45202  0.45202  0.00000  0.09597
      13     H     0.45255  0.45255  0.00000  0.09491
      14     H     0.45297  0.45297  0.00000  0.09406
      15     H     0.44721  0.44721  0.00000  0.10558
      16     H     0.45384  0.45384  0.00000  0.09232

   Total alpha = 24.00000, Total beta = 24.00000, Total charge = -0.00000
