  ==> Input File <==

--------------------------------------------------------------------------
set {
	reference rhf
	basis 6-31G*
}

set_num_threads( 1 )
memory 2 gb

molecule MOL {
0 1

O	 0.749854	 1.307668	 -0.000040
C	 0.576249	 0.131685	 -0.000108
C	 -0.766779	 -0.556801	 -0.000461
O	 1.568443	 -0.749345	 -0.000005
C	 -1.945214	 0.412366	 0.000161
H	 -0.796911	 -1.211249	 -0.867467
H	 -0.796854	 -1.212390	 0.865687
C	 -3.287791	 -0.317055	 0.000105
H	 -1.876087	 1.060580	 -0.866812
H	 -1.875822	 1.059691	 0.867761
H	 -3.394745	 -0.949193	 -0.877058
H	 -4.111778	 0.388953	 0.000015
H	 -3.394954	 -0.949187	 0.877259
C	 1.630247	 -1.647787	 -1.092795
H	 0.733829	 -2.249129	 -1.141437
H	 2.490679	 -2.273049	 -0.912320
H	 1.747233	 -1.108684	 -2.021876

	symmetry c1
}
set optking {
	frozen_dihedral = ("
		1 2 3 6,
		9 5 3 6
	")
}

ee = energy('scf')
oeprop('DIPOLE', 'QUADRUPOLE', 'MULLIKEN_CHARGES')
f=open( 'psi4out.xyz', 'w' )
f.write( "17  " )
f.write( str(ee) + "\n" )
f.write( MOL.save_string_xyz() )
f.close()
--------------------------------------------------------------------------

    Molecular point group: c1

    Geometry (in Angstrom), charge = 0, multiplicity = 1:

       Center              X                  Y                   Z               Mass
    ------------   -----------------  -----------------  -----------------  -----------------
           O          0.943863076613     1.526175874703     0.168730105373    15.994914619560
           C          0.770258076613     0.350192874703     0.168662105373    12.000000000000
           C         -0.572769923387    -0.338293125297     0.168309105373    12.000000000000
           O          1.762452076613    -0.530837125297     0.168765105373    15.994914619560
           C         -1.751204923387     0.630873874703     0.168931105373    12.000000000000
           H         -0.602901923387    -0.992741125297    -0.698696894627     1.007825032070
           H         -0.602844923387    -0.993882125297     1.034457105373     1.007825032070
           C         -3.093781923387    -0.098547125297     0.168875105373    12.000000000000
           H         -1.682077923387     1.279087874703    -0.698041894627     1.007825032070
           H         -1.681812923387     1.278198874703     1.036531105373     1.007825032070
           H         -3.200735923387    -0.730685125297    -0.708287894627     1.007825032070
           H         -3.917768923387     0.607460874703     0.168785105373     1.007825032070
           H         -3.200944923387    -0.730679125297     1.046029105373     1.007825032070
           C          1.824256076613    -1.429279125297    -0.924024894627    12.000000000000
           H          0.927838076613    -2.030621125297    -0.972666894627     1.007825032070
           H          2.684688076613    -2.054541125297    -0.743549894627     1.007825032070
           H          1.941242076613    -0.890176125297    -1.853105894627     1.007825032070

  Charge       = 0
  Multiplicity = 1
  Basis Set: 6-31G*
  Basis Set:

    Orbital Energies (a.u.)
    -----------------------

    Doubly Occupied:

       1A    -20.593266     2A    -20.553551     3A    -11.374573
       4A    -11.297525     5A    -11.239055     6A    -11.224444
       7A    -11.217217     8A     -1.465354     9A     -1.369741
      10A     -1.081372    11A     -0.992335    12A     -0.965624
      13A     -0.838485    14A     -0.767672    15A     -0.700629
      16A     -0.682333    17A     -0.680912    18A     -0.641053
      19A     -0.615621    20A     -0.578212    21A     -0.567927
      22A     -0.552502    23A     -0.518783    24A     -0.493607
      25A     -0.489354    26A     -0.481083    27A     -0.456991
      28A     -0.433321

  @DF-RHF Final Energy:  -344.88138586329552

   => Energetics <=

    Nuclear Repulsion Energy =            315.3416916549940083
    One-Electron Energy =               -1094.7010416145531053
    Two-Electron Energy =                 434.4779640962640883
    DFT Exchange-Correlation Energy =       0.0000000000000000
    Empirical Dispersion Energy =           0.0000000000000000
    PCM Polarization Energy =               0.0000000000000000
    EFP Energy =                            0.0000000000000000
    Total Energy =                       -344.8813858632949518

  Mulliken Charges: (a.u.)
   Center  Symbol    Alpha    Beta     Spin     Total
       1     O     4.25993  4.25993  0.00000 -0.51985
       2     C     2.60812  2.60812  0.00000  0.78376
       3     C     3.22340  3.22340  0.00000 -0.44679
       4     O     4.30508  4.30508  0.00000 -0.61015
       5     C     3.15056  3.15056  0.00000 -0.30112
       6     H     0.40750  0.40750  0.00000  0.18500
       7     H     0.39903  0.39903  0.00000  0.20194
       8     C     3.24254  3.24254  0.00000 -0.48507
       9     H     0.41143  0.41143  0.00000  0.17714
      10     H     0.40897  0.40897  0.00000  0.18207
      11     H     0.42303  0.42303  0.00000  0.15394
      12     H     0.41451  0.41451  0.00000  0.17098
      13     H     0.42127  0.42127  0.00000  0.15747
      14     C     3.09789  3.09789  0.00000 -0.19578
      15     H     0.41738  0.41738  0.00000  0.16524
      16     H     0.39867  0.39867  0.00000  0.20267
      17     H     0.41071  0.41071  0.00000  0.17858

   Total alpha = 28.00000, Total beta = 28.00000, Total charge = -0.00000
