  ==> Input File <==

--------------------------------------------------------------------------
set {
	reference rhf
	basis cc-pvtz
}

set_num_threads( 4 )
memory 2 gb

molecule MOL {
0 1

H	 -2.748712	 0.170114	 -0.473864
O	 -2.041679	 -0.058866	 0.103463
C	 -0.959304	 0.780994	 -0.094939
C	 0.354905	 0.037902	 -0.006215
H	 -0.985899	 1.279578	 -1.057596
H	 -0.969809	 1.529522	 0.682889
F	 0.412060	 -0.931028	 -0.902708
F	 1.359641	 0.856111	 -0.239961
F	 0.545380	 -0.506387	 1.171682

	symmetry c1
}
set optking {
	frozen_dihedral = ("
		1 2 3 5
	")
}

ee = optimize('scf')
oeprop('DIPOLE', 'QUADRUPOLE', 'MULLIKEN_CHARGES')
f=open( 'psi4out.xyz', 'w' )
f.write( "9  " )
f.write( str(ee) + "\n" )
f.write( MOL.save_string_xyz() )
f.close()
--------------------------------------------------------------------------

    Molecular point group: c1
  Charge       = 0
  Multiplicity = 1
  Basis Set: CC-PVTZ
  Basis Set:
  @DF-RHF Final Energy:  -450.84331976894214
    Total Energy =                       -450.8433197689423650
    Molecular point group: c1
  Basis Set: CC-PVTZ
  Basis Set:
  Basis Set: CC-PVTZ
  Basis Set:
  @DF-RHF Final Energy:  -450.84421873102144
    Total Energy =                       -450.8442187310215559
  Basis Set: CC-PVTZ
  Basis Set:
  Basis Set: CC-PVTZ
  Basis Set:
  @DF-RHF Final Energy:  -450.84443846795233
    Total Energy =                       -450.8444384679522727
  Basis Set: CC-PVTZ
  Basis Set:
  Basis Set: CC-PVTZ
  Basis Set:
  @DF-RHF Final Energy:  -450.84444457052115
    Total Energy =                       -450.8444445705209773
  Basis Set: CC-PVTZ
  Basis Set:
  Charge       = 0
  Multiplicity = 1
  Basis Set: CC-PVTZ
  Basis Set:

    Orbital Energies (a.u.)
    -----------------------

    Doubly Occupied:

       1A    -26.333781     2A    -26.330748     3A    -26.330104
       4A    -20.582429     5A    -11.489805     6A    -11.310253
       7A     -1.741887     8A     -1.638242     9A     -1.636753
      10A     -1.405946    11A     -1.050430    12A     -0.924000
      13A     -0.833007    14A     -0.831434    15A     -0.790668
      16A     -0.741683    17A     -0.713483    18A     -0.703787
      19A     -0.670803    20A     -0.657930    21A     -0.642597
      22A     -0.640283    23A     -0.600534    24A     -0.533563
      25A     -0.483041

  @DF-RHF Final Energy:  -450.84444648860165

   => Energetics <=

    Nuclear Repulsion Energy =            277.6483903891279397
    One-Electron Energy =               -1177.7512953507919065
    Two-Electron Energy =                 449.2584584730623192
    DFT Exchange-Correlation Energy =       0.0000000000000000
    Empirical Dispersion Energy =           0.0000000000000000
    PCM Polarization Energy =               0.0000000000000000
    EFP Energy =                            0.0000000000000000
    Total Energy =                       -450.8444464886016476
    Molecular point group: c1
  Basis Set: CC-PVTZ
  Basis Set:

  -Total Gradient:
     Atom            X                  Y                   Z
    ------   -----------------  -----------------  -----------------
       1       -0.000108604367     0.000146427979     0.000141549920
       2        0.000223866451    -0.000149485867    -0.000265328857
       3       -0.000194945198     0.000157357944     0.000219524078
       4        0.000097411064     0.000168646746     0.000063404270
       5        0.000064763978    -0.000184070111    -0.000076242585
       6       -0.000014715557     0.000018832869    -0.000004282414
       7        0.000018182203    -0.000042764973    -0.000051399613
       8       -0.000065415338    -0.000095728660    -0.000018982011
       9       -0.000020543234    -0.000019215925    -0.000008242797

  **** Optimization is complete! (in 5 steps) ****
    Final optimized geometry and variables:
    Molecular point group: c1

    Geometry (in Angstrom), charge = 0, multiplicity = 1:

    H           -2.713522017026     0.106338987887    -0.458358399809
    O           -2.004068078686    -0.069997541348     0.129727208460
    C           -0.944351384461     0.795831930589    -0.100676344292
    C            0.351983141199     0.024423203383    -0.017505104306
    H           -0.979288942564     1.248127544530    -1.083909039894
    H           -0.904986473644     1.581793853329     0.644109462591
    F            0.430484894799    -0.905530967428    -0.942603165221
    F            1.368192485317     0.847779553520    -0.192778086368
    F            0.506626468777    -0.557178877332     1.148455395198

  Mulliken Charges: (a.u.)
   Center  Symbol    Alpha    Beta     Spin     Total
       1     H     0.38684  0.38684  0.00000  0.22631
       2     O     4.18952  4.18952  0.00000 -0.37903
       3     C     2.98773  2.98773  0.00000  0.02454
       4     C     2.67665  2.67665  0.00000  0.64669
       5     H     0.46386  0.46386  0.00000  0.07228
       6     H     0.46196  0.46196  0.00000  0.07608
       7     F     4.61076  4.61076  0.00000 -0.22152
       8     F     4.61452  4.61452  0.00000 -0.22905
       9     F     4.60815  4.60815  0.00000 -0.21630

   Total alpha = 25.00000, Total beta = 25.00000, Total charge =  0.00000
