  ==> Input File <==

--------------------------------------------------------------------------
set {
	reference rhf
	basis 6-31G*
}

set_num_threads( 4 )
memory 2 gb

molecule MOL {
0 1

O	 -0.291628	 1.323815	 -0.000732
C	 -0.449655	 0.146360	 0.000961
C	 -1.783294	 -0.549321	 -0.000296
O	 0.550821	 -0.724572	 0.000672
H	 -1.863538	 -1.185371	 -0.874187
H	 -2.574672	 0.185258	 -0.002793
H	 -1.866414	 -1.182381	 0.875436
C	 1.450920	 -0.668386	 1.092893
H	 1.932375	 0.297777	 1.138577
H	 2.180840	 -1.442185	 0.913449
H	 0.931400	 -0.851281	 2.022404

	symmetry c1
}
set optking {
	frozen_dihedral = ("
		8 4 2 1
	")
}

ee = optimize('scf')
oeprop('DIPOLE', 'QUADRUPOLE', 'MULLIKEN_CHARGES')
f=open( 'psi4out.xyz', 'w' )
f.write( "11  " )
f.write( str(ee) + "\n" )
f.write( MOL.save_string_xyz() )
f.close()
--------------------------------------------------------------------------

    Molecular point group: c1
  Charge       = 0
  Multiplicity = 1
  Basis Set: 6-31G*
  Basis Set:
  @DF-RHF Final Energy:  -266.82103578621604
    Total Energy =                       -266.8210357862158162
    Molecular point group: c1
  Basis Set: 6-31G*
  Basis Set:
  Basis Set: 6-31G*
  Basis Set:
  @DF-RHF Final Energy:  -266.81868859660813
    Total Energy =                       -266.8186885966081263
  Basis Set: 6-31G*
  Basis Set:
  Basis Set: 6-31G*
  Basis Set:
  @DF-RHF Final Energy:  -266.82192403070496
    Total Energy =                       -266.8219240307047357
  Basis Set: 6-31G*
  Basis Set:
  Basis Set: 6-31G*
  Basis Set:
  @DF-RHF Final Energy:  -266.82202367561069
    Total Energy =                       -266.8220236756108079
  Basis Set: 6-31G*
  Basis Set:
  Basis Set: 6-31G*
  Basis Set:
  @DF-RHF Final Energy:  -266.82202814954155
    Total Energy =                       -266.8220281495414383
  Basis Set: 6-31G*
  Basis Set:
  Charge       = 0
  Multiplicity = 1
  Basis Set: 6-31G*
  Basis Set:

    Orbital Energies (a.u.)
    -----------------------

    Doubly Occupied:

       1A    -20.591601     2A    -20.555111     3A    -11.378741
       4A    -11.288744     5A    -11.236547     6A     -1.462666
       7A     -1.367239     8A     -1.030655     9A     -0.957700
      10A     -0.777398    11A     -0.694914    12A     -0.680771
      13A     -0.670448    14A     -0.605711    15A     -0.593189
      16A     -0.570916    17A     -0.536306    18A     -0.504829
      19A     -0.456182    20A     -0.441230

  @DF-RHF Final Energy:  -266.82202876460173

   => Energetics <=

    Nuclear Repulsion Energy =            182.3991783192825551
    One-Electron Energy =                -725.6406225201869802
    Two-Electron Energy =                 276.4194154363024154
    DFT Exchange-Correlation Energy =       0.0000000000000000
    Empirical Dispersion Energy =           0.0000000000000000
    PCM Polarization Energy =               0.0000000000000000
    EFP Energy =                            0.0000000000000000
    Total Energy =                       -266.8220287646020097
    Molecular point group: c1
  Basis Set: 6-31G*
  Basis Set:

  -Total Gradient:
     Atom            X                  Y                   Z
    ------   -----------------  -----------------  -----------------
       1       -0.000333872103    -0.000368612068    -0.008890942825
       2       -0.001342445572    -0.001602791558     0.014931366845
       3        0.000003156610     0.000014212750     0.000059676933
       4        0.005553664031     0.006334221483    -0.009907991195
       5        0.000001653014     0.000013401076    -0.000010266566
       6       -0.000019678965     0.000000876872    -0.000013584279
       7        0.000006852352    -0.000005480453    -0.000033378149
       8       -0.003884733007    -0.004365535613     0.003872960081
       9        0.000009170147    -0.000014562240    -0.000005033327
      10        0.000000074280     0.000006022884    -0.000001386353
      11        0.000006159208    -0.000011753135    -0.000001421163

  **** Optimization is complete! (in 6 steps) ****
    Final optimized geometry and variables:
    Molecular point group: c1

    Geometry (in Angstrom), charge = 0, multiplicity = 1:

    O           -0.194859048733     1.413868109214    -0.258042637656
    C           -0.374661753078     0.245550396206    -0.203605464554
    C           -1.722024044108    -0.419995761314    -0.249332209911
    O            0.632829945350    -0.647120392626    -0.202937920744
    H           -1.762229814824    -1.088900619273    -1.101586855733
    H           -2.502165259981     0.323167444942    -0.322318643719
    H           -1.863148214135    -1.022667178947     0.641570847146
    C            1.570668945538    -0.558416933157     0.852587832985
    H            1.992881693719     0.434932956982     0.910147463664
    H            2.346555523114    -1.275366826279     0.634070581161
    H            1.100382652446    -0.813942620604     1.795646623730

  Mulliken Charges: (a.u.)
   Center  Symbol    Alpha    Beta     Spin     Total
       1     O     4.25998  4.25998  0.00000 -0.51997
       2     C     2.62486  2.62486  0.00000  0.75027
       3     C     3.28407  3.28407  0.00000 -0.56814
       4     O     4.30848  4.30848  0.00000 -0.61696
       5     H     0.39725  0.39725  0.00000  0.20549
       6     H     0.39738  0.39738  0.00000  0.20524
       7     H     0.40517  0.40517  0.00000  0.18967
       8     C     3.09426  3.09426  0.00000 -0.18852
       9     H     0.40356  0.40356  0.00000  0.19288
      10     H     0.40478  0.40478  0.00000  0.19043
      11     H     0.42020  0.42020  0.00000  0.15960

   Total alpha = 20.00000, Total beta = 20.00000, Total charge =  0.00000
