                              Psi4 1.0.54 Driver

  ==> Input File <==

--------------------------------------------------------------------------
set {
	reference rhf
	basis cc-pvtz
}

set_num_threads( 4 )
memory 2 gb

molecule MOL {
0 1

H	 2.960595	 -0.581483	 1.729224
O	 2.049729	 -0.796260	 1.816514
C	 1.302360	 -0.139947	 0.907580
C	 1.857325	 0.731201	 -0.017512
C	 -0.060027	 -0.358641	 0.917360
H	 2.918817	 0.900394	 -0.023719
C	 1.050079	 1.380723	 -0.929340
H	 -0.491665	 -1.030847	 1.630572
C	 -0.861704	 0.296439	 0.000000
H	 1.490581	 2.052448	 -1.640372
C	 -0.313712	 1.167455	 -0.926206
C	 -2.330689	 0.069587	 0.000000
H	 -0.943963	 1.671101	 -1.634028
O	 -2.848621	 -0.993976	 0.000000
H	 -2.934306	 0.982410	 0.000000

	symmetry c1
}
set optking {
	frozen_dihedral = ("
		11 9 12 14
	")
}

ee,wfn = optimize('scf', return_wfn=True)
oeprop( wfn, 'DIPOLE', 'QUADRUPOLE', 'MULLIKEN_CHARGES')
f=open( 'psi4out.xyz', 'w' )
f.write( "15  " )
f.write( str(ee) + "\n" )
f.write( MOL.save_string_xyz() )
f.close()
--------------------------------------------------------------------------

    Molecular point group: c1
  Charge       = 0
  Multiplicity = 1
  Basis Set: CC-PVTZ
  Basis Set:
  @DF-RHF Final Energy:  -418.43206142169026
    Total Energy =                       -418.4320614216901504
    Molecular point group: c1
  Basis Set: CC-PVTZ
  Basis Set:
  Basis Set: CC-PVTZ
  Basis Set:
  @DF-RHF Final Energy:  -418.43023024129445
    Total Energy =                       -418.4302302412946801
  Basis Set: CC-PVTZ
  Basis Set:
  Basis Set: CC-PVTZ
  Basis Set:
  @DF-RHF Final Energy:  -418.43245244530698
    Total Energy =                       -418.4324524453070353
  Basis Set: CC-PVTZ
  Basis Set:
  Basis Set: CC-PVTZ
  Basis Set:
  @DF-RHF Final Energy:  -418.43267039291970
    Total Energy =                       -418.4326703929195901
  Basis Set: CC-PVTZ
  Basis Set:
  @DF-RHF Final Energy:  -418.43267368016120
    Total Energy =                       -418.4326736801613151
  @DF-RHF Final Energy:  -418.43266738720422
    Total Energy =                       -418.4326673872043330
  @DF-RHF Final Energy:  -418.43266975374189
    Total Energy =                       -418.4326697537420614
  @DF-RHF Final Energy:  -418.43266934342688
    Total Energy =                       -418.4326693434271647
  @DF-RHF Final Energy:  -418.43266830454326
    Total Energy =                       -418.4326683045435402
  @DF-RHF Final Energy:  -418.42755869381193
    Total Energy =                       -418.4275586938117613
  @DF-RHF Final Energy:  -418.42333338612889
    Total Energy =                       -418.4233333861288884
  @DF-RHF Final Energy:  -418.43211571050938
    Total Energy =                       -418.4321157105094926
  Basis Set: CC-PVTZ
  Basis Set:
  @DF-RHF Final Energy:  -418.43265067055285
    Total Energy =                       -418.4326506705529027
  Basis Set: CC-PVTZ
  Basis Set:
  Basis Set: CC-PVTZ
  Basis Set:
  @DF-RHF Final Energy:  -418.43266624001114
    Total Energy =                       -418.4326662400110308
  Basis Set: CC-PVTZ
  Basis Set:
  Basis Set: CC-PVTZ
  Basis Set:
  @DF-RHF Final Energy:  -418.43267009505229
    Total Energy =                       -418.4326700950522309
  Basis Set: CC-PVTZ
  Basis Set:
  Charge       = 0
  Multiplicity = 1
  Basis Set: CC-PVTZ
  Basis Set:

    Orbital Energies (a.u.)
    -----------------------

    Doubly Occupied:

       1A    -20.595711     2A    -20.559496     3A    -11.330406
       4A    -11.311502     5A    -11.253390     6A    -11.250154
       7A    -11.242896     8A    -11.240036     9A    -11.237193
      10A     -1.427543    11A     -1.414567    12A     -1.173090
      13A     -1.051150    14A     -1.029162    15A     -0.902069
      16A     -0.848032    17A     -0.818808    18A     -0.741241
      19A     -0.704893    20A     -0.687150    21A     -0.652858
      22A     -0.643587    23A     -0.616237    24A     -0.607442
      25A     -0.583823    26A     -0.549467    27A     -0.540398
      28A     -0.516715    29A     -0.494899    30A     -0.427321
      31A     -0.357589    32A     -0.329279

  @DF-RHF Final Energy:  -418.43267015916740

   => Energetics <=

    Nuclear Repulsion Energy =            403.8388471348629309
    One-Electron Energy =               -1370.2668279092576995
    Two-Electron Energy =                 547.9953106152271403
    DFT Exchange-Correlation Energy =       0.0000000000000000
    Empirical Dispersion Energy =           0.0000000000000000
    PCM Polarization Energy =               0.0000000000000000
    EFP Energy =                            0.0000000000000000
    Total Energy =                       -418.4326701591676283
    Molecular point group: c1
  Basis Set: CC-PVTZ
  Basis Set:

  -Total Gradient:
     Atom            X                  Y                   Z
    ------   -----------------  -----------------  -----------------
       1       -0.000022880647    -0.000009046191     0.000003428394
       2        0.000019621961     0.000002159779    -0.000003569239
       3       -0.000053021280    -0.000096165749    -0.000024693896
       4       -0.000029398830     0.000130996388     0.000106539311
       5        0.000335454258     0.000009019297    -0.000318796835
       6       -0.000020204444    -0.000019113521    -0.000007405889
       7       -0.000075918163    -0.000197320700    -0.000206562362
       8       -0.000026030107     0.000063606673     0.000135834085
       9       -0.001937071148     0.006319464586     0.002120727922
      10       -0.000004071008     0.000000798576     0.000013038826
      11        0.001329867943    -0.004258281057    -0.003070318653
      12        0.000305862717    -0.002153057511     0.007705167873
      13       -0.000055951433     0.000147925988     0.000041588115
      14        0.000235804160    -0.000004546902    -0.006514226450
      15       -0.000002063981     0.000063560344     0.000019248801

  **** Optimization is complete! (in 16 steps) ****
    Final optimized geometry and variables:
    Molecular point group: c1

    Geometry (in Angstrom), charge = 0, multiplicity = 1:

    H            2.968831271451    -0.686361493181     1.496035261442
    O            2.056113426889    -0.890982416407     1.590162226974
    C            1.312295626538    -0.229758702874     0.683033722624
    C            1.865820849903     0.645715945095    -0.235138830738
    C           -0.051032529184    -0.460090633363     0.683641244724
    H            2.926947061430     0.816257473515    -0.242614447767
    C            1.053217538853     1.295873211849    -1.143636495884
    H           -0.468931190030    -1.163409354447     1.375837863219
    C           -0.857078986450     0.216781990354    -0.209759847944
    H            1.491771333373     1.963966808497    -1.859500354605
    C           -0.311048935376     1.094326040108    -1.132392584059
    C           -2.317086595097    -0.085028352450    -0.276697548466
    H           -0.941716278820     1.609994128496    -1.831656513241
    O           -2.767048402300    -1.177538141440    -0.274593677153
    H           -2.970129687205     0.785502498166    -0.397683092360

  Mulliken Charges: (a.u.)
   Center  Symbol    Alpha    Beta     Spin     Total
       1     H     0.38685  0.38685  0.00000  0.22630
       2     O     4.17055  4.17055  0.00000 -0.34110
       3     C     2.83831  2.83831  0.00000  0.32339
       4     C     3.13346  3.13346  0.00000 -0.26691
       5     C     3.12503  3.12503  0.00000 -0.25007
       6     H     0.43207  0.43207  0.00000  0.13587
       7     C     3.05935  3.05935  0.00000 -0.11870
       8     H     0.41143  0.41143  0.00000  0.17715
       9     C     2.94373  2.94373  0.00000  0.11253
      10     H     0.41956  0.41956  0.00000  0.16087
      11     C     3.11359  3.11359  0.00000 -0.22718
      12     C     2.92560  2.92560  0.00000  0.14881
      13     H     0.42450  0.42450  0.00000  0.15099
      14     O     4.16010  4.16010  0.00000 -0.32020
      15     H     0.45586  0.45586  0.00000  0.08827

   Total alpha = 32.00000, Total beta = 32.00000, Total charge =  0.00000

*** Psi4 exiting successfully. Buy a developer a beer!
