  ==> Input File <==

--------------------------------------------------------------------------
set {
	reference rhf
	basis cc-pvtz
}

set_num_threads( 4 )
memory 2 gb

molecule MOL {
0 1

H	 3.083659	 -1.378387	 0.000000
O	 2.179005	 -1.633391	 0.000000
C	 1.366950	 -0.558201	 0.000000
C	 -0.014834	 -0.673767	 0.000000
C	 1.954113	 0.690502	 -0.000000
H	 -0.470564	 -1.647286	 0.000000
C	 -0.805206	 0.457722	 0.000000
H	 3.021012	 0.783076	 -0.000000
C	 1.154528	 1.819231	 -0.000000
H	 -1.873143	 0.356068	 0.000000
C	 -0.225694	 1.710553	 -0.000000
C	 1.774552	 3.170138	 -0.000000
H	 -0.837710	 2.592214	 -0.000000
O	 2.939226	 3.377391	 -0.000000
H	 1.061656	 4.000426	 -0.000000

	symmetry c1
}
set optking {
	frozen_dihedral = ("
		4 3 2 1
	")
}

ee = optimize('scf')
oeprop('DIPOLE', 'QUADRUPOLE', 'MULLIKEN_CHARGES')
f=open( 'psi4out.xyz', 'w' )
f.write( "15  " )
f.write( str(ee) + "\n" )
f.write( MOL.save_string_xyz() )
f.close()
--------------------------------------------------------------------------

    Molecular point group: c1
  Charge       = 0
  Multiplicity = 1
  Basis Set: CC-PVTZ
  Basis Set:
  @DF-RHF Final Energy:  -418.43816605608095
    Total Energy =                       -418.4381660560808314
    Molecular point group: c1
  Basis Set: CC-PVTZ
  Basis Set:
  Basis Set: CC-PVTZ
  Basis Set:
  @DF-RHF Final Energy:  -418.44012411426706
    Total Energy =                       -418.4401241142667232
  Basis Set: CC-PVTZ
  Basis Set:
  Basis Set: CC-PVTZ
  Basis Set:
  @DF-RHF Final Energy:  -418.44029573065603
    Total Energy =                       -418.4402957306560893
  Basis Set: CC-PVTZ
  Basis Set:
  Basis Set: CC-PVTZ
  Basis Set:
  @DF-RHF Final Energy:  -418.44032411783900
    Total Energy =                       -418.4403241178390545
  Basis Set: CC-PVTZ
  Basis Set:
  Charge       = 0
  Multiplicity = 1
  Basis Set: CC-PVTZ
  Basis Set:

    Orbital Energies (a.u.)
    -----------------------

    Doubly Occupied:

       1A    -20.595668     2A    -20.556698     3A    -11.330009
       4A    -11.311772     5A    -11.252143     6A    -11.249289
       7A    -11.244388     8A    -11.242898     9A    -11.241427
      10A     -1.427436    11A     -1.412373    12A     -1.174515
      13A     -1.053306    14A     -1.029572    15A     -0.904271
      16A     -0.857824    17A     -0.799756    18A     -0.759330
      19A     -0.704282    20A     -0.671897    21A     -0.665919
      22A     -0.633777    23A     -0.616418    24A     -0.608966
      25A     -0.580229    26A     -0.559520    27A     -0.539726
      28A     -0.521261    29A     -0.492565    30A     -0.429260
      31A     -0.358253    32A     -0.331563

  @DF-RHF Final Energy:  -418.44032843813483

   => Energetics <=

    Nuclear Repulsion Energy =            404.2667922096759980
    One-Electron Energy =               -1371.1016253772845630
    Two-Electron Energy =                 548.3945047294737378
    DFT Exchange-Correlation Energy =       0.0000000000000000
    Empirical Dispersion Energy =           0.0000000000000000
    PCM Polarization Energy =               0.0000000000000000
    EFP Energy =                            0.0000000000000000
    Total Energy =                       -418.4403284381348840
    Molecular point group: c1
  Basis Set: CC-PVTZ
  Basis Set:

  -Total Gradient:
     Atom            X                  Y                   Z
    ------   -----------------  -----------------  -----------------
       1       -0.000034871535    -0.000011872622    -0.000000000004
       2        0.000009371725    -0.000031788332    -0.000000000004
       3       -0.000041204429     0.000066272397    -0.000000000096
       4       -0.000020190015     0.000036074015     0.000000000021
       5        0.000017161224    -0.000029067814     0.000000000100
       6       -0.000016332012    -0.000052840557     0.000000000006
       7        0.000142690387    -0.000004091382    -0.000000000159
       8        0.000026438176     0.000021837979     0.000000000006
       9       -0.000020106446    -0.000076887112     0.000000002213
      10       -0.000017142175    -0.000007089928    -0.000000000010
      11       -0.000096530061     0.000096862369     0.000000000083
      12        0.000011958102     0.000080828314    -0.000000007431
      13        0.000030710465    -0.000047294978     0.000000000069
      14       -0.000004071212    -0.000035990084     0.000000002643
      15        0.000012117806    -0.000004952269     0.000000002564

  **** Optimization is complete! (in 5 steps) ****
    Final optimized geometry and variables:
    Molecular point group: c1

    Geometry (in Angstrom), charge = 0, multiplicity = 1:

    H           -2.411804939100    -1.824726758162     0.000000000851
    O           -2.598212817200    -0.902907028406     0.000000002596
    C           -1.462652300593    -0.178501166617     0.000000000452
    C           -1.592412987804     1.206542292587     0.000000002661
    C           -0.212602961269    -0.752036749290    -0.000000003774
    H           -2.576426263955     1.632510002843     0.000000005949
    C           -0.471824074111     2.002151400855     0.000000000598
    H           -0.089194399784    -1.818309595693    -0.000000005668
    C            0.914822799625     0.059658469831    -0.000000005891
    H           -0.580817735714     3.069375251356     0.000000002315
    C            0.792793903267     1.432646866892    -0.000000003614
    C            2.267289188458    -0.552737758984    -0.000000011171
    H            1.668254235897     2.053637588844    -0.000000005228
    O            2.478019032546    -1.717564588759     0.000000012240
    H            3.094522668680     0.163418961846     0.000000013257

  Mulliken Charges: (a.u.)
   Center  Symbol    Alpha    Beta     Spin     Total
       1     H     0.38474  0.38474  0.00000  0.23051
       2     O     4.17249  4.17249  0.00000 -0.34499
       3     C     2.83990  2.83990  0.00000  0.32021
       4     C     3.10195  3.10195  0.00000 -0.20390
       5     C     3.14382  3.14382  0.00000 -0.28763
       6     H     0.41551  0.41551  0.00000  0.16898
       7     C     3.05611  3.05611  0.00000 -0.11221
       8     H     0.41784  0.41784  0.00000  0.16432
       9     C     2.98000  2.98000  0.00000  0.04001
      10     H     0.41938  0.41938  0.00000  0.16124
      11     C     3.10857  3.10857  0.00000 -0.21714
      12     C     2.90934  2.90934  0.00000  0.18133
      13     H     0.42313  0.42313  0.00000  0.15374
      14     O     4.17230  4.17230  0.00000 -0.34459
      15     H     0.45493  0.45493  0.00000  0.09014

   Total alpha = 32.00000, Total beta = 32.00000, Total charge =  0.00000
