                              Psi4 1.0.54 Driver

  ==> Input File <==

--------------------------------------------------------------------------
set {
	reference rhf
	basis cc-pvtz
}

set_num_threads( 4 )
memory 2 gb

molecule MOL {
0 1

H	 -3.642953	 0.223825	 0.000000
C	 -2.571844	 0.155001	 0.000000
C	 -1.957580	 -1.086132	 0.000000
C	 -1.807160	 1.303787	 0.000000
H	 -2.551493	 -1.979629	 0.000000
C	 -0.582719	 -1.174294	 0.000000
H	 -2.279934	 2.266806	 0.000000
C	 -0.427220	 1.213406	 0.000000
H	 -0.094904	 -2.127556	 0.000000
C	 0.196908	 -0.024061	 0.000000
H	 0.151409	 2.115254	 0.000000
C	 1.690041	 -0.173233	 0.000000
C	 2.486486	 0.411033	 -1.144101
O	 2.240160	 -0.743209	 0.887614
H	 2.182026	 -0.027548	 -2.086932
H	 3.531590	 0.207622	 -0.973478
H	 2.332785	 1.481468	 -1.211364

	symmetry c1
}
set optking {
	frozen_dihedral = ("
		13 12 10 8
	")
}

ee,wfn = optimize('scf', return_wfn=True)
oeprop( wfn, 'DIPOLE', 'QUADRUPOLE', 'MULLIKEN_CHARGES')
f=open( 'psi4out.xyz', 'w' )
f.write( "17  " )
f.write( str(ee) + "\n" )
f.write( MOL.save_string_xyz() )
f.close()
--------------------------------------------------------------------------

    Molecular point group: c1
  Charge       = 0
  Multiplicity = 1
  Basis Set: CC-PVTZ
  Basis Set:
  @DF-RHF Final Energy:  -382.59917683991392
    Total Energy =                       -382.5991768399144348
    Molecular point group: c1
  Basis Set: CC-PVTZ
  Basis Set:
  Basis Set: CC-PVTZ
  Basis Set:
  @DF-RHF Final Energy:  -382.59726174610125
    Total Energy =                       -382.5972617461015943
  Basis Set: CC-PVTZ
  Basis Set:
  Basis Set: CC-PVTZ
  Basis Set:
  @DF-RHF Final Energy:  -382.59995751679008
    Total Energy =                       -382.5999575167898001
  Basis Set: CC-PVTZ
  Basis Set:
  Basis Set: CC-PVTZ
  Basis Set:
  @DF-RHF Final Energy:  -382.60010202633492
    Total Energy =                       -382.6001020263354349
  Basis Set: CC-PVTZ
  Basis Set:
  Basis Set: CC-PVTZ
  Basis Set:
  @DF-RHF Final Energy:  -382.60010741168816
    Total Energy =                       -382.6001074116884411
  Basis Set: CC-PVTZ
  Basis Set:
  Basis Set: CC-PVTZ
  Basis Set:
  @DF-RHF Final Energy:  -382.60012922474027
    Total Energy =                       -382.6001292247406127
  Basis Set: CC-PVTZ
  Basis Set:
  Basis Set: CC-PVTZ
  Basis Set:
  @DF-RHF Final Energy:  -382.60013341566872
    Total Energy =                       -382.6001334156687790
  Basis Set: CC-PVTZ
  Basis Set:
  Charge       = 0
  Multiplicity = 1
  Basis Set: CC-PVTZ
  Basis Set:

    Orbital Energies (a.u.)
    -----------------------

    Doubly Occupied:

       1A    -20.545441     2A    -11.329598     3A    -11.245623
       4A    -11.243916     5A    -11.240490     6A    -11.240180
       7A    -11.238994     8A    -11.237720     9A    -11.230721
      10A     -1.405761    11A     -1.171175    12A     -1.053713
      13A     -1.030139    14A     -1.000900    15A     -0.863143
      16A     -0.840926    17A     -0.764873    18A     -0.708307
      19A     -0.664186    20A     -0.650178    21A     -0.627887
      22A     -0.623291    23A     -0.603056    24A     -0.592383
      25A     -0.562607    26A     -0.529105    27A     -0.517442
      28A     -0.507598    29A     -0.496666    30A     -0.414124
      31A     -0.349100    32A     -0.346910

  @DF-RHF Final Energy:  -382.60013435272924

   => Energetics <=

    Nuclear Repulsion Energy =            403.9268532510265004
    One-Electron Energy =               -1319.3016700315340586
    Two-Electron Energy =                 532.7746824277784299
    DFT Exchange-Correlation Energy =       0.0000000000000000
    Empirical Dispersion Energy =           0.0000000000000000
    PCM Polarization Energy =               0.0000000000000000
    EFP Energy =                            0.0000000000000000
    Total Energy =                       -382.6001343527291283
    Molecular point group: c1
  Basis Set: CC-PVTZ
  Basis Set:

  -Total Gradient:
     Atom            X                  Y                   Z
    ------   -----------------  -----------------  -----------------
       1       -0.000001378419    -0.000001501548    -0.000002862024
       2       -0.000018202747    -0.000060447327    -0.000019974524
       3       -0.000057307804     0.000021477376    -0.000014478995
       4        0.000060817284     0.000020963823     0.000045744659
       5        0.000002573293    -0.000003840898     0.000003986419
       6        0.000062022883     0.000030187979    -0.000010509927
       7        0.000004055248     0.000001709573    -0.000008603715
       8       -0.000164750108    -0.000299113145     0.003766931636
       9       -0.000002590346    -0.000010221616    -0.000009030877
      10        0.000085424787    -0.000824749161    -0.006460758173
      11       -0.000000704847     0.000009663610     0.000004738470
      12        0.000309820043     0.003877022970     0.004645147452
      13       -0.000269857286    -0.002740298058    -0.001939801106
      14       -0.000026390253    -0.000000895732     0.000020749304
      15       -0.000001962049    -0.000023774667    -0.000030009063
      16        0.000031029499    -0.000015469789    -0.000001121814
      17       -0.000012599176     0.000019286610     0.000009852279

  **** Optimization is complete! (in 8 steps) ****
    Final optimized geometry and variables:
    Molecular point group: c1

    Geometry (in Angstrom), charge = 0, multiplicity = 1:

    H           -3.633081673872     0.287742043425     0.061565482881
    C           -2.563321144564     0.204072188415     0.046580458878
    C           -1.967025475081    -1.041142330540    -0.036246812200
    C           -1.779942810680     1.339321822044     0.118138243582
    H           -2.572999128089    -1.925419815748    -0.083740194032
    C           -0.591066750794    -1.150353250722    -0.041329750058
    H           -2.238310748482     2.306174333744     0.198446793357
    C           -0.402150670702     1.231862634152     0.087072676403
    H           -0.124556756531    -2.115615294089    -0.073126469512
    C            0.198720508933    -0.012317488617    -0.000442307897
    H            0.198097773569     2.120233610804     0.142448004871
    C            1.694308815032    -0.165342476609     0.042137112330
    C            2.496011185680     0.529603514587    -1.031640027472
    O            2.207069049436    -0.875265370465     0.843533719884
    H            2.233143544614     0.097845132390    -1.991402094472
    H            3.550451435257     0.393173503222    -0.846148213943
    H            2.261519549132     1.585688557865    -1.082773379569

  Mulliken Charges: (a.u.)
   Center  Symbol    Alpha    Beta     Spin     Total
       1     H     0.42119  0.42119  0.00000  0.15762
       2     C     3.08115  3.08115  0.00000 -0.16229
       3     C     3.06547  3.06547  0.00000 -0.13094
       4     C     3.06742  3.06742  0.00000 -0.13484
       5     H     0.42120  0.42120  0.00000  0.15760
       6     C     3.08625  3.08625  0.00000 -0.17250
       7     H     0.42176  0.42176  0.00000  0.15647
       8     C     3.09566  3.09566  0.00000 -0.19131
       9     H     0.41684  0.41684  0.00000  0.16632
      10     C     2.97269  2.97269  0.00000  0.05462
      11     H     0.42374  0.42374  0.00000  0.15252
      12     C     2.87434  2.87434  0.00000  0.25132
      13     C     3.15053  3.15053  0.00000 -0.30106
      14     O     4.16871  4.16871  0.00000 -0.33741
      15     H     0.44590  0.44590  0.00000  0.10821
      16     H     0.43631  0.43631  0.00000  0.12737
      17     H     0.45086  0.45086  0.00000  0.09828

   Total alpha = 32.00000, Total beta = 32.00000, Total charge =  0.00000

*** Psi4 exiting successfully. Buy a developer a beer!
