                              Psi4 1.0.54 Driver

  ==> Input File <==

--------------------------------------------------------------------------
set {
	reference rhf
	basis cc-pvtz
}

set_num_threads( 4 )
memory 2 gb

molecule MOL {
0 1

O	 1.066781	 4.172045	 1.088480
C	 0.077821	 4.489556	 1.664025
C	 -1.180735	 3.646210	 1.638819
C	 0.009923	 5.768715	 2.467373
C	 -1.068224	 2.369853	 0.817185
H	 -1.443319	 3.419162	 2.669628
H	 -1.987898	 4.273665	 1.267612
C	 -2.358088	 1.554163	 0.820896
H	 -0.251733	 1.769862	 1.202501
H	 -0.796653	 2.625161	 -0.200755
C	 -2.258482	 0.271340	 0.000669
H	 -2.625604	 1.303807	 1.845118
H	 -3.172901	 2.162847	 0.435091
C	 -3.544441	 -0.550271	 -0.000253
H	 -1.444418	 -0.337881	 0.385718
H	 -1.991881	 0.520612	 -1.023496
C	 -4.804551	 0.308747	 0.000556
H	 -3.553737	 -1.201524	 -0.870151
H	 -3.553831	 -1.203282	 0.868313
H	 -4.842050	 0.949078	 -0.874436
H	 -5.698404	 -0.304480	 -0.000254
H	 -4.842277	 0.947103	 0.876982
H	 -0.229951	 5.548526	 3.501794
H	 0.956460	 6.284255	 2.415634
H	 -0.776303	 6.409676	 2.083890

	symmetry c1
}
set optking {
	frozen_dihedral = ("
		15 11 14 18
	")
}

ee,wfn = optimize('scf', return_wfn=True)
oeprop( wfn, 'DIPOLE', 'QUADRUPOLE', 'MULLIKEN_CHARGES')
f=open( 'psi4out.xyz', 'w' )
f.write( "25  " )
f.write( str(ee) + "\n" )
f.write( MOL.save_string_xyz() )
f.close()
--------------------------------------------------------------------------

    Molecular point group: c1
  Charge       = 0
  Multiplicity = 1
  Basis Set: CC-PVTZ
  Basis Set:
  @DF-RHF Final Energy:  -387.26771986893925
    Total Energy =                       -387.2677198689392526
    Molecular point group: c1
  Basis Set: CC-PVTZ
  Basis Set:
  Basis Set: CC-PVTZ
  Basis Set:
  @DF-RHF Final Energy:  -387.24131519494415
    Total Energy =                       -387.2413151949440362
  Basis Set: CC-PVTZ
  Basis Set:
  Basis Set: CC-PVTZ
  Basis Set:
  @DF-RHF Final Energy:  -387.26892463118998
    Total Energy =                       -387.2689246311897477
  Basis Set: CC-PVTZ
  Basis Set:
  Basis Set: CC-PVTZ
  Basis Set:
  @DF-RHF Final Energy:  -387.26991386964698
    Total Energy =                       -387.2699138696470982
  Basis Set: CC-PVTZ
  Basis Set:
  @DF-RHF Final Energy:  -387.26992850375120
    Total Energy =                       -387.2699285037510890
  Basis Set: CC-PVTZ
  Basis Set:
  @DF-RHF Final Energy:  -387.26985455110554
    Total Energy =                       -387.2698545511050270
  Basis Set: CC-PVTZ
  Basis Set:
  Basis Set: CC-PVTZ
  Basis Set:
  @DF-RHF Final Energy:  -387.27000026583528
    Total Energy =                       -387.2700002658350513
  Basis Set: CC-PVTZ
  Basis Set:
  Basis Set: CC-PVTZ
  Basis Set:
  @DF-RHF Final Energy:  -387.27000503029728
    Total Energy =                       -387.2700050302970567
  Basis Set: CC-PVTZ
  Basis Set:
  Charge       = 0
  Multiplicity = 1
  Basis Set: CC-PVTZ
  Basis Set:

    Orbital Energies (a.u.)
    -----------------------

    Doubly Occupied:

       1A    -20.538779     2A    -11.320396     3A    -11.229996
       4A    -11.226498     5A    -11.214761     6A    -11.214295
       7A    -11.213997     8A    -11.212105     9A    -11.206935
      10A     -1.398852    11A     -1.094736    12A     -1.056139
      13A     -1.014178    14A     -0.967447    15A     -0.897468
      16A     -0.826339    17A     -0.774499    18A     -0.730297
      19A     -0.661520    20A     -0.654202    21A     -0.630547
      22A     -0.625984    23A     -0.604012    24A     -0.593382
      25A     -0.563786    26A     -0.557438    27A     -0.546298
      28A     -0.522540    29A     -0.511830    30A     -0.494701
      31A     -0.493678    32A     -0.478199    33A     -0.458375
      34A     -0.456368    35A     -0.451736    36A     -0.401278

  @DF-RHF Final Energy:  -387.27000542679417

   => Energetics <=

    Nuclear Repulsion Energy =            444.2206924717458492
    One-Electron Energy =               -1405.2941981177850721
    Two-Electron Energy =                 573.8035002192445972
    DFT Exchange-Correlation Energy =       0.0000000000000000
    Empirical Dispersion Energy =           0.0000000000000000
    PCM Polarization Energy =               0.0000000000000000
    EFP Energy =                            0.0000000000000000
    Total Energy =                       -387.2700054267945688
    Molecular point group: c1
  Basis Set: CC-PVTZ
  Basis Set:

  -Total Gradient:
     Atom            X                  Y                   Z
    ------   -----------------  -----------------  -----------------
       1       -0.000081651832     0.000012420809     0.000033094415
       2        0.000049797999    -0.000001218372    -0.000040050130
       3        0.000010847196    -0.000009042259     0.000022335472
       4        0.000008294194    -0.000002706627     0.000002017058
       5        0.000006104099     0.000005797427    -0.000013540438
       6       -0.000006289421     0.000006410269    -0.000006619633
       7        0.000013745093    -0.000009135274     0.000009024514
       8       -0.000037176223     0.000019472249    -0.000025346102
       9       -0.000000138253     0.000004647882    -0.000013314986
      10       -0.000007520038    -0.000005376030     0.000014822049
      11        0.002546326187    -0.000740525145    -0.006679185751
      12       -0.000000635856     0.000011936207    -0.000024572671
      13        0.000020315551    -0.000016564719     0.000014965863
      14        0.002649921912    -0.004128629028     0.005304316208
      15       -0.002556244520     0.001253525895     0.004863342983
      16       -0.000005021261     0.000000586629     0.000007147082
      17        0.000015160680    -0.000009163098     0.000006117711
      18       -0.002635232327     0.003607543110    -0.003454486445
      19        0.000003909146    -0.000003674433    -0.000005994186
      20       -0.000012499898     0.000002001977    -0.000020748302
      21        0.000002172935     0.000006307347    -0.000000142979
      22        0.000009085605     0.000015039821     0.000011214906
      23        0.000005026240     0.000010701825    -0.000011402065
      24       -0.000013997914    -0.000010659697    -0.000002471445
      25        0.000015700708    -0.000019696769     0.000009476880

  **** Optimization is complete! (in 9 steps) ****
    Final optimized geometry and variables:
    Molecular point group: c1

    Geometry (in Angstrom), charge = 0, multiplicity = 1:

    O            2.284959616665     2.003376899570     0.889673281687
    C            1.155379982487     2.169784541143     1.215622601450
    C            0.049592088731     1.209359135744     0.827217776140
    C            0.743066070256     3.362904094792     2.048002353102
    C            0.509216756879     0.022965795637    -0.008295206769
    H           -0.428667641388     0.872792849294     1.744320022740
    H           -0.710101661235     1.781531801602     0.299557271658
    C           -0.636948073772    -0.917224345085    -0.372775599392
    H            1.273977285540    -0.519507004982     0.535592600801
    H            0.987110757107     0.387649816377    -0.910593210562
    C           -0.171349812729    -2.101698108815    -1.221494920784
    H           -1.102982715055    -1.287590603544     0.538280236067
    H           -1.402440705473    -0.357121336777    -0.900354494564
    C           -1.241864842942    -3.164897123968    -1.512029334100
    H            0.637022126042    -2.577256570712    -0.674089596108
    H            0.241206422463    -1.728841307058    -2.153812806384
    C           -2.628888481961    -2.619959159437    -1.855475252249
    H           -0.915193601450    -3.745760603310    -2.368655686538
    H           -1.324681060593    -3.843749322891    -0.669741329618
    H           -2.584082531849    -1.926691966989    -2.689580650613
    H           -3.291563296334    -3.429742712061    -2.138839962869
    H           -3.085009043601    -2.103182614816    -1.020118080140
    H            0.289873824270     3.032420909253     2.976120161640
    H            1.605187673828     3.975338218631     2.262691601499
    H            0.000924966469     3.949892842354     1.518275522644

  Mulliken Charges: (a.u.)
   Center  Symbol    Alpha    Beta     Spin     Total
       1     O     4.17094  4.17094  0.00000 -0.34188
       2     C     2.86226  2.86226  0.00000  0.27547
       3     C     3.11306  3.11306  0.00000 -0.22613
       4     C     3.15125  3.15125  0.00000 -0.30250
       5     C     3.08367  3.08367  0.00000 -0.16734
       6     H     0.44573  0.44573  0.00000  0.10853
       7     H     0.44574  0.44574  0.00000  0.10853
       8     C     3.09403  3.09403  0.00000 -0.18807
       9     H     0.44542  0.44542  0.00000  0.10915
      10     H     0.44620  0.44620  0.00000  0.10759
      11     C     3.09612  3.09612  0.00000 -0.19224
      12     H     0.45527  0.45527  0.00000  0.08946
      13     H     0.45255  0.45255  0.00000  0.09490
      14     C     3.08921  3.08921  0.00000 -0.17842
      15     H     0.45035  0.45035  0.00000  0.09930
      16     H     0.45054  0.45054  0.00000  0.09892
      17     C     3.15747  3.15747  0.00000 -0.31493
      18     H     0.44988  0.44988  0.00000  0.10025
      19     H     0.45207  0.45207  0.00000  0.09586
      20     H     0.45394  0.45394  0.00000  0.09211
      21     H     0.44501  0.44501  0.00000  0.10998
      22     H     0.45310  0.45310  0.00000  0.09380
      23     H     0.45040  0.45040  0.00000  0.09920
      24     H     0.43537  0.43537  0.00000  0.12925
      25     H     0.45040  0.45040  0.00000  0.09920

   Total alpha = 36.00000, Total beta = 36.00000, Total charge = -0.00000

*** Psi4 exiting successfully. Buy a developer a beer!
