  ==> Input File <==

--------------------------------------------------------------------------
set {
	reference rhf
	basis 6-31G*
}

set_num_threads( 4 )
memory 2 gb

molecule MOL {
0 1

H	 1.015944	 -1.110492	 -4.099708
O	 1.948507	 -0.956091	 -4.060258
C	 2.194512	 0.417105	 -3.893318
C	 1.862111	 0.921513	 -2.493386
H	 3.250291	 0.552956	 -4.089655
H	 1.650154	 0.995185	 -4.639158
C	 0.378655	 0.818381	 -2.130631
H	 2.453411	 0.359696	 -1.774990
H	 2.180279	 1.960342	 -2.422880
C	 0.069131	 1.382258	 -0.741006
H	 0.071400	 -0.222706	 -2.176430
H	 -0.213707	 1.353255	 -2.873164
C	 -1.416367	 1.381494	 -0.362015
H	 0.631187	 0.823722	 0.005304
H	 0.436075	 2.405368	 -0.693078
C	 -2.037799	 -0.007733	 -0.193645
H	 -1.531060	 1.928016	 0.571781
H	 -1.978211	 1.939864	 -1.109271
C	 -3.489788	 0.042957	 0.286558
H	 -1.445314	 -0.582327	 0.516929
H	 -1.997889	 -0.552084	 -1.134066
C	 -4.216917	 1.317354	 -0.141063
H	 -4.025645	 -0.823308	 -0.095450
H	 -3.513059	 -0.038752	 1.371301
H	 -4.239342	 1.411634	 -1.223113
H	 -5.243387	 1.322503	 0.212445
H	 -3.726170	 2.201406	 0.256408

	symmetry c1
}
set optking {
	frozen_dihedral = ("
		20 16 19 22
	")
}

ee = optimize('scf')
oeprop('DIPOLE', 'QUADRUPOLE', 'MULLIKEN_CHARGES')
f=open( 'psi4out.xyz', 'w' )
f.write( "27  " )
f.write( str(ee) + "\n" )
f.write( MOL.save_string_xyz() )
f.close()
--------------------------------------------------------------------------

    Molecular point group: c1
  Charge       = 0
  Multiplicity = 1
  Basis Set: 6-31G*
  Basis Set:
  @DF-RHF Final Energy:  -388.27279715737052
    Total Energy =                       -388.2727971573705190
    Molecular point group: c1
  Basis Set: 6-31G*
  Basis Set:
  Basis Set: 6-31G*
  Basis Set:
  @DF-RHF Final Energy:  -388.27340901225398
    Total Energy =                       -388.2734090122542057
  Basis Set: 6-31G*
  Basis Set:
  Basis Set: 6-31G*
  Basis Set:
  @DF-RHF Final Energy:  -388.27526254460849
    Total Energy =                       -388.2752625446081538
  Basis Set: 6-31G*
  Basis Set:
  Basis Set: 6-31G*
  Basis Set:
  @DF-RHF Final Energy:  -388.27541097631621
    Total Energy =                       -388.2754109763166070
  Basis Set: 6-31G*
  Basis Set:
  @DF-RHF Final Energy:  -388.27527012981471
    Total Energy =                       -388.2752701298145439
  @DF-RHF Final Energy:  -388.27542383707640
    Total Energy =                       -388.2754238370764597
  Basis Set: 6-31G*
  Basis Set:
  @DF-RHF Final Energy:  -388.27543421664370
    Total Energy =                       -388.2754342166429069
  Basis Set: 6-31G*
  Basis Set:
  Basis Set: 6-31G*
  Basis Set:
  @DF-RHF Final Energy:  -388.27543434088062
    Total Energy =                       -388.2754343408803379
  Basis Set: 6-31G*
  Basis Set:
  Basis Set: 6-31G*
  Basis Set:
  @DF-RHF Final Energy:  -388.27543670625772
    Total Energy =                       -388.2754367062580059
  Basis Set: 6-31G*
  Basis Set:
  Charge       = 0
  Multiplicity = 1
  Basis Set: 6-31G*
  Basis Set:

    Orbital Energies (a.u.)
    -----------------------

    Doubly Occupied:

       1A    -20.552261     2A    -11.267005     3A    -11.219720
       4A    -11.217101     5A    -11.216760     6A    -11.215303
       7A    -11.215157     8A    -11.214726     9A    -11.209148
      10A     -1.359015    11A     -1.094511    12A     -1.059449
      13A     -1.008799    14A     -0.946094    15A     -0.894738
      16A     -0.830219    17A     -0.798831    18A     -0.763799
      19A     -0.693502    20A     -0.651561    21A     -0.635531
      22A     -0.614090    23A     -0.604047    24A     -0.589252
      25A     -0.579428    26A     -0.555187    27A     -0.537321
      28A     -0.524991    29A     -0.513039    30A     -0.497931
      31A     -0.482992    32A     -0.475642    33A     -0.468950
      34A     -0.453182    35A     -0.447447    36A     -0.441834
      37A     -0.422961

  @DF-RHF Final Energy:  -388.27543708529572

   => Energetics <=

    Nuclear Repulsion Energy =            463.1546838317125321
    One-Electron Energy =               -1444.3171959899505055
    Two-Electron Energy =                 592.8870750729427073
    DFT Exchange-Correlation Energy =       0.0000000000000000
    Empirical Dispersion Energy =           0.0000000000000000
    PCM Polarization Energy =               0.0000000000000000
    EFP Energy =                            0.0000000000000000
    Total Energy =                       -388.2754370852952661
    Molecular point group: c1
  Basis Set: 6-31G*
  Basis Set:

  -Total Gradient:
     Atom            X                  Y                   Z
    ------   -----------------  -----------------  -----------------
       1        0.000004728129    -0.000000485880    -0.000003255795
       2        0.000004561229    -0.000000458923    -0.000001465494
       3       -0.000008569256     0.000004147411    -0.000006787505
       4        0.000000851075    -0.000002211705     0.000006290066
       5       -0.000001051043    -0.000000207130    -0.000000521578
       6        0.000000034194    -0.000000892472    -0.000002301649
       7       -0.000001205003     0.000005787403    -0.000001596113
       8       -0.000001609445    -0.000003537132     0.000000176705
       9       -0.000000841032    -0.000001726128     0.000005268247
      10       -0.000002333574     0.000002675000    -0.000005117723
      11       -0.000002396904     0.000000789305     0.000010764822
      12        0.000001712568    -0.000005911871    -0.000002851364
      13       -0.000014258729     0.000010406336     0.000011919570
      14       -0.000003000468    -0.000001989612    -0.000001693750
      15       -0.000000614699     0.000000977107     0.000003017418
      16       -0.000831766715    -0.005607769607    -0.002129050738
      17        0.000006627369     0.000004128072    -0.000001721587
      18       -0.000007647847     0.000006693508    -0.000001675112
      19       -0.001875805259    -0.002037889093    -0.005053858694
      20        0.001213095653     0.005392782974     0.003199436481
      21       -0.000000990966    -0.000002974754    -0.000001455059
      22        0.001501577542     0.002236756633     0.003976951526
      23        0.000009141842     0.000002601326    -0.000002286560
      24        0.000006411961    -0.000009827471     0.000004961574
      25       -0.000007417339     0.000006264639    -0.000002998908
      26        0.000003191489     0.000000902395     0.000002321635
      27        0.000007575223     0.000000969674    -0.000002470405

  **** Optimization is complete! (in 10 steps) ****
    Final optimized geometry and variables:
    Molecular point group: c1

    Geometry (in Angstrom), charge = 0, multiplicity = 1:

    H            1.513978725952    -1.670236582804    -2.550075903009
    O            2.449996246904    -1.543239062832    -2.497008214011
    C            2.732927505810    -0.179490870179    -2.312263903397
    C            2.397069997409     0.319735471694    -0.911291117963
    H            3.794643440705    -0.072289216354    -2.493667586303
    H            2.215240815291     0.421743833965    -3.058790309739
    C            0.906652325781     0.256088288051    -0.568549521023
    H            2.962449938402    -0.266467071875    -0.191513401851
    H            2.744222163502     1.348067550083    -0.825562229011
    C            0.596149825467     0.813470487495     0.823658935663
    H            0.570091496581    -0.774965216786    -0.630714941864
    H            0.339943659307     0.816558895588    -1.312251302376
    C           -0.894353833645     0.861000954983     1.182019096687
    H            1.129247224919     0.227862529888     1.570533568806
    H            0.996638316746     1.823031228922     0.888505940959
    C           -1.547706582581    -0.520514281634     1.326881320602
    H           -0.998215388793     1.398962613719     2.122006101224
    H           -1.418611333897     1.451054291026     0.434611763144
    C           -2.996802606083    -0.509936622366     1.862879490489
    H           -0.931988623094    -1.076170676347     2.030212266970
    H           -1.513083803206    -1.043189375925     0.376236444135
    C           -3.847794581481     0.709564688946     1.499365148850
    H           -3.501247883052    -1.412730967469     1.530614289140
    H           -2.963332010579    -0.572405918530     2.948306770168
    H           -3.926062710736     0.843827224144     0.423701095961
    H           -4.855077501015     0.590308671411     1.886635027287
    H           -3.443022930429     1.623386785992     1.918599726645

  Mulliken Charges: (a.u.)
   Center  Symbol    Alpha    Beta     Spin     Total
       1     H     0.27992  0.27992  0.00000  0.44016
       2     O     4.37093  4.37093  0.00000 -0.74186
       3     C     2.99737  2.99737  0.00000  0.00525
       4     C     3.16091  3.16091  0.00000 -0.32183
       5     H     0.41445  0.41445  0.00000  0.17110
       6     H     0.43206  0.43206  0.00000  0.13589
       7     C     3.16330  3.16330  0.00000 -0.32660
       8     H     0.41496  0.41496  0.00000  0.17007
       9     H     0.42435  0.42435  0.00000  0.15131
      10     C     3.15197  3.15197  0.00000 -0.30394
      11     H     0.42287  0.42287  0.00000  0.15427
      12     H     0.42552  0.42552  0.00000  0.14897
      13     C     3.15715  3.15715  0.00000 -0.31430
      14     H     0.42197  0.42197  0.00000  0.15606
      15     H     0.42154  0.42154  0.00000  0.15693
      16     C     3.15456  3.15456  0.00000 -0.30913
      17     H     0.42150  0.42150  0.00000  0.15700
      18     H     0.42172  0.42172  0.00000  0.15656
      19     C     3.15327  3.15327  0.00000 -0.30654
      20     H     0.42149  0.42149  0.00000  0.15702
      21     H     0.42233  0.42233  0.00000  0.15535
      22     C     3.24233  3.24233  0.00000 -0.48467
      23     H     0.42027  0.42027  0.00000  0.15946
      24     H     0.42239  0.42239  0.00000  0.15522
      25     H     0.42279  0.42279  0.00000  0.15442
      26     H     0.41913  0.41913  0.00000  0.16173
      27     H     0.41895  0.41895  0.00000  0.16210

   Total alpha = 37.00000, Total beta = 37.00000, Total charge = -0.00000
