  ==> Input File <==

--------------------------------------------------------------------------
set {
	reference rhf
	basis 6-31G*
}

set_num_threads( 4 )
memory 2 gb

molecule MOL {
0 1

H	 2.067447	 1.295881	 -0.945191
O	 1.189185	 0.931024	 -0.993378
C	 1.050492	 0.053836	 0.000068
C	 -0.318135	 -0.576402	 0.000164
O	 1.926134	 -0.173312	 0.769906
C	 -1.454360	 0.441875	 -0.000474
H	 -0.374042	 -1.230163	 -0.866135
H	 -0.374274	 -1.229227	 0.867154
C	 -2.826123	 -0.230780	 0.000056
H	 -1.357605	 1.085198	 -0.868380
H	 -1.357504	 1.086451	 0.866496
H	 -2.959731	 -0.858053	 -0.876869
H	 -3.619374	 0.509403	 -0.000080
H	 -2.959371	 -0.857318	 0.877556

	symmetry c1
}
set optking {
	frozen_dihedral = ("
		2 3 4 7
	")
}

ee = optimize('scf')
oeprop('DIPOLE', 'QUADRUPOLE', 'MULLIKEN_CHARGES')
f=open( 'psi4out.xyz', 'w' )
f.write( "14  " )
f.write( str(ee) + "\n" )
f.write( MOL.save_string_xyz() )
f.close()
--------------------------------------------------------------------------

    Molecular point group: c1
  Charge       = 0
  Multiplicity = 1
  Basis Set: 6-31G*
  Basis Set:
  @DF-RHF Final Energy:  -305.87902825075923
    Total Energy =                       -305.8790282507591201
    Molecular point group: c1
  Basis Set: 6-31G*
  Basis Set:
  Basis Set: 6-31G*
  Basis Set:
  @DF-RHF Final Energy:  -305.87922053004218
    Total Energy =                       -305.8792205300421756
  Basis Set: 6-31G*
  Basis Set:
  Basis Set: 6-31G*
  Basis Set:
  @DF-RHF Final Energy:  -305.87882596987441
    Total Energy =                       -305.8788259698744696
  Basis Set: 6-31G*
  Basis Set:
  Basis Set: 6-31G*
  Basis Set:
  @DF-RHF Final Energy:  -305.87930162450334
    Total Energy =                       -305.8793016245033414
  Basis Set: 6-31G*
  Basis Set:
  Charge       = 0
  Multiplicity = 1
  Basis Set: 6-31G*
  Basis Set:

    Orbital Energies (a.u.)
    -----------------------

    Doubly Occupied:

       1A    -20.613662     2A    -20.550214     3A    -11.380706
       4A    -11.240404     5A    -11.233423     6A    -11.220526
       7A     -1.474732     8A     -1.364798     9A     -1.086018
      10A     -0.979217    11A     -0.848013    12A     -0.814621
      13A     -0.700715    14A     -0.684488    15A     -0.651691
      16A     -0.626084    17A     -0.592418    18A     -0.564897
      19A     -0.552031    20A     -0.520618    21A     -0.499248
      22A     -0.487645    23A     -0.473576    24A     -0.437659

  @DF-RHF Final Energy:  -305.87930240341950

   => Energetics <=

    Nuclear Repulsion Energy =            240.4032582680749499
    One-Electron Energy =                -893.3703181389601014
    Two-Electron Energy =                 347.0877574674657353
    DFT Exchange-Correlation Energy =       0.0000000000000000
    Empirical Dispersion Energy =           0.0000000000000000
    PCM Polarization Energy =               0.0000000000000000
    EFP Energy =                            0.0000000000000000
    Total Energy =                       -305.8793024034193877
    Molecular point group: c1
  Basis Set: 6-31G*
  Basis Set:

  -Total Gradient:
     Atom            X                  Y                   Z
    ------   -----------------  -----------------  -----------------
       1        0.000018161890     0.000015059258    -0.000017493362
       2       -0.000148241616     0.000439971772     0.000315197663
       3        0.000323085341    -0.000767310667    -0.000297434212
       4       -0.000353759568     0.000709180585    -0.000250443182
       5       -0.000048034063     0.000087116694    -0.000060525335
       6        0.000033136535    -0.000003390678    -0.000041462563
       7        0.000206085332    -0.000452736212     0.000353503755
       8       -0.000011283516    -0.000014061779     0.000001363936
       9       -0.000022752512    -0.000014106206     0.000040803379
      10        0.000031293229     0.000007030073    -0.000000093401
      11       -0.000010668263     0.000000473154    -0.000026988291
      12       -0.000017523914     0.000014468553    -0.000010870620
      13       -0.000003532454     0.000004666009     0.000016481399
      14        0.000004033574    -0.000026360556    -0.000022039163

  **** Optimization is complete! (in 5 steps) ****
    Final optimized geometry and variables:
    Molecular point group: c1

    Geometry (in Angstrom), charge = 0, multiplicity = 1:

    H            2.141169101942     1.205825104257    -0.856958593817
    O            1.254509767779     0.863708192923    -0.917904400899
    C            1.094016682548    -0.038490097229     0.050146593997
    C           -0.278116738511    -0.661510178325     0.040907634788
    O            1.965517433869    -0.304205392086     0.812573142551
    C           -1.424660657643     0.356684663626     0.029462940987
    H           -0.339205966962    -1.295697759937    -0.840152801356
    H           -0.336299139045    -1.303832878680     0.910054207579
    C           -2.790449132782    -0.326906719609     0.064769659755
    H           -1.345958895235     0.979388789468    -0.853988465655
    H           -1.327460347144     1.016613659243     0.887483583417
    H           -2.929880295761    -0.969847925136    -0.799565240830
    H           -3.589860739014     0.406682201629     0.063693438874
    H           -2.902862824229    -0.938624179718     0.954938842257

  Mulliken Charges: (a.u.)
   Center  Symbol    Alpha    Beta     Spin     Total
       1     H     0.26736  0.26736  0.00000  0.46527
       2     O     4.34737  4.34737  0.00000 -0.69474
       3     C     2.62860  2.62860  0.00000  0.74279
       4     C     3.20307  3.20307  0.00000 -0.40614
       5     O     4.27961  4.27961  0.00000 -0.55922
       6     C     3.16198  3.16198  0.00000 -0.32397
       7     H     0.40163  0.40163  0.00000  0.19674
       8     H     0.39667  0.39667  0.00000  0.20667
       9     C     3.24194  3.24194  0.00000 -0.48388
      10     H     0.40516  0.40516  0.00000  0.18968
      11     H     0.41447  0.41447  0.00000  0.17107
      12     H     0.41927  0.41927  0.00000  0.16146
      13     H     0.41451  0.41451  0.00000  0.17099
      14     H     0.41836  0.41836  0.00000  0.16328

   Total alpha = 24.00000, Total beta = 24.00000, Total charge = -0.00000
