  ==> Input File <==

--------------------------------------------------------------------------
set {
	reference rhf
	basis 6-31G*
}

set_num_threads( 4 )
memory 2 gb

molecule MOL {
0 1

H	 -2.428871	 -0.607170	 0.794250
O	 -2.315789	 -0.143634	 -0.024262
C	 -0.945151	 -0.064130	 -0.333158
H	 -0.813375	 -0.223047	 -1.403232
C	 -0.232801	 -1.184051	 0.407206
C	 -0.355424	 1.302939	 0.054523
H	 -0.318824	 -0.992899	 1.473524
H	 -0.742411	 -2.122033	 0.217954
C	 1.248522	 -1.270719	 -0.013048
H	 -0.546144	 2.018388	 -0.742941
H	 -0.890929	 1.656788	 0.930149
C	 1.156425	 1.235120	 0.355905
H	 1.825384	 -1.683246	 0.809111
H	 1.357782	 -1.965923	 -0.840362
C	 1.828244	 0.099899	 -0.419275
H	 1.626109	 2.185622	 0.123525
H	 1.309438	 1.071213	 1.419539
H	 2.901447	 0.112642	 -0.255830
H	 1.681817	 0.263413	 -1.484607

	symmetry c1
}
set optking {
	frozen_dihedral = ("
		1 2 3 4
	")
}

ee = optimize('scf')
oeprop('DIPOLE', 'QUADRUPOLE', 'MULLIKEN_CHARGES')
f=open( 'psi4out.xyz', 'w' )
f.write( "19  " )
f.write( str(ee) + "\n" )
f.write( MOL.save_string_xyz() )
f.close()
--------------------------------------------------------------------------

    Molecular point group: c1
  Charge       = 0
  Multiplicity = 1
  Basis Set: 6-31G*
  Basis Set:
  @DF-RHF Final Energy:  -309.04492698144730
    Total Energy =                       -309.0449269814475315
    Molecular point group: c1
  Basis Set: 6-31G*
  Basis Set:
  Basis Set: 6-31G*
  Basis Set:
  @DF-RHF Final Energy:  -309.04632041527674
    Total Energy =                       -309.0463204152770231
  Basis Set: 6-31G*
  Basis Set:
  Basis Set: 6-31G*
  Basis Set:
  @DF-RHF Final Energy:  -309.04666176859604
    Total Energy =                       -309.0466617685957544
  Basis Set: 6-31G*
  Basis Set:
  Basis Set: 6-31G*
  Basis Set:
  @DF-RHF Final Energy:  -309.04666823995154
    Total Energy =                       -309.0466682399516003
  Basis Set: 6-31G*
  Basis Set:
  Charge       = 0
  Multiplicity = 1
  Basis Set: 6-31G*
  Basis Set:

    Orbital Energies (a.u.)
    -----------------------

    Doubly Occupied:

       1A    -20.547980     2A    -11.268730     3A    -11.221537
       4A    -11.220233     5A    -11.217841     6A    -11.216417
       7A    -11.209111     8A     -1.357295     9A     -1.110593
      10A     -1.004890    11A     -0.988851    12A     -0.851302
      13A     -0.835600    14A     -0.749143    15A     -0.672120
      16A     -0.668591    17A     -0.621525    18A     -0.597128
      19A     -0.579987    20A     -0.554957    21A     -0.532116
      22A     -0.521783    23A     -0.501406    24A     -0.492132
      25A     -0.464272    26A     -0.449544    27A     -0.429298
      28A     -0.409646

  @DF-RHF Final Energy:  -309.04666904862250

   => Energetics <=

    Nuclear Repulsion Energy =            331.2023012735997440
    One-Electron Energy =               -1075.9098852421757329
    Two-Electron Energy =                 435.6609149199532567
    DFT Exchange-Correlation Energy =       0.0000000000000000
    Empirical Dispersion Energy =           0.0000000000000000
    PCM Polarization Energy =               0.0000000000000000
    EFP Energy =                            0.0000000000000000
    Total Energy =                       -309.0466690486227890
    Molecular point group: c1
  Basis Set: 6-31G*
  Basis Set:

  -Total Gradient:
     Atom            X                  Y                   Z
    ------   -----------------  -----------------  -----------------
       1       -0.000126872508    -0.001737895656    -0.001018458277
       2        0.000162739291     0.001763921124     0.001312588598
       3       -0.000136317714     0.001626018568    -0.000516278297
       4        0.000097294190    -0.001686954550     0.000276079871
       5       -0.000030427546     0.000012686044    -0.000032214000
       6        0.000060605586    -0.000009880963     0.000011827656
       7        0.000004690478    -0.000008839338    -0.000021658542
       8        0.000005991833    -0.000005874578     0.000009344694
       9       -0.000008644086    -0.000008228970     0.000054154180
      10        0.000024233273     0.000022963236    -0.000019346853
      11       -0.000001263518    -0.000008746360    -0.000017350434
      12       -0.000028002548     0.000034439758    -0.000023013159
      13        0.000022746387    -0.000024941885    -0.000003032730
      14       -0.000017438016     0.000004412127    -0.000002353358
      15       -0.000010723250     0.000022515766    -0.000024927213
      16       -0.000008876161     0.000014897536     0.000018595759
      17       -0.000003135063    -0.000000497261     0.000002681968
      18       -0.000012144475    -0.000016975001     0.000000497698
      19        0.000005543852     0.000006980403    -0.000007137560

  **** Optimization is complete! (in 5 steps) ****
    Final optimized geometry and variables:
    Molecular point group: c1

    Geometry (in Angstrom), charge = 0, multiplicity = 1:

    H           -2.525650064095    -0.544413661614     0.715859419659
    O           -2.339969243000    -0.086680950827    -0.091598453612
    C           -0.949475311811    -0.065220925939    -0.320139936699
    H           -0.828465305865    -0.232064177592    -1.385339074892
    C           -0.219690994231    -1.187687397835     0.410694453288
    C           -0.360528976476     1.301303684073     0.063998362989
    H           -0.288683290637    -1.005799938133     1.483039275872
    H           -0.718232298259    -2.133603119475     0.219856250859
    C            1.260209003280    -1.264593246502    -0.018624052485
    H           -0.573566878630     2.011732503263    -0.728938729906
    H           -0.889025185394     1.655825583602     0.943668650874
    C            1.155217329316     1.240793911054     0.345939991156
    H            1.846632162991    -1.667199553542     0.801572055702
    H            1.366332332951    -1.963957461730    -0.842335217140
    C            1.822600949352     0.108879724078    -0.437773480046
    H            1.618008022503     2.192935346265     0.106665986201
    H            1.326989211148     1.078444009503     1.407591231224
    H            2.898234184891     0.126771069847    -0.292281615832
    H            1.656791932874     0.267746116118    -1.500659940160

  Mulliken Charges: (a.u.)
   Center  Symbol    Alpha    Beta     Spin     Total
       1     H     0.28157  0.28157  0.00000  0.43687
       2     O     4.38370  4.38370  0.00000 -0.76739
       3     C     2.89805  2.89805  0.00000  0.20391
       4     H     0.41992  0.41992  0.00000  0.16016
       5     C     3.19040  3.19040  0.00000 -0.38080
       6     C     3.16163  3.16163  0.00000 -0.32326
       7     H     0.42391  0.42391  0.00000  0.15217
       8     H     0.41248  0.41248  0.00000  0.17505
       9     C     3.15770  3.15770  0.00000 -0.31541
      10     H     0.41528  0.41528  0.00000  0.16944
      11     H     0.41797  0.41797  0.00000  0.16405
      12     C     3.16555  3.16555  0.00000 -0.33111
      13     H     0.41754  0.41754  0.00000  0.16492
      14     H     0.41651  0.41651  0.00000  0.16698
      15     C     3.16452  3.16452  0.00000 -0.32905
      16     H     0.41579  0.41579  0.00000  0.16842
      17     H     0.42152  0.42152  0.00000  0.15695
      18     H     0.41620  0.41620  0.00000  0.16760
      19     H     0.41976  0.41976  0.00000  0.16049

   Total alpha = 28.00000, Total beta = 28.00000, Total charge =  0.00000
