  ==> Input File <==

--------------------------------------------------------------------------
set {
	reference rhf
	basis 6-31G*
}

set_num_threads( 4 )
memory 2 gb

molecule MOL {
0 1

O	 3.225979	 0.970355	 -0.599647
C	 2.701189	 0.057885	 -0.047330
C	 1.245376	 -0.013843	 0.345420
O	 3.347903	 -1.046386	 0.304773
C	 0.455112	 1.231400	 -0.050772
H	 0.838542	 -0.913825	 -0.103701
H	 1.208210	 -0.175333	 1.419774
C	 -0.998893	 1.219485	 0.433193
H	 0.482531	 1.345121	 -1.130325
H	 0.957290	 2.103070	 0.354729
C	 -1.883438	 0.145884	 -0.207175
H	 -1.431207	 2.195402	 0.224832
H	 -1.019646	 1.105716	 1.516076
C	 -2.812651	 -0.536982	 0.798438
H	 -2.479883	 0.598675	 -0.997779
H	 -1.266556	 -0.611475	 -0.685544
C	 -3.697607	 -1.615349	 0.170657
H	 -3.443343	 0.213208	 1.272439
H	 -2.217428	 -0.980756	 1.594977
C	 -4.625229	 -2.289702	 1.180837
H	 -4.292351	 -1.173810	 -0.626190
H	 -3.068891	 -2.368403	 -0.299881
H	 -5.239260	 -3.048732	 0.706026
H	 -5.291590	 -1.567523	 1.644103
H	 -4.058636	 -2.770753	 1.973198
C	 4.728119	 -1.109107	 -0.004993
H	 4.882018	 -1.033965	 -1.071845
H	 5.068212	 -2.067527	 0.355250
H	 5.265056	 -0.311663	 0.488280

	symmetry c1
}
set optking {
	frozen_dihedral = ("
		15 11 8 5
	")
}

ee = optimize('scf')
oeprop('DIPOLE', 'QUADRUPOLE', 'MULLIKEN_CHARGES')
f=open( 'psi4out.xyz', 'w' )
f.write( "29  " )
f.write( str(ee) + "\n" )
f.write( MOL.save_string_xyz() )
f.close()
--------------------------------------------------------------------------

    Molecular point group: c1
  Charge       = 0
  Multiplicity = 1
  Basis Set: 6-31G*
  Basis Set:
  @DF-RHF Final Energy:  -501.03938223800481
    Total Energy =                       -501.0393822380051461
    Molecular point group: c1
  Basis Set: 6-31G*
  Basis Set:
  Basis Set: 6-31G*
  Basis Set:
  @DF-RHF Final Energy:  -501.03964172517362
    Total Energy =                       -501.0396417251737375
  Basis Set: 6-31G*
  Basis Set:
  Basis Set: 6-31G*
  Basis Set:
  @DF-RHF Final Energy:  -501.03989152289932
    Total Energy =                       -501.0398915229002341
  Basis Set: 6-31G*
  Basis Set:
  Basis Set: 6-31G*
  Basis Set:
  @DF-RHF Final Energy:  -501.03990142297255
    Total Energy =                       -501.0399014229724344
  Basis Set: 6-31G*
  Basis Set:
  Basis Set: 6-31G*
  Basis Set:
  @DF-RHF Final Energy:  -501.03990432625096
    Total Energy =                       -501.0399043262500527
  Basis Set: 6-31G*
  Basis Set:
  Basis Set: 6-31G*
  Basis Set:
  @DF-RHF Final Energy:  -501.03990954361450
    Total Energy =                       -501.0399095436148400
  Basis Set: 6-31G*
  Basis Set:
  Basis Set: 6-31G*
  Basis Set:
  @DF-RHF Final Energy:  -501.03991126733160
    Total Energy =                       -501.0399112673311492
  Basis Set: 6-31G*
  Basis Set:
  Charge       = 0
  Multiplicity = 1
  Basis Set: 6-31G*
  Basis Set:

    Orbital Energies (a.u.)
    -----------------------

    Doubly Occupied:

       1A    -20.603569     2A    -20.545365     3A    -11.372239
       4A    -11.280809     5A    -11.235141     6A    -11.219310
       7A    -11.217439     8A    -11.215963     9A    -11.215758
      10A    -11.214854    11A    -11.209326    12A     -1.469257
      13A     -1.362703    14A     -1.097272    15A     -1.066849
      16A     -1.018534    17A     -0.977116    18A     -0.928838
      19A     -0.860762    20A     -0.800533    21A     -0.790311
      22A     -0.764819    23A     -0.701733    24A     -0.682511
      25A     -0.672039    26A     -0.647864    27A     -0.629416
      28A     -0.605040    29A     -0.596353    30A     -0.577650
      31A     -0.565363    32A     -0.555346    33A     -0.534074
      34A     -0.527911    35A     -0.512954    36A     -0.507041
      37A     -0.503103    38A     -0.476053    39A     -0.472727
      40A     -0.461689    41A     -0.458335    42A     -0.455586
      43A     -0.438627    44A     -0.435901

  @DF-RHF Final Energy:  -501.03991226072151

   => Energetics <=

    Nuclear Repulsion Energy =            615.0875392854767369
    One-Electron Energy =               -1901.2867384151320493
    Two-Electron Energy =                 785.1592868689335774
    DFT Exchange-Correlation Energy =       0.0000000000000000
    Empirical Dispersion Energy =           0.0000000000000000
    PCM Polarization Energy =               0.0000000000000000
    EFP Energy =                            0.0000000000000000
    Total Energy =                       -501.0399122607218487
    Molecular point group: c1
  Basis Set: 6-31G*
  Basis Set:

  -Total Gradient:
     Atom            X                  Y                   Z
    ------   -----------------  -----------------  -----------------
       1        0.000001365596    -0.000004042446    -0.000001321731
       2        0.000013012304     0.000027741626     0.000043488648
       3        0.000010128455     0.000016425002     0.000033818531
       4       -0.000004452186    -0.000005750706    -0.000013960700
       5        0.000584555186    -0.001398931865     0.001577868001
       6        0.000027804993     0.000001501850    -0.000038916371
       7       -0.000038460735    -0.000024187758     0.000000765220
       8       -0.001302232409     0.002176513718    -0.001709569908
       9       -0.000041366064    -0.000053542615    -0.000008649260
      10        0.000019408639     0.000005004640    -0.000065712978
      11        0.002830030538    -0.001248940308    -0.001853700144
      12        0.000006871172     0.000006404689     0.000028868307
      13        0.000003063265    -0.000024824004    -0.000005976260
      14       -0.000012516448     0.000004988119    -0.000004023385
      15       -0.002114787184     0.000524807388     0.001998109167
      16        0.000008260638    -0.000000358578     0.000017969457
      17       -0.000007812564     0.000009362782    -0.000000367854
      18        0.000012106989    -0.000000636686     0.000015930753
      19        0.000005434298    -0.000013154914    -0.000013666496
      20       -0.000001681085     0.000001953897    -0.000001033837
      21        0.000003040709     0.000000858670    -0.000001724406
      22       -0.000001679915    -0.000002843467     0.000000757254
      23        0.000001967672    -0.000001669668     0.000000342586
      24       -0.000001507988    -0.000000080224    -0.000001673634
      25       -0.000000080049     0.000001911359     0.000001760057
      26       -0.000000549876     0.000000885428     0.000000471353
      27       -0.000000641666     0.000000070903     0.000000025914
      28        0.000000071125     0.000000238385    -0.000000019392
      29        0.000000646603     0.000000294781     0.000000141110

  **** Optimization is complete! (in 8 steps) ****
    Final optimized geometry and variables:
    Molecular point group: c1

    Geometry (in Angstrom), charge = 0, multiplicity = 1:

    O            2.994718861326     1.192540791135    -0.956871607329
    C            2.514912378765     0.350584571813    -0.268489507950
    C            1.087881943036     0.323557879696     0.222753350217
    O            3.193248905985    -0.702725955554     0.169620620241
    C            0.261674741070     1.513278022033    -0.260319582934
    H            0.659708401499    -0.623860020275    -0.089225634616
    H            1.120808409535     0.289107536668     1.308515523468
    C           -1.183898709859     1.485888523755     0.250473141951
    H            0.272361607254     1.544175048205    -1.345619799388
    H            0.745466058594     2.426391681695     0.069875877718
    C           -2.077870919106     0.410348878724    -0.402208965711
    H           -1.628943313123     2.464074260810     0.095769824823
    H           -1.165242062881     1.337898144772     1.328797232372
    C           -3.011625943037    -0.284965252348     0.592572032517
    H           -2.689182906851     0.873178102737    -1.172930115177
    H           -1.472054245471    -0.340869406471    -0.902031391809
    C           -3.947433433939    -1.302171221152    -0.061800649673
    H           -3.604335955518     0.465853382621     1.113083681603
    H           -2.416100753890    -0.783095819911     1.356335979055
    C           -4.870435749912    -1.996136497321     0.939385880894
    H           -4.547667813388    -0.803394912320    -0.819793322395
    H           -3.356243126428    -2.050501152397    -0.585815878101
    H           -5.521403787033    -2.710655540971     0.445137493644
    H           -5.500231529872    -1.276967187410     1.455500007999
    H           -4.299896984239    -2.533862255054     1.691455085220
    C            4.551922811892    -0.798372626723    -0.217500952798
    H            4.637871034721    -0.849651626861    -1.293368440936
    H            4.923341884022    -1.706594090947     0.231008838198
    H            5.110773998868     0.053145714598     0.143231133943

  Mulliken Charges: (a.u.)
   Center  Symbol    Alpha    Beta     Spin     Total
       1     O     4.28576  4.28576  0.00000 -0.57152
       2     C     2.60525  2.60525  0.00000  0.78950
       3     C     3.20855  3.20855  0.00000 -0.41710
       4     O     4.30740  4.30740  0.00000 -0.61480
       5     C     3.15494  3.15494  0.00000 -0.30987
       6     H     0.39982  0.39982  0.00000  0.20035
       7     H     0.40091  0.40091  0.00000  0.19818
       8     C     3.15976  3.15976  0.00000 -0.31951
       9     H     0.41167  0.41167  0.00000  0.17665
      10     H     0.41058  0.41058  0.00000  0.17884
      11     C     3.15560  3.15560  0.00000 -0.31119
      12     H     0.41561  0.41561  0.00000  0.16878
      13     H     0.42239  0.42239  0.00000  0.15521
      14     C     3.15250  3.15250  0.00000 -0.30500
      15     H     0.41952  0.41952  0.00000  0.16096
      16     H     0.42281  0.42281  0.00000  0.15439
      17     C     3.15190  3.15190  0.00000 -0.30380
      18     H     0.42305  0.42305  0.00000  0.15390
      19     H     0.42485  0.42485  0.00000  0.15030
      20     C     3.23922  3.23922  0.00000 -0.47845
      21     H     0.42268  0.42268  0.00000  0.15464
      22     H     0.42346  0.42346  0.00000  0.15308
      23     H     0.41916  0.41916  0.00000  0.16168
      24     H     0.42164  0.42164  0.00000  0.15673
      25     H     0.42192  0.42192  0.00000  0.15616
      26     C     3.09241  3.09241  0.00000 -0.18482
      27     H     0.40906  0.40906  0.00000  0.18187
      28     H     0.40849  0.40849  0.00000  0.18302
      29     H     0.40908  0.40908  0.00000  0.18184

   Total alpha = 44.00000, Total beta = 44.00000, Total charge = -0.00000
