  ==> Input File <==

--------------------------------------------------------------------------
set {
	reference rhf
	basis 6-31G*
}

set_num_threads( 4 )
memory 2 gb

molecule MOL {
0 1

H	 -2.653099	 -0.308434	 0.975738
O	 -2.347518	 -0.290803	 0.079804
C	 -1.184022	 0.487508	 -0.006784
C	 0.062599	 -0.378592	 0.031606
H	 -1.176523	 1.099369	 -0.904519
H	 -1.187323	 1.153111	 0.844927
O	 1.171513	 0.459272	 -0.058250
H	 0.050699	 -1.089204	 -0.797170
H	 0.078739	 -0.954914	 0.954740
C	 2.397842	 -0.198080	 -0.002151
H	 2.508049	 -0.905315	 -0.822092
H	 3.173794	 0.550865	 -0.078850
H	 2.517602	 -0.735921	 0.936026

	symmetry c1
}
set optking {
	frozen_dihedral = ("
		1 2 3 5
	")
}

ee = optimize('scf')
oeprop('DIPOLE', 'QUADRUPOLE', 'MULLIKEN_CHARGES')
f=open( 'psi4out.xyz', 'w' )
f.write( "13  " )
f.write( str(ee) + "\n" )
f.write( MOL.save_string_xyz() )
f.close()
--------------------------------------------------------------------------

    Molecular point group: c1
  Charge       = 0
  Multiplicity = 1
  Basis Set: 6-31G*
  Basis Set:
  @DF-RHF Final Energy:  -267.94852691982931
    Total Energy =                       -267.9485269198291917
    Molecular point group: c1
  Basis Set: 6-31G*
  Basis Set:
  Basis Set: 6-31G*
  Basis Set:
  @DF-RHF Final Energy:  -267.94965938730695
    Total Energy =                       -267.9496593873070651
  Basis Set: 6-31G*
  Basis Set:
  Basis Set: 6-31G*
  Basis Set:
  @DF-RHF Final Energy:  -267.94999337988440
    Total Energy =                       -267.9499933798844040
  Basis Set: 6-31G*
  Basis Set:
  Basis Set: 6-31G*
  Basis Set:
  @DF-RHF Final Energy:  -267.94999990245122
    Total Energy =                       -267.9499999024509407
  Basis Set: 6-31G*
  Basis Set:
  Charge       = 0
  Multiplicity = 1
  Basis Set: 6-31G*
  Basis Set:

    Orbital Energies (a.u.)
    -----------------------

    Doubly Occupied:

       1A    -20.560181     2A    -20.558979     3A    -11.269259
       4A    -11.268590     5A    -11.267435     6A     -1.386429
       7A     -1.363780     8A     -1.017758     9A     -0.912197
      10A     -0.837119    11A     -0.711996    12A     -0.674717
      13A     -0.653138    14A     -0.639433    15A     -0.599296
      16A     -0.558847    17A     -0.545992    18A     -0.486840
      19A     -0.482652    20A     -0.437570    21A     -0.419783

  @DF-RHF Final Energy:  -267.95000060908205

   => Energetics <=

    Nuclear Repulsion Energy =            190.1513310109342285
    One-Electron Energy =                -742.8986844721921443
    Two-Electron Energy =                 284.7973528521761182
    DFT Exchange-Correlation Energy =       0.0000000000000000
    Empirical Dispersion Energy =           0.0000000000000000
    PCM Polarization Energy =               0.0000000000000000
    EFP Energy =                            0.0000000000000000
    Total Energy =                       -267.9500006090818260
    Molecular point group: c1
  Basis Set: 6-31G*
  Basis Set:

  -Total Gradient:
     Atom            X                  Y                   Z
    ------   -----------------  -----------------  -----------------
       1       -0.000671430834     0.000956060387    -0.000266652734
       2        0.000692589159    -0.000985829761     0.000446136772
       3        0.000443438710    -0.000775207942    -0.000620079077
       4       -0.000027199780     0.000043029894    -0.000023941288
       5       -0.000472895240     0.000754246245     0.000473280515
       6        0.000002985725    -0.000001802526     0.000001796058
       7        0.000032119582    -0.000005457149    -0.000003725701
       8       -0.000001218547    -0.000012597295    -0.000003113297
       9       -0.000013000191     0.000018202405    -0.000010938479
      10        0.000011792584     0.000012766593     0.000011157573
      11       -0.000005598247     0.000003128492    -0.000001200398
      12        0.000004353403    -0.000002895827    -0.000002017171
      13        0.000004063681    -0.000003643514    -0.000000702772

  **** Optimization is complete! (in 5 steps) ****
    Final optimized geometry and variables:
    Molecular point group: c1

    Geometry (in Angstrom), charge = 0, multiplicity = 1:

    H           -2.688758355029    -0.320596805006     0.903477765482
    O           -2.336717369789    -0.312686107023     0.026399656355
    C           -1.182496982590     0.487286228171    -0.022482343682
    C            0.062001778587    -0.378608311523     0.027347428157
    H           -1.201368529534     1.049583030560    -0.946911855577
    H           -1.157951557726     1.204892260868     0.791912411872
    O            1.172900272574     0.460317610532    -0.045948378532
    H            0.048145927265    -1.083883511366    -0.801376767322
    H            0.074852264637    -0.957781054806     0.950932785017
    C            2.397075247137    -0.203117725851    -0.043328280597
    H            2.486238719383    -0.875590439509    -0.894078719957
    H            3.174992139943     0.545399855786    -0.104699722741
    H            2.534451410482    -0.780563801645     0.868971197172

  Mulliken Charges: (a.u.)
   Center  Symbol    Alpha    Beta     Spin     Total
       1     H     0.27860  0.27860  0.00000  0.44279
       2     O     4.37338  4.37338  0.00000 -0.74676
       3     C     3.00720  3.00720  0.00000 -0.01440
       4     C     2.99240  2.99240  0.00000  0.01521
       5     H     0.41107  0.41107  0.00000  0.17785
       6     H     0.42299  0.42299  0.00000  0.15403
       7     O     4.30867  4.30867  0.00000 -0.61734
       8     H     0.42358  0.42358  0.00000  0.15285
       9     H     0.43398  0.43398  0.00000  0.13205
      10     C     3.07955  3.07955  0.00000 -0.15910
      11     H     0.42789  0.42789  0.00000  0.14421
      12     H     0.41135  0.41135  0.00000  0.17729
      13     H     0.42934  0.42934  0.00000  0.14131

   Total alpha = 21.00000, Total beta = 21.00000, Total charge = -0.00000
