  ==> Input File <==

--------------------------------------------------------------------------
set {
	reference rhf
	basis cc-pvtz
}

set_num_threads( 4 )
memory 2 gb

molecule MOL {
0 1

H	 -3.144994	 -1.202467	 -0.018751
O	 -2.321472	 -0.864941	 -0.318626
C	 -2.021813	 0.336996	 0.342658
C	 -0.669613	 0.837286	 -0.127252
H	 -2.780861	 1.084746	 0.127159
H	 -2.006390	 0.184138	 1.420053
C	 0.490865	 -0.082543	 0.241244
H	 -0.708709	 0.967192	 -1.204587
H	 -0.507562	 1.822272	 0.303070
C	 1.839800	 0.429565	 -0.255472
H	 0.305636	 -1.070211	 -0.165276
H	 0.527397	 -0.195943	 1.322876
C	 1.960452	 1.948743	 -0.197785
H	 2.632656	 -0.016529	 0.338736
H	 2.000412	 0.094644	 -1.277098
H	 1.839542	 2.311526	 0.817442
H	 2.928870	 2.280546	 -0.554685
H	 1.201655	 2.425244	 -0.809846

	symmetry c1
}
set optking {
	frozen_dihedral = ("
		14 10 7 11
	")
}

ee = optimize('scf')
oeprop('DIPOLE', 'QUADRUPOLE', 'MULLIKEN_CHARGES')
f=open( 'psi4out.xyz', 'w' )
f.write( "18  " )
f.write( str(ee) + "\n" )
f.write( MOL.save_string_xyz() )
f.close()
--------------------------------------------------------------------------

    Molecular point group: c1
  Charge       = 0
  Multiplicity = 1
  Basis Set: CC-PVTZ
  Basis Set:
  @DF-RHF Final Energy:  -271.28010219900921
    Total Energy =                       -271.2801021990089794
    Molecular point group: c1
  Basis Set: CC-PVTZ
  Basis Set:
  Basis Set: CC-PVTZ
  Basis Set:
  @DF-RHF Final Energy:  -271.28099123846368
    Total Energy =                       -271.2809912384636277
  Basis Set: CC-PVTZ
  Basis Set:
  Basis Set: CC-PVTZ
  Basis Set:
  @DF-RHF Final Energy:  -271.28224943747023
    Total Energy =                       -271.2822494374701137
  Basis Set: CC-PVTZ
  Basis Set:
  Basis Set: CC-PVTZ
  Basis Set:
  @DF-RHF Final Energy:  -271.28235560521659
    Total Energy =                       -271.2823556052162530
  Basis Set: CC-PVTZ
  Basis Set:
  Basis Set: CC-PVTZ
  Basis Set:
  @DF-RHF Final Energy:  -271.28236531937398
    Total Energy =                       -271.2823653193739233
  Basis Set: CC-PVTZ
  Basis Set:
  Basis Set: CC-PVTZ
  Basis Set:
  @DF-RHF Final Energy:  -271.28236676090796
    Total Energy =                       -271.2823667609080189
  Basis Set: CC-PVTZ
  Basis Set:
  Charge       = 0
  Multiplicity = 1
  Basis Set: CC-PVTZ
  Basis Set:

    Orbital Energies (a.u.)
    -----------------------

    Doubly Occupied:

       1A    -20.546275     2A    -11.265736     3A    -11.209603
       4A    -11.209567     5A    -11.205180     6A    -11.203083
       7A     -1.364150     8A     -1.075296     9A     -1.006503
      10A     -0.916001    11A     -0.832554    12A     -0.767772
      13A     -0.708915    14A     -0.635886    15A     -0.626615
      16A     -0.603691    17A     -0.566784    18A     -0.552071
      19A     -0.526819    20A     -0.504569    21A     -0.494313
      22A     -0.462331    23A     -0.455272    24A     -0.449984
      25A     -0.429007

  @DF-RHF Final Energy:  -271.28236711085412

   => Energetics <=

    Nuclear Repulsion Energy =            252.3491788641356379
    One-Electron Energy =                -868.0271376152521725
    Two-Electron Energy =                 344.3955916402623529
    DFT Exchange-Correlation Energy =       0.0000000000000000
    Empirical Dispersion Energy =           0.0000000000000000
    PCM Polarization Energy =               0.0000000000000000
    EFP Energy =                            0.0000000000000000
    Total Energy =                       -271.2823671108541816
    Molecular point group: c1
  Basis Set: CC-PVTZ
  Basis Set:

  -Total Gradient:
     Atom            X                  Y                   Z
    ------   -----------------  -----------------  -----------------
       1       -0.000000159203     0.000002379425    -0.000000971900
       2        0.000004018263    -0.000001723227     0.000009317527
       3       -0.000006025211    -0.000001464749    -0.000009277726
       4        0.000005161208    -0.000000439467     0.000002275509
       5       -0.000000169314     0.000002267249     0.000002211643
       6       -0.000000396477    -0.000003996282    -0.000002777262
       7        0.003237423867    -0.001871355932     0.006256947447
       8        0.000005371658     0.000002287908    -0.000002803732
       9        0.000000003064    -0.000005749711     0.000002991066
      10       -0.000553813212    -0.004855640406    -0.005354797781
      11       -0.002656087214     0.002331764006    -0.004474245188
      12        0.000000771197    -0.000001585202     0.000002083575
      13       -0.000002101309    -0.000005917871     0.000005123366
      14       -0.000035294568     0.004411772682     0.003567926130
      15        0.000005170502    -0.000001457626    -0.000001519557
      16        0.000003737620     0.000000304952     0.000001056022
      17        0.000000099041    -0.000001797810    -0.000002198181
      18       -0.000007709911     0.000000352057    -0.000001340962

  **** Optimization is complete! (in 7 steps) ****
    Final optimized geometry and variables:
    Molecular point group: c1

    Geometry (in Angstrom), charge = 0, multiplicity = 1:

    H           -2.926366283921    -1.711178405433    -0.012835155010
    O           -2.119344041053    -1.324820941849    -0.297964588407
    C           -1.882050570918    -0.129526559391     0.399902867712
    C           -0.549968292907     0.448607560069    -0.039412949747
    H           -2.673330688224     0.587516579743     0.196549089912
    H           -1.870699253579    -0.312021712667     1.472835354302
    C            0.641932625293    -0.432420429697     0.339749397098
    H           -0.580219039824     0.589013196733    -1.116117839647
    H           -0.455120063368     1.433495517988     0.405403883577
    C            1.994533877684     0.030910618251    -0.221809979528
    H            0.429778760013    -1.420681208656    -0.048290637301
    H            0.697752684015    -0.504320968678     1.422388749965
    C            2.245776199406     1.538427475969    -0.164665647279
    H            2.779534714529    -0.437166123061     0.363784152766
    H            2.103065131221    -0.310149554015    -1.245877321608
    H            2.133851390256     1.918112929504     0.846316598997
    H            3.255241940356     1.765040926705    -0.488676320296
    H            1.567643127710     2.091881897621    -0.802496793298

  Mulliken Charges: (a.u.)
   Center  Symbol    Alpha    Beta     Spin     Total
       1     H     0.39564  0.39564  0.00000  0.20873
       2     O     4.19883  4.19883  0.00000 -0.39767
       3     C     2.97355  2.97355  0.00000  0.05291
       4     C     3.09453  3.09453  0.00000 -0.18906
       5     H     0.46495  0.46495  0.00000  0.07011
       6     H     0.47381  0.47381  0.00000  0.05238
       7     C     3.09597  3.09597  0.00000 -0.19195
       8     H     0.45137  0.45137  0.00000  0.09725
       9     H     0.45143  0.45143  0.00000  0.09713
      10     C     3.08940  3.08940  0.00000 -0.17879
      11     H     0.44145  0.44145  0.00000  0.11710
      12     H     0.45625  0.45625  0.00000  0.08750
      13     C     3.15730  3.15730  0.00000 -0.31460
      14     H     0.45145  0.45145  0.00000  0.09710
      15     H     0.45089  0.45089  0.00000  0.09821
      16     H     0.45509  0.45509  0.00000  0.08982
      17     H     0.44572  0.44572  0.00000  0.10856
      18     H     0.45236  0.45236  0.00000  0.09527

   Total alpha = 25.00000, Total beta = 25.00000, Total charge =  0.00000
