                              Psi4 1.0.54 Driver

  ==> Input File <==

--------------------------------------------------------------------------
set {
	reference rhf
	basis cc-pvtz
}

set_num_threads( 4 )
memory 2 gb

molecule MOL {
0 1

H	 -1.110525	 -0.802756	 0.345217
N	 -0.712271	 0.000026	 -0.093394
C	 0.733983	 -0.000020	 0.038427
H	 -1.110500	 0.802684	 0.345466
H	 1.140288	 -0.872115	 -0.458223
H	 1.140279	 0.872301	 -0.457866
H	 1.095001	 -0.000244	 1.065617

	symmetry c1
}
ee,wfn = energy('scf', return_wfn=True)
oeprop( wfn, 'DIPOLE', 'QUADRUPOLE', 'MULLIKEN_CHARGES')
oeprop( wfn, 'GRID_ESP')
f=open( 'psi4out.xyz', 'w' )
f.write( "7  " )
f.write( str(ee) + "\n" )
f.write( MOL.save_string_xyz() )
f.close()
--------------------------------------------------------------------------

    Molecular point group: c1

    Geometry (in Angstrom), charge = 0, multiplicity = 1:

       Center              X                  Y                   Z               Mass
    ------------   -----------------  -----------------  -----------------  -----------------
           H         -1.110440914834    -0.802755776519     0.345213566467     1.007825032070
           N         -0.712186914834     0.000026223481    -0.093397433533    14.003074004780
           C          0.734067085166    -0.000019776519     0.038423566467    12.000000000000
           H         -1.110415914834     0.802684223481     0.345462566467     1.007825032070
           H          1.140372085166    -0.872114776519    -0.458226433533     1.007825032070
           H          1.140363085166     0.872301223481    -0.457869433533     1.007825032070
           H          1.095085085166    -0.000243776519     1.065613566467     1.007825032070

  Charge       = 0
  Multiplicity = 1
  Basis Set: CC-PVTZ
  Basis Set:

    Orbital Energies (a.u.)
    -----------------------

    Doubly Occupied:

       1A    -15.528610     2A    -11.235492     3A     -1.172263
       4A     -0.897123     5A     -0.665879     6A     -0.603393
       7A     -0.558627     8A     -0.517382     9A     -0.386877

  @DF-RHF Final Energy:   -95.25376321174352

   => Energetics <=

    Nuclear Repulsion Energy =             42.3906600156260254
    One-Electron Energy =                -212.1576124197089825
    Two-Electron Energy =                  74.5131891923393965
    DFT Exchange-Correlation Energy =       0.0000000000000000
    Empirical Dispersion Energy =           0.0000000000000000
    PCM Polarization Energy =               0.0000000000000000
    EFP Energy =                            0.0000000000000000
    Total Energy =                        -95.2537632117435606

  Mulliken Charges: (a.u.)
   Center  Symbol    Alpha    Beta     Spin     Total
       1     H     0.42862  0.42862  0.00000  0.14277
       2     N     3.68685  3.68685  0.00000 -0.37371
       3     C     3.07150  3.07150  0.00000 -0.14301
       4     H     0.42861  0.42861  0.00000  0.14277
       5     H     0.45601  0.45601  0.00000  0.08798
       6     H     0.45602  0.45602  0.00000  0.08797
       7     H     0.47238  0.47238  0.00000  0.05523

   Total alpha =  9.00000, Total beta =  9.00000, Total charge = -0.00000

*** Psi4 exiting successfully. Buy a developer a beer!
