  ==> Input File <==

--------------------------------------------------------------------------
set {
	reference rhf
	basis 6-31G*
}

set_num_threads( 1 )
memory 2 gb

molecule MOL {
0 1

O	 0.652047	 -0.125326	 -0.494188
C	 1.705091	 0.115954	 0.001797
C	 2.069569	 1.398280	 0.709374
O	 2.721346	 -0.737485	 -0.000216
C	 0.933701	 2.416287	 0.742682
H	 2.391864	 1.134931	 1.713110
H	 2.947585	 1.804042	 0.214234
C	 1.329837	 3.704468	 1.465681
H	 0.069634	 1.972216	 1.226807
H	 0.626649	 2.642901	 -0.273523
C	 0.201729	 4.736618	 1.509221
H	 1.640127	 3.470125	 2.482932
H	 2.198236	 4.143678	 0.976947
C	 0.598524	 6.023983	 2.230674
H	 -0.665679	 4.300258	 1.999459
H	 -0.108731	 4.972397	 0.493760
H	 0.881474	 5.825377	 3.260582
H	 -0.221399	 6.735307	 2.244665
H	 1.443212	 6.502643	 1.743131
C	 4.024888	 -0.184556	 -0.001949
H	 4.179030	 0.422472	 -0.882452
H	 4.701782	 -1.024608	 -0.003642
H	 4.181981	 0.421185	 0.878906

	symmetry c1
}
set optking {
	frozen_dihedral = ("
		15 11 8 12,
		9 5 8 12,
		1 2 3 6,
		9 5 3 6
	")
}

ee = energy('scf')
oeprop('DIPOLE', 'QUADRUPOLE', 'MULLIKEN_CHARGES')
f=open( 'psi4out.xyz', 'w' )
f.write( "23  " )
f.write( str(ee) + "\n" )
f.write( MOL.save_string_xyz() )
f.close()
--------------------------------------------------------------------------

    Molecular point group: c1

    Geometry (in Angstrom), charge = 0, multiplicity = 1:

       Center              X                  Y                   Z               Mass
    ------------   -----------------  -----------------  -----------------  -----------------
           O         -0.952671230810    -2.034587578244    -1.171996865631    15.994914619560
           C          0.100372769190    -1.793307578244    -0.676011865631    12.000000000000
           C          0.464850769190    -0.510981578244     0.031565134369    12.000000000000
           O          1.116627769190    -2.646746578244    -0.678024865631    15.994914619560
           C         -0.671017230810     0.507025421756     0.064873134369    12.000000000000
           H          0.787145769190    -0.774330578244     1.035301134369     1.007825032070
           H          1.342866769190    -0.105219578244    -0.463574865631     1.007825032070
           C         -0.274881230810     1.795206421756     0.787872134369    12.000000000000
           H         -1.535084230810     0.062954421756     0.548998134369     1.007825032070
           H         -0.978069230810     0.733639421756    -0.951331865631     1.007825032070
           C         -1.402989230810     2.827356421756     0.831412134369    12.000000000000
           H          0.035408769190     1.560863421756     1.805123134369     1.007825032070
           H          0.593517769190     2.234416421756     0.299138134369     1.007825032070
           C         -1.006194230810     4.114721421756     1.552865134369    12.000000000000
           H         -2.270397230810     2.390996421756     1.321650134369     1.007825032070
           H         -1.713449230810     3.063135421756    -0.184048865631     1.007825032070
           H         -0.723244230810     3.916115421756     2.582773134369     1.007825032070
           H         -1.826117230810     4.826045421756     1.566856134369     1.007825032070
           H         -0.161506230810     4.593381421756     1.065322134369     1.007825032070
           C          2.420169769190    -2.093817578244    -0.679757865631    12.000000000000
           H          2.574311769190    -1.486789578244    -1.560260865631     1.007825032070
           H          3.097063769190    -2.933869578244    -0.681450865631     1.007825032070
           H          2.577262769190    -1.488076578244     0.201097134369     1.007825032070

  Charge       = 0
  Multiplicity = 1
  Basis Set: 6-31G*
  Basis Set:

    Orbital Energies (a.u.)
    -----------------------

    Doubly Occupied:

       1A    -20.602802     2A    -20.546885     3A    -11.374594
       4A    -11.297294     5A    -11.241421     6A    -11.222935
       7A    -11.221796     8A    -11.219404     9A    -11.212332
      10A     -1.467119    11A     -1.369368    12A     -1.096794
      13A     -1.043043    14A     -0.988147    15A     -0.956694
      16A     -0.857911    17A     -0.799932    18A     -0.764600
      19A     -0.702172    20A     -0.692565    21A     -0.677770
      22A     -0.654804    23A     -0.616644    24A     -0.604434
      25A     -0.582695    26A     -0.564981    27A     -0.561551
      28A     -0.544897    29A     -0.520189    30A     -0.508287
      31A     -0.489357    32A     -0.473156    33A     -0.469401
      34A     -0.466180    35A     -0.452524    36A     -0.428384

  @DF-RHF Final Energy:  -422.95055663330317

   => Energetics <=

    Nuclear Repulsion Energy =            458.2018417658987914
    One-Electron Energy =               -1483.7186137744674852
    Two-Electron Energy =                 602.5662153752657559
    DFT Exchange-Correlation Energy =       0.0000000000000000
    Empirical Dispersion Energy =           0.0000000000000000
    PCM Polarization Energy =               0.0000000000000000
    EFP Energy =                            0.0000000000000000
    Total Energy =                       -422.9505566333029947

  Mulliken Charges: (a.u.)
   Center  Symbol    Alpha    Beta     Spin     Total
       1     O     4.26926  4.26926  0.00000 -0.53852
       2     C     2.59229  2.59229  0.00000  0.81542
       3     C     3.24447  3.24447  0.00000 -0.48894
       4     O     4.30119  4.30119  0.00000 -0.60237
       5     C     3.14831  3.14831  0.00000 -0.29662
       6     H     0.39874  0.39874  0.00000  0.20252
       7     H     0.40267  0.40267  0.00000  0.19467
       8     C     3.15323  3.15323  0.00000 -0.30647
       9     H     0.40946  0.40946  0.00000  0.18107
      10     H     0.41085  0.41085  0.00000  0.17829
      11     C     3.15185  3.15185  0.00000 -0.30370
      12     H     0.42466  0.42466  0.00000  0.15068
      13     H     0.42566  0.42566  0.00000  0.14869
      14     C     3.23967  3.23967  0.00000 -0.47933
      15     H     0.42041  0.42041  0.00000  0.15918
      16     H     0.42088  0.42088  0.00000  0.15824
      17     H     0.42181  0.42181  0.00000  0.15638
      18     H     0.41778  0.41778  0.00000  0.16444
      19     H     0.42215  0.42215  0.00000  0.15570
      20     C     3.10466  3.10466  0.00000 -0.20931
      21     H     0.41115  0.41115  0.00000  0.17769
      22     H     0.39690  0.39690  0.00000  0.20619
      23     H     0.41195  0.41195  0.00000  0.17610

   Total alpha = 36.00000, Total beta = 36.00000, Total charge =  0.00000
