                              Psi4 1.0.54 Driver

  ==> Input File <==

--------------------------------------------------------------------------
set {
	reference rhf
	basis cc-pvtz
}

set_num_threads( 4 )
memory 2 gb

molecule MOL {
0 1

O	 -2.440701	 -0.934798	 -0.415053
C	 -1.922978	 0.063265	 -0.045005
C	 -2.632749	 1.372204	 0.158357
O	 -0.637375	 0.157174	 0.243149
H	 -2.187724	 2.129143	 -0.474664
H	 -3.677681	 1.257276	 -0.079438
H	 -2.516788	 1.693160	 1.185542
C	 0.162530	 -1.009518	 0.097799
C	 1.587210	 -0.664190	 0.477086
H	 0.096803	 -1.356267	 -0.924704
H	 -0.233803	 -1.785900	 0.736810
C	 1.980376	 -1.090684	 1.888924
H	 1.695724	 0.412546	 0.379099
H	 2.261947	 -1.112411	 -0.245870
C	 3.411262	 -0.700744	 2.244070
H	 1.295502	 -0.638527	 2.601384
H	 1.862354	 -2.163723	 1.986400
H	 3.662505	 -1.011266	 3.251462
H	 3.552820	 0.373397	 2.184281
H	 4.122073	 -1.164790	 1.568476

	symmetry c1
}
set optking {
	frozen_dihedral = ("
		12 9 8 10
	")
}

ee,wfn = optimize('scf', return_wfn=True)
oeprop( wfn, 'DIPOLE', 'QUADRUPOLE', 'MULLIKEN_CHARGES')
f=open( 'psi4out.xyz', 'w' )
f.write( "20  " )
f.write( str(ee) + "\n" )
f.write( MOL.save_string_xyz() )
f.close()
--------------------------------------------------------------------------

    Molecular point group: c1
  Charge       = 0
  Multiplicity = 1
  Basis Set: CC-PVTZ
  Basis Set:
  @DF-RHF Final Energy:  -384.08335363471457
    Total Energy =                       -384.0833536347149675
    Molecular point group: c1
  Basis Set: CC-PVTZ
  Basis Set:
  Basis Set: CC-PVTZ
  Basis Set:
  @DF-RHF Final Energy:  -384.08363516886237
    Total Energy =                       -384.0836351688624291
  Basis Set: CC-PVTZ
  Basis Set:
  Basis Set: CC-PVTZ
  Basis Set:
  @DF-RHF Final Energy:  -384.08299246437531
    Total Energy =                       -384.0829924643755930
  Basis Set: CC-PVTZ
  Basis Set:
  Basis Set: CC-PVTZ
  Basis Set:
  @DF-RHF Final Energy:  -384.08371692076230
    Total Energy =                       -384.0837169207625266
  Basis Set: CC-PVTZ
  Basis Set:
  Basis Set: CC-PVTZ
  Basis Set:
  @DF-RHF Final Energy:  -384.08372062192370
    Total Energy =                       -384.0837206219238169
  Basis Set: CC-PVTZ
  Basis Set:
  Basis Set: CC-PVTZ
  Basis Set:
  @DF-RHF Final Energy:  -384.08372169960472
    Total Energy =                       -384.0837216996046664
  Basis Set: CC-PVTZ
  Basis Set:
  Charge       = 0
  Multiplicity = 1
  Basis Set: CC-PVTZ
  Basis Set:

    Orbital Energies (a.u.)
    -----------------------

    Doubly Occupied:

       1A    -20.594738     2A    -20.532619     3A    -11.366427
       4A    -11.279636     5A    -11.231538     6A    -11.222671
       7A    -11.221239     8A    -11.212329     9A     -1.470970
      10A     -1.365089    11A     -1.086505    12A     -1.029902
      13A     -0.980984    14A     -0.882379    15A     -0.808211
      16A     -0.783445    17A     -0.692362    18A     -0.683866
      19A     -0.670943    20A     -0.632392    21A     -0.602999
      22A     -0.593843    23A     -0.572226    24A     -0.554595
      25A     -0.545572    26A     -0.527705    27A     -0.514434
      28A     -0.481711    29A     -0.479476    30A     -0.477355
      31A     -0.448876    32A     -0.441138

  @DF-RHF Final Energy:  -384.08372198153199

   => Energetics <=

    Nuclear Repulsion Energy =            382.4599770502792353
    One-Electron Energy =               -1281.1110561286736811
    Two-Electron Energy =                 514.5673570968624517
    DFT Exchange-Correlation Energy =       0.0000000000000000
    Empirical Dispersion Energy =           0.0000000000000000
    PCM Polarization Energy =               0.0000000000000000
    EFP Energy =                            0.0000000000000000
    Total Energy =                       -384.0837219815319941
    Molecular point group: c1
  Basis Set: CC-PVTZ
  Basis Set:

  -Total Gradient:
     Atom            X                  Y                   Z
    ------   -----------------  -----------------  -----------------
       1       -0.000026744536    -0.000014575797    -0.000012989812
       2        0.000050010533     0.000026412872     0.000021313923
       3        0.000000447362    -0.000003068808     0.000001258522
       4       -0.000034934816     0.000011277520    -0.000011404419
       5       -0.000001164644    -0.000004682716     0.000004213638
       6       -0.000009071354     0.000003582293    -0.000001071979
       7        0.000000508310    -0.000000551373    -0.000007821921
       8       -0.000280263761     0.004051802624    -0.002252904977
       9       -0.001186445091     0.002879527470     0.001838125190
      10        0.000552581211    -0.004116958133     0.001462308349
      11        0.000002587180     0.000002078216    -0.000001368297
      12        0.000941318981    -0.002820810355    -0.001039265581
      13       -0.000008509574    -0.000009318138     0.000001206217
      14       -0.000000811774    -0.000000161430    -0.000000634214
      15        0.000002421650    -0.000005440823     0.000000370750
      16        0.000001720687     0.000000725031     0.000001757846
      17       -0.000000364650     0.000000271517    -0.000000950448
      18       -0.000000647492    -0.000001028702    -0.000002090661
      19       -0.000003216467    -0.000000461507     0.000001097426
      20        0.000000578238     0.000001380240    -0.000001149550

  **** Optimization is complete! (in 7 steps) ****
    Final optimized geometry and variables:
    Molecular point group: c1

    Geometry (in Angstrom), charge = 0, multiplicity = 1:

    O           -2.370182189366    -0.593615414849    -0.971910962902
    C           -1.846010676280     0.410671263752    -0.628775354789
    C           -2.551692076909     1.723263403760    -0.436954763762
    O           -0.554881194263     0.510028909397    -0.367859019388
    H           -2.117459408813     2.467677562005    -1.091816425988
    H           -3.600776713823     1.604614672284    -0.653810511334
    H           -2.417130236743     2.063029349696     0.581820672356
    C            0.241397028355    -0.658780013196    -0.507726830424
    C            1.674517575917    -0.324967269875    -0.109182977489
    H            0.177845939711    -1.026169151477    -1.521599447367
    H           -0.169419983405    -1.433552320756     0.125359350651
    C            2.025786814373    -0.732701260585     1.319678112032
    H            1.837679089870     0.736613882022    -0.252797096140
    H            2.348970616017    -0.835339974973    -0.789829555196
    C            3.453150864981    -0.364764645987     1.707665201004
    H            1.330335782774    -0.263437611083     2.009983858090
    H            1.886756763074    -1.804568088346     1.425630080782
    H            3.676460761674    -0.677099532739     2.721007737270
    H            3.610348745417     0.706952450803     1.649033270472
    H            4.172721210293    -0.839888343625     1.048987078176

  Mulliken Charges: (a.u.)
   Center  Symbol    Alpha    Beta     Spin     Total
       1     O     4.19705  4.19705  0.00000 -0.39409
       2     C     2.80844  2.80844  0.00000  0.38313
       3     C     3.13772  3.13772  0.00000 -0.27543
       4     O     4.15314  4.15314  0.00000 -0.30627
       5     H     0.44574  0.44574  0.00000  0.10852
       6     H     0.43808  0.43808  0.00000  0.12385
       7     H     0.44610  0.44610  0.00000  0.10780
       8     C     2.98549  2.98549  0.00000  0.02903
       9     C     3.08737  3.08737  0.00000 -0.17474
      10     H     0.44810  0.44810  0.00000  0.10380
      11     H     0.45540  0.45540  0.00000  0.08920
      12     C     3.08628  3.08628  0.00000 -0.17256
      13     H     0.44868  0.44868  0.00000  0.10265
      14     H     0.45071  0.45071  0.00000  0.09858
      15     C     3.15082  3.15082  0.00000 -0.30164
      16     H     0.45161  0.45161  0.00000  0.09679
      17     H     0.45323  0.45323  0.00000  0.09355
      18     H     0.44723  0.44723  0.00000  0.10555
      19     H     0.45389  0.45389  0.00000  0.09222
      20     H     0.45496  0.45496  0.00000  0.09007

   Total alpha = 32.00000, Total beta = 32.00000, Total charge = -0.00000

*** Psi4 exiting successfully. Buy a developer a beer!
