                              Psi4 1.0.54 Driver

  ==> Input File <==

--------------------------------------------------------------------------
set {
	reference rhf
	basis cc-pvtz
}

set_num_threads( 4 )
memory 2 gb

molecule MOL {
0 1

H	 -1.364257	 0.067629	 1.626399
C	 -0.776238	 -0.484975	 0.925404
C	 -0.771357	 -1.865075	 0.919553
C	 0.000000	 0.179985	 0.000046
H	 -1.368207	 -2.400834	 1.631064
C	 -0.000002	 -2.552036	 -0.000012
N	 0.000000	 1.644631	 0.000076
C	 0.776239	 -0.484937	 -0.925338
H	 -0.000000	 -3.625035	 -0.000032
C	 0.771355	 -1.865038	 -0.919547
O	 1.050559	 2.194174	 -0.000073
O	 -1.050559	 2.194174	 -0.000074
H	 1.364252	 0.067696	 -1.626316
H	 1.368208	 -2.400767	 -1.631076

	symmetry c1
}
set optking {
	frozen_dihedral = ("
		2 4 7 11
	")
}

ee,wfn = optimize('scf', return_wfn=True)
oeprop( wfn, 'DIPOLE', 'QUADRUPOLE', 'MULLIKEN_CHARGES')
f=open( 'psi4out.xyz', 'w' )
f.write( "14  " )
f.write( str(ee) + "\n" )
f.write( MOL.save_string_xyz() )
f.close()
--------------------------------------------------------------------------

    Molecular point group: c1
  Charge       = 0
  Multiplicity = 1
  Basis Set: CC-PVTZ
  Basis Set:
  @DF-RHF Final Energy:  -434.32486419478369
    Total Energy =                       -434.3248641947835722
    Molecular point group: c1
  Basis Set: CC-PVTZ
  Basis Set:
  Basis Set: CC-PVTZ
  Basis Set:
  @DF-RHF Final Energy:  -434.31858218322384
    Total Energy =                       -434.3185821832238389
  Basis Set: CC-PVTZ
  Basis Set:
  Basis Set: CC-PVTZ
  Basis Set:
  @DF-RHF Final Energy:  -434.32448657268600
    Total Energy =                       -434.3244865726859416
  Basis Set: CC-PVTZ
  Basis Set:
  Basis Set: CC-PVTZ
  Basis Set:
  @DF-RHF Final Energy:  -434.32532893512962
    Total Energy =                       -434.3253289351295052
  Basis Set: CC-PVTZ
  Basis Set:
  Basis Set: CC-PVTZ
  Basis Set:
  @DF-RHF Final Energy:  -434.32534139782086
    Total Energy =                       -434.3253413978206936
  Basis Set: CC-PVTZ
  Basis Set:
  Basis Set: CC-PVTZ
  Basis Set:
  @DF-RHF Final Energy:  -434.32536064548196
    Total Energy =                       -434.3253606454817373
  Basis Set: CC-PVTZ
  Basis Set:
  Charge       = 0
  Multiplicity = 1
  Basis Set: CC-PVTZ
  Basis Set:

    Orbital Energies (a.u.)
    -----------------------

    Doubly Occupied:

       1A    -20.595335     2A    -20.594952     3A    -15.847567
       4A    -11.305211     5A    -11.267962     6A    -11.267712
       7A    -11.262003     8A    -11.259690     9A    -11.259324
      10A     -1.642971    11A     -1.425974    12A     -1.206067
      13A     -1.096772    14A     -1.056429    15A     -0.959471
      16A     -0.872066    17A     -0.830143    18A     -0.786960
      19A     -0.740371    20A     -0.736369    21A     -0.715911
      22A     -0.655375    23A     -0.651242    24A     -0.626217
      25A     -0.559494    26A     -0.547847    27A     -0.533268
      28A     -0.497185    29A     -0.489024    30A     -0.457201
      31A     -0.374152    32A     -0.370292

  @DF-RHF Final Energy:  -434.32536085959725

   => Energetics <=

    Nuclear Repulsion Energy =            417.9296901586432114
    One-Electron Energy =               -1419.5289864800329269
    Two-Electron Energy =                 567.2739354617926892
    DFT Exchange-Correlation Energy =       0.0000000000000000
    Empirical Dispersion Energy =           0.0000000000000000
    PCM Polarization Energy =               0.0000000000000000
    EFP Energy =                            0.0000000000000000
    Total Energy =                       -434.3253608595970263
    Molecular point group: c1
  Basis Set: CC-PVTZ
  Basis Set:

  -Total Gradient:
     Atom            X                  Y                   Z
    ------   -----------------  -----------------  -----------------
       1       -0.000001639767    -0.000001490889    -0.000006580140
       2        0.003748554290    -0.000239940637     0.002948143077
       3       -0.000040427764     0.000032808645    -0.000008587681
       4       -0.005287620874     0.000275330168    -0.002208568898
       5       -0.000001458865     0.000001215559    -0.000001603472
       6        0.000018136511     0.000000596479    -0.000031024484
       7        0.001438738511     0.000228087222    -0.006131419781
       8        0.000001253066     0.000018229520     0.000012247665
       9        0.000002932574     0.000000399097     0.000005700386
      10        0.000006804387    -0.000024868765     0.000016358537
      11        0.000200832379    -0.000267837217     0.005405652647
      12       -0.000079858237    -0.000023473404     0.000006864710
      13       -0.000002856106    -0.000003440221    -0.000001598878
      14       -0.000003390106     0.000004384438    -0.000005583690

  **** Optimization is complete! (in 7 steps) ****
    Final optimized geometry and variables:
    Molecular point group: c1

    Geometry (in Angstrom), charge = 0, multiplicity = 1:

    H           -1.375356480376     0.078329584523     1.610843777924
    C           -0.789971741004    -0.476875351256     0.906918302531
    C           -0.784841205675    -1.857886558014     0.902329888468
    C           -0.025125126721     0.180484284474    -0.028472295242
    H           -1.367066609327    -2.393176297818     1.626302739252
    C           -0.032968970656    -2.545652650908    -0.032089802303
    N            0.025160583998     1.640926290960     0.016769465829
    C            0.758396935756    -0.479424299770    -0.947015790814
    H           -0.039451282978    -3.618404386358    -0.036247492121
    C            0.732786079990    -1.859617121259    -0.957248464230
    O            1.096587775362     2.147340123877    -0.006797817780
    O           -1.006179400164     2.217189995216     0.115733501564
    H            1.367023811738     0.073765917799    -1.632673268894
    H            1.317897797218    -2.396549618352    -1.677672425560

  Mulliken Charges: (a.u.)
   Center  Symbol    Alpha    Beta     Spin     Total
       1     H     0.40708  0.40708  0.00000  0.18584
       2     C     3.08667  3.08667  0.00000 -0.17333
       3     C     3.06879  3.06879  0.00000 -0.13759
       4     C     2.93792  2.93792  0.00000  0.12416
       5     H     0.41718  0.41718  0.00000  0.16564
       6     C     3.07020  3.07020  0.00000 -0.14039
       7     N     3.27720  3.27720  0.00000  0.44560
       8     C     3.08519  3.08519  0.00000 -0.17038
       9     H     0.41754  0.41754  0.00000  0.16492
      10     C     3.06817  3.06817  0.00000 -0.13635
      11     O     4.16786  4.16786  0.00000 -0.33573
      12     O     4.17016  4.17016  0.00000 -0.34033
      13     H     0.40881  0.40881  0.00000  0.18238
      14     H     0.41722  0.41722  0.00000  0.16556

   Total alpha = 32.00000, Total beta = 32.00000, Total charge = -0.00000

*** Psi4 exiting successfully. Buy a developer a beer!
