  ==> Input File <==

--------------------------------------------------------------------------
set {
	reference rhf
	basis 6-31G*
}

set_num_threads( 1 )
memory 2 gb

molecule MOL {
0 1

H	 3.159600	 1.105408	 -0.996384
O	 2.227650	 0.977689	 -0.848353
C	 2.077727	 -0.067559	 -0.035091
C	 0.624473	 -0.343591	 0.253101
O	 3.005637	 -0.677536	 0.386724
C	 -0.265902	 0.883932	 0.072916
H	 0.324016	 -1.163849	 -0.390541
H	 0.565024	 -0.726111	 1.268924
C	 -1.728698	 0.646073	 0.462102
H	 -0.209144	 1.219470	 -0.958188
H	 0.135059	 1.692851	 0.673903
C	 -2.482460	 -0.343073	 -0.431425
H	 -2.245265	 1.602650	 0.432430
H	 -1.779332	 0.308348	 1.496285
C	 -3.960546	 -0.461025	 -0.060175
H	 -2.395034	 -0.026811	 -1.468912
H	 -2.024850	 -1.327147	 -0.371646
H	 -4.472726	 -1.168004	 -0.705284
H	 -4.465146	 0.496508	 -0.151489
H	 -4.081218	 -0.800940	 0.964585

	symmetry c1
}
set optking {
	frozen_dihedral = ("
		16 12 9 6,
		7 4 6 10,
		12 9 6 10,
		1 2 3 5
	")
}

ee = energy('scf')
oeprop('DIPOLE', 'QUADRUPOLE', 'MULLIKEN_CHARGES')
f=open( 'psi4out.xyz', 'w' )
f.write( "20  " )
f.write( str(ee) + "\n" )
f.write( MOL.save_string_xyz() )
f.close()
--------------------------------------------------------------------------

    Molecular point group: c1

    Geometry (in Angstrom), charge = 0, multiplicity = 1:

       Center              X                  Y                   Z               Mass
    ------------   -----------------  -----------------  -----------------  -----------------
           H          3.183244669027     1.020987336595    -0.958010733630     1.007825032070
           O          2.251294669027     0.893268336595    -0.809979733630    15.994914619560
           C          2.101371669027    -0.151979663405     0.003282266370    12.000000000000
           C          0.648117669027    -0.428011663405     0.291474266370    12.000000000000
           O          3.029281669027    -0.761956663405     0.425097266370    15.994914619560
           C         -0.242257330973     0.799511336595     0.111289266370    12.000000000000
           H          0.347660669027    -1.248269663405    -0.352167733630     1.007825032070
           H          0.588668669027    -0.810531663405     1.307297266370     1.007825032070
           C         -1.705053330973     0.561652336595     0.500475266370    12.000000000000
           H         -0.185499330973     1.135049336595    -0.919814733630     1.007825032070
           H          0.158703669027     1.608430336595     0.712276266370     1.007825032070
           C         -2.458815330973    -0.427493663405    -0.393051733630    12.000000000000
           H         -2.221620330973     1.518229336595     0.470803266370     1.007825032070
           H         -1.755687330973     0.223927336595     1.534658266370     1.007825032070
           C         -3.936901330973    -0.545445663405    -0.021801733630    12.000000000000
           H         -2.371389330973    -0.111231663405    -1.430538733630     1.007825032070
           H         -2.001205330973    -1.411567663405    -0.333272733630     1.007825032070
           H         -4.449081330973    -1.252424663405    -0.666910733630     1.007825032070
           H         -4.441501330973     0.412087336595    -0.113115733630     1.007825032070
           H         -4.057573330973    -0.885360663405     1.002958266370     1.007825032070

  Charge       = 0
  Multiplicity = 1
  Basis Set: 6-31G*
  Basis Set:

    Orbital Energies (a.u.)
    -----------------------

    Doubly Occupied:

       1A    -20.613474     2A    -20.548860     3A    -11.381119
       4A    -11.239740     5A    -11.225803     6A    -11.222002
       7A    -11.221402     8A    -11.213322     9A     -1.474736
      10A     -1.364632    11A     -1.098746    12A     -1.042613
      13A     -0.959350    14A     -0.861138    15A     -0.825902
      16A     -0.791540    17A     -0.699453    18A     -0.680628
      19A     -0.663421    20A     -0.631711    21A     -0.604419
      22A     -0.589326    23A     -0.575633    24A     -0.553779
      25A     -0.548033    26A     -0.519880    27A     -0.498201
      28A     -0.481900    29A     -0.476223    30A     -0.469380
      31A     -0.456859    32A     -0.433698

  @DF-RHF Final Energy:  -383.94536385907691

   => Energetics <=

    Nuclear Repulsion Energy =            377.8076090419006050
    One-Electron Energy =               -1271.5721280033294533
    Two-Electron Energy =                 509.8191551023521129
    DFT Exchange-Correlation Energy =       0.0000000000000000
    Empirical Dispersion Energy =           0.0000000000000000
    PCM Polarization Energy =               0.0000000000000000
    EFP Energy =                            0.0000000000000000
    Total Energy =                       -383.9453638590767355

  Mulliken Charges: (a.u.)
   Center  Symbol    Alpha    Beta     Spin     Total
       1     H     0.26756  0.26756  0.00000  0.46488
       2     O     4.34857  4.34857  0.00000 -0.69715
       3     C     2.62131  2.62131  0.00000  0.75738
       4     C     3.21500  3.21500  0.00000 -0.43000
       5     O     4.28188  4.28188  0.00000 -0.56376
       6     C     3.15706  3.15706  0.00000 -0.31413
       7     H     0.39579  0.39579  0.00000  0.20841
       8     H     0.39705  0.39705  0.00000  0.20591
       9     C     3.15508  3.15508  0.00000 -0.31017
      10     H     0.40789  0.40789  0.00000  0.18421
      11     H     0.41361  0.41361  0.00000  0.17279
      12     C     3.15503  3.15503  0.00000 -0.31005
      13     H     0.41843  0.41843  0.00000  0.16314
      14     H     0.42280  0.42280  0.00000  0.15440
      15     C     3.23929  3.23929  0.00000 -0.47859
      16     H     0.42160  0.42160  0.00000  0.15679
      17     H     0.42230  0.42230  0.00000  0.15541
      18     H     0.41807  0.41807  0.00000  0.16386
      19     H     0.42081  0.42081  0.00000  0.15838
      20     H     0.42086  0.42086  0.00000  0.15828

   Total alpha = 32.00000, Total beta = 32.00000, Total charge = -0.00000
