                              Psi4 1.0.54 Driver

  ==> Input File <==

--------------------------------------------------------------------------
set {
	reference rhf
	basis cc-pvtz
}

set_num_threads( 4 )
memory 2 gb

molecule MOL {
0 1

H	 -2.266619	 1.169943	 0.000098
O	 -1.438073	 1.611259	 0.000041
C	 -0.408657	 0.734701	 0.000005
C	 0.466736	 0.799380	 1.068140
C	 -0.226046	 -0.193332	 -1.018583
H	 0.291587	 1.529314	 1.833941
C	 1.539195	 -0.064680	 1.132947
C	 0.859864	 -1.048920	 -0.927504
C	 -1.182239	 -0.262652	 -2.183526
H	 2.214633	 -0.008635	 1.965186
C	 1.742234	 -0.995957	 0.132983
H	 1.014846	 -1.771900	 -1.706766
H	 -1.209560	 0.670816	 -2.738693
H	 -0.886267	 -1.038769	 -2.874528
H	 -2.195165	 -0.486637	 -1.860823
H	 2.574317	 -1.671305	 0.176720

	symmetry c1
}
set optking {
	frozen_dihedral = ("
		4 3 2 1
	")
}

ee,wfn = optimize('scf', return_wfn=True)
oeprop( wfn, 'DIPOLE', 'QUADRUPOLE', 'MULLIKEN_CHARGES')
f=open( 'psi4out.xyz', 'w' )
f.write( "16  " )
f.write( str(ee) + "\n" )
f.write( MOL.save_string_xyz() )
f.close()
--------------------------------------------------------------------------

    Molecular point group: c1
  Charge       = 0
  Multiplicity = 1
  Basis Set: CC-PVTZ
  Basis Set:
  @DF-RHF Final Energy:  -344.71636007478361
    Total Energy =                       -344.7163600747836654
    Molecular point group: c1
  Basis Set: CC-PVTZ
  Basis Set:
  Basis Set: CC-PVTZ
  Basis Set:
  @DF-RHF Final Energy:  -344.71684565530165
    Total Energy =                       -344.7168456553017108
  Basis Set: CC-PVTZ
  Basis Set:
  Basis Set: CC-PVTZ
  Basis Set:
  @DF-RHF Final Energy:  -344.71690613634257
    Total Energy =                       -344.7169061363429137
  Basis Set: CC-PVTZ
  Basis Set:
  Basis Set: CC-PVTZ
  Basis Set:
  @DF-RHF Final Energy:  -344.71691820605076
    Total Energy =                       -344.7169182060511616
  Basis Set: CC-PVTZ
  Basis Set:
  Basis Set: CC-PVTZ
  Basis Set:
  @DF-RHF Final Energy:  -344.71692070683088
    Total Energy =                       -344.7169207068305923
  Basis Set: CC-PVTZ
  Basis Set:
  Charge       = 0
  Multiplicity = 1
  Basis Set: CC-PVTZ
  Basis Set:

    Orbital Energies (a.u.)
    -----------------------

    Doubly Occupied:

       1A    -20.572682     2A    -11.284464     3A    -11.234113
       4A    -11.227125     5A    -11.226914     6A    -11.223924
       7A    -11.221675     8A    -11.221062     9A     -1.399789
      10A     -1.153707    11A     -1.049628    12A     -1.007452
      13A     -0.938763    14A     -0.829544    15A     -0.815272
      16A     -0.731084    17A     -0.675059    18A     -0.653979
      19A     -0.624867    20A     -0.596022    21A     -0.574585
      22A     -0.571645    23A     -0.550146    24A     -0.528305
      25A     -0.503735    26A     -0.488046    27A     -0.469827
      28A     -0.333334    29A     -0.319677

  @DF-RHF Final Energy:  -344.71692100174795

   => Energetics <=

    Nuclear Repulsion Energy =            350.6348360833619040
    One-Electron Energy =               -1162.6506680998813863
    Two-Electron Energy =                 467.2989110147715337
    DFT Exchange-Correlation Energy =       0.0000000000000000
    Empirical Dispersion Energy =           0.0000000000000000
    PCM Polarization Energy =               0.0000000000000000
    EFP Energy =                            0.0000000000000000
    Total Energy =                       -344.7169210017478918
    Molecular point group: c1
  Basis Set: CC-PVTZ
  Basis Set:

  -Total Gradient:
     Atom            X                  Y                   Z
    ------   -----------------  -----------------  -----------------
       1       -0.000017413126     0.000071088834     0.001689927271
       2       -0.000342804763    -0.000429211703    -0.001806353323
       3        0.001085426044     0.001115870981    -0.000499838873
       4       -0.000745480087    -0.000726228710     0.000640615304
       5        0.000012777788    -0.000013971025    -0.000026261444
       6        0.000001678585    -0.000009209459    -0.000008764909
       7        0.000022512011    -0.000037573578    -0.000017604574
       8       -0.000047714432     0.000041069639    -0.000028364193
       9       -0.000007890592    -0.000014347277     0.000024508244
      10        0.000005758102    -0.000000663573     0.000005165259
      11        0.000020873726     0.000009688892     0.000040525659
      12        0.000001128115    -0.000006946447    -0.000004696852
      13        0.000009009693    -0.000008426361     0.000000827357
      14       -0.000003143984     0.000004366325    -0.000005053883
      15        0.000013347868     0.000004555261    -0.000003464391
      16       -0.000008064952    -0.000000061793    -0.000001166655

  **** Optimization is complete! (in 6 steps) ****
    Final optimized geometry and variables:
    Molecular point group: c1

    Geometry (in Angstrom), charge = 0, multiplicity = 1:

    H           -2.356312566402     1.079286195389     0.206704839935
    O           -1.525060154477     1.520138454830     0.203140511536
    C           -0.497152607610     0.621999107224     0.253810894727
    C            0.376595915367     0.690738604413     1.318396159813
    C           -0.321488333279    -0.310514717138    -0.761802743476
    H            0.205240335064     1.427270180391     2.078865835311
    C            1.453533992278    -0.172753978535     1.385854733376
    C            0.758444214591    -1.171706269889    -0.668195327728
    C           -1.279215037596    -0.368497572020    -1.923709951137
    H            2.133942524229    -0.113221067679     2.213603998688
    C            1.644264112138    -1.109985757763     0.391930257104
    H            0.912779655385    -1.899440554518    -1.442952145381
    H           -1.380399215771     0.601820687183    -2.393658137457
    H           -0.936834643612    -1.074556638459    -2.667476043217
    H           -2.271262910365    -0.681233367955    -1.610623703063
    H            2.475790218289    -1.786617778698     0.435793527045

  Mulliken Charges: (a.u.)
   Center  Symbol    Alpha    Beta     Spin     Total
       1     H     0.38667  0.38667  0.00000  0.22666
       2     O     4.18733  4.18733  0.00000 -0.37467
       3     C     2.88291  2.88291  0.00000  0.23418
       4     C     3.10814  3.10814  0.00000 -0.21629
       5     C     2.99967  2.99967  0.00000  0.00066
       6     H     0.41755  0.41755  0.00000  0.16490
       7     C     3.07372  3.07372  0.00000 -0.14744
       8     C     3.09145  3.09145  0.00000 -0.18290
       9     C     3.15318  3.15318  0.00000 -0.30636
      10     H     0.42219  0.42219  0.00000  0.15562
      11     C     3.08173  3.08173  0.00000 -0.16346
      12     H     0.42489  0.42489  0.00000  0.15021
      13     H     0.43974  0.43974  0.00000  0.12053
      14     H     0.44985  0.44985  0.00000  0.10030
      15     H     0.45674  0.45674  0.00000  0.08651
      16     H     0.42423  0.42423  0.00000  0.15155

   Total alpha = 29.00000, Total beta = 29.00000, Total charge =  0.00000

*** Psi4 exiting successfully. Buy a developer a beer!
