  ==> Input File <==

--------------------------------------------------------------------------
set {
	reference rhf
	basis 6-31G*
}

set_num_threads( 1 )
memory 2 gb

molecule MOL {
0 1

H	 -3.420663	 1.227371	 -1.044276
O	 -3.452007	 0.283848	 -0.965577
C	 -3.181085	 -0.079926	 0.364119
C	 -1.765924	 0.277073	 0.805136
H	 -3.327791	 -1.152017	 0.410903
H	 -3.905698	 0.375695	 1.036898
C	 -0.677594	 -0.417312	 -0.014550
H	 -1.637766	 1.358238	 0.744969
H	 -1.659588	 0.017670	 1.857098
C	 0.738335	 -0.034840	 0.421385
H	 -0.814977	 -0.178223	 -1.064632
H	 -0.802730	 -1.495410	 0.071702
C	 1.116710	 1.393744	 0.021302
H	 0.820512	 -0.152917	 1.499218
H	 1.452650	 -0.730492	 -0.017277
C	 2.557788	 1.793927	 0.357907
H	 0.430389	 2.093671	 0.495393
H	 0.969424	 1.505217	 -1.050937
C	 2.865219	 1.863706	 1.854911
H	 2.756840	 2.767281	 -0.083963
H	 3.245043	 1.098482	 -0.119838
H	 2.184666	 2.542910	 2.361536
H	 3.875754	 2.222683	 2.024593
H	 2.780958	 0.893346	 2.332891

	symmetry c1
}
set optking {
	frozen_dihedral = ("
		20 16 13 17,
		17 13 10 7,
		11 7 4 3,
		1 2 3 5,
		7 4 3 2
	")
}

ee = energy('scf')
oeprop('DIPOLE', 'QUADRUPOLE', 'MULLIKEN_CHARGES')
f=open( 'psi4out.xyz', 'w' )
f.write( "24  " )
f.write( str(ee) + "\n" )
f.write( MOL.save_string_xyz() )
f.close()
--------------------------------------------------------------------------

    Molecular point group: c1

    Geometry (in Angstrom), charge = 0, multiplicity = 1:

       Center              X                  Y                   Z               Mass
    ------------   -----------------  -----------------  -----------------  -----------------
           H         -3.141615001773     0.585044104149    -1.387080141293     1.007825032070
           O         -3.172959001773    -0.358478895851    -1.308381141293    15.994914619560
           C         -2.902037001773    -0.722252895851     0.021314858707    12.000000000000
           C         -1.486876001773    -0.365253895851     0.462331858707    12.000000000000
           H         -3.048743001773    -1.794343895851     0.068098858707     1.007825032070
           H         -3.626650001773    -0.266631895851     0.694093858707     1.007825032070
           C         -0.398546001773    -1.059638895851    -0.357354141293    12.000000000000
           H         -1.358718001773     0.715911104149     0.402164858707     1.007825032070
           H         -1.380540001773    -0.624656895851     1.514293858707     1.007825032070
           C          1.017382998227    -0.677166895851     0.078580858707    12.000000000000
           H         -0.535929001773    -0.820549895851    -1.407436141293     1.007825032070
           H         -0.523682001773    -2.137736895851    -0.271102141293     1.007825032070
           C          1.395757998227     0.751417104149    -0.321502141293    12.000000000000
           H          1.099559998227    -0.795243895851     1.156413858707     1.007825032070
           H          1.731697998227    -1.372818895851    -0.360081141293     1.007825032070
           C          2.836835998227     1.151600104149     0.015102858707    12.000000000000
           H          0.709436998227     1.451344104149     0.152588858707     1.007825032070
           H          1.248471998227     0.862890104149    -1.393741141293     1.007825032070
           C          3.144266998227     1.221379104149     1.512106858707    12.000000000000
           H          3.035887998227     2.124954104149    -0.426767141293     1.007825032070
           H          3.524090998227     0.456155104149    -0.462642141293     1.007825032070
           H          2.463713998227     1.900583104149     2.018731858707     1.007825032070
           H          4.154801998227     1.580356104149     1.681788858707     1.007825032070
           H          3.060005998227     0.251019104149     1.990086858707     1.007825032070

  Charge       = 0
  Multiplicity = 1
  Basis Set: 6-31G*
  Basis Set:

    Orbital Energies (a.u.)
    -----------------------

    Doubly Occupied:

       1A    -20.553403     2A    -11.267524     3A    -11.216821
       4A    -11.215120     5A    -11.212992     6A    -11.212172
       7A    -11.210942     8A    -11.208291     9A     -1.359984
      10A     -1.090603    11A     -1.047259    12A     -0.984896
      13A     -0.915951    14A     -0.852762    15A     -0.807291
      16A     -0.770273    17A     -0.679272    18A     -0.645821
      19A     -0.631478    20A     -0.615826    21A     -0.601585
      22A     -0.581239    23A     -0.569116    24A     -0.532789
      25A     -0.525386    26A     -0.509928    27A     -0.492681
      28A     -0.483858    29A     -0.469283    30A     -0.457884
      31A     -0.452228    32A     -0.442186    33A     -0.422053

  @DF-RHF Final Energy:  -349.24544603160564

   => Energetics <=

    Nuclear Repulsion Energy =            390.6443981729121333
    One-Electron Energy =               -1247.7018871579498409
    Two-Electron Energy =                 507.8120429534318987
    DFT Exchange-Correlation Energy =       0.0000000000000000
    Empirical Dispersion Energy =           0.0000000000000000
    PCM Polarization Energy =               0.0000000000000000
    EFP Energy =                            0.0000000000000000
    Total Energy =                       -349.2454460316058089

  Mulliken Charges: (a.u.)
   Center  Symbol    Alpha    Beta     Spin     Total
       1     H     0.28335  0.28335  0.00000  0.43330
       2     O     4.36834  4.36834  0.00000 -0.73667
       3     C     2.99575  2.99575  0.00000  0.00850
       4     C     3.17062  3.17062  0.00000 -0.34123
       5     H     0.41644  0.41644  0.00000  0.16711
       6     H     0.42835  0.42835  0.00000  0.14330
       7     C     3.15406  3.15406  0.00000 -0.30812
       8     H     0.42652  0.42652  0.00000  0.14696
       9     H     0.42251  0.42251  0.00000  0.15498
      10     C     3.15567  3.15567  0.00000 -0.31134
      11     H     0.41213  0.41213  0.00000  0.17575
      12     H     0.42146  0.42146  0.00000  0.15709
      13     C     3.15465  3.15465  0.00000 -0.30929
      14     H     0.42299  0.42299  0.00000  0.15402
      15     H     0.42110  0.42110  0.00000  0.15780
      16     C     3.15152  3.15152  0.00000 -0.30303
      17     H     0.42481  0.42481  0.00000  0.15039
      18     H     0.42186  0.42186  0.00000  0.15629
      19     C     3.24103  3.24103  0.00000 -0.48205
      20     H     0.42159  0.42159  0.00000  0.15683
      21     H     0.42302  0.42302  0.00000  0.15396
      22     H     0.42309  0.42309  0.00000  0.15383
      23     H     0.41931  0.41931  0.00000  0.16138
      24     H     0.41986  0.41986  0.00000  0.16028

   Total alpha = 33.00000, Total beta = 33.00000, Total charge =  0.00000
