                              Psi4 1.0.54 Driver

  ==> Input File <==

--------------------------------------------------------------------------
set {
	reference rhf
	basis cc-pvtz
}

set_num_threads( 4 )
memory 2 gb

molecule MOL {
0 1

H	 -3.920812	 -1.376999	 0.936034
C	 -2.854786	 -1.257220	 0.973688
C	 -2.212487	 -1.174229	 2.196065
C	 -2.127817	 -1.186355	 -0.199545
H	 -2.777403	 -1.229312	 3.106305
C	 -0.842617	 -1.020320	 2.243644
H	 -2.626868	 -1.250815	 -1.146997
C	 -0.756090	 -1.032250	 -0.153552
H	 -0.329306	 -0.954349	 3.181310
C	 -0.109385	 -0.948763	 1.069278
H	 -0.190138	 -0.977020	 -1.060293
C	 1.368504	 -0.782228	 1.174299
O	 1.968286	 -0.725612	 -0.000027
O	 1.952208	 -0.707515	 2.203321
C	 3.373556	 -0.568203	 0.000011
H	 3.695416	 -0.031588	 -0.879663
H	 3.782700	 -1.565294	 -0.000152
H	 3.695405	 -0.031851	 0.879862

	symmetry c1
}
set optking {
	frozen_dihedral = ("
		12 13 15 16
	")
}

ee,wfn = optimize('scf', return_wfn=True)
oeprop( wfn, 'DIPOLE', 'QUADRUPOLE', 'MULLIKEN_CHARGES')
f=open( 'psi4out.xyz', 'w' )
f.write( "18  " )
f.write( str(ee) + "\n" )
f.write( MOL.save_string_xyz() )
f.close()
--------------------------------------------------------------------------

    Molecular point group: c1
  Charge       = 0
  Multiplicity = 1
  Basis Set: CC-PVTZ
  Basis Set:
  @DF-RHF Final Energy:  -457.50775367618246
    Total Energy =                       -457.5077536761822330
    Molecular point group: c1
  Basis Set: CC-PVTZ
  Basis Set:
  Basis Set: CC-PVTZ
  Basis Set:
  @DF-RHF Final Energy:  -457.50858160164904
    Total Energy =                       -457.5085816016490980
  Basis Set: CC-PVTZ
  Basis Set:
  Basis Set: CC-PVTZ
  Basis Set:
  @DF-RHF Final Energy:  -457.50779573999603
    Total Energy =                       -457.5077957399957995
  Basis Set: CC-PVTZ
  Basis Set:
  Basis Set: CC-PVTZ
  Basis Set:
  @DF-RHF Final Energy:  -457.50903325978754
    Total Energy =                       -457.5090332597867473
  Basis Set: CC-PVTZ
  Basis Set:
  Basis Set: CC-PVTZ
  Basis Set:
  @DF-RHF Final Energy:  -457.50907061195863
    Total Energy =                       -457.5090706119590322
  Basis Set: CC-PVTZ
  Basis Set:
  Charge       = 0
  Multiplicity = 1
  Basis Set: CC-PVTZ
  Basis Set:

    Orbital Energies (a.u.)
    -----------------------

    Doubly Occupied:

       1A    -20.600416     2A    -20.534029     3A    -11.372509
       4A    -11.280604     5A    -11.244702     6A    -11.243299
       7A    -11.242416     8A    -11.239788     9A    -11.235835
      10A    -11.235074    11A     -1.475545    12A     -1.368859
      13A     -1.170536    14A     -1.051684    15A     -1.028837
      16A     -0.981206    17A     -0.863006    18A     -0.838225
      19A     -0.780883    20A     -0.744975    21A     -0.688135
      22A     -0.680688    23A     -0.676155    24A     -0.634123
      25A     -0.629870    26A     -0.601094    27A     -0.587640
      28A     -0.568611    29A     -0.528456    30A     -0.520076
      31A     -0.509805    32A     -0.501814    33A     -0.462661
      34A     -0.449395    35A     -0.350063    36A     -0.346032

  @DF-RHF Final Energy:  -457.50907259359258

   => Energetics <=

    Nuclear Repulsion Energy =            493.7989363708730934
    One-Electron Energy =               -1602.0819190373285892
    Two-Electron Energy =                 650.7739100728630319
    DFT Exchange-Correlation Energy =       0.0000000000000000
    Empirical Dispersion Energy =           0.0000000000000000
    PCM Polarization Energy =               0.0000000000000000
    EFP Energy =                            0.0000000000000000
    Total Energy =                       -457.5090725935925775
    Molecular point group: c1
  Basis Set: CC-PVTZ
  Basis Set:

  -Total Gradient:
     Atom            X                  Y                   Z
    ------   -----------------  -----------------  -----------------
       1        0.000018889809     0.000001051699    -0.000001288802
       2        0.000015491774     0.000000481060     0.000009679988
       3        0.000004131879     0.000002582061     0.000003984645
       4        0.000030588556     0.000003757599    -0.000005135222
       5        0.000013067752     0.000001993017    -0.000007450269
       6        0.000006391702    -0.000002851147     0.000002501091
       7        0.000008171382     0.000001144442     0.000002388917
       8        0.000003316496    -0.000011657612    -0.000017744590
       9        0.000000108949     0.000001230852     0.000003536699
      10        0.000066612009     0.000037611663     0.000049623048
      11       -0.000001604056     0.000003263370     0.000001625236
      12       -0.000194570932     0.001435614287    -0.000042424387
      13        0.000150309901    -0.001922576379     0.000296186570
      14       -0.000152506851    -0.000012917542     0.000048555931
      15        0.000227169412    -0.000999042555    -0.001081212972
      16       -0.000063699565     0.001443810169     0.000801860206
      17       -0.000121346094     0.000077926963     0.000004844233
      18       -0.000010522118    -0.000061421948    -0.000069530322

  **** Optimization is complete! (in 6 steps) ****
    Final optimized geometry and variables:
    Molecular point group: c1

    Geometry (in Angstrom), charge = 0, multiplicity = 1:

    H           -4.032217242653    -0.356782950751    -0.061665448436
    C           -2.964401066385    -0.261617430944    -0.007597920097
    C           -2.342724212680    -0.153212165235     1.223490549159
    C           -2.214366809409    -0.247934295241    -1.168243268747
    H           -2.925377877284    -0.164046446856     2.124148507734
    C           -0.970583183961    -0.031187689710     1.292187140041
    H           -2.697140910968    -0.332192722827    -2.122583933809
    C           -0.840215534672    -0.125582285263    -1.101081199254
    H           -0.473270323282     0.053485385299     2.236964185410
    C           -0.214204569580    -0.016582619465     0.130377775445
    H           -0.256760745741    -0.114864235628    -1.998262901702
    C            1.265756234807     0.118129833971     0.259519870496
    O            1.884136292405     0.115063212170    -0.906961795198
    O            1.826878076376     0.215625186189     1.298791807990
    C            3.289717848346     0.274387664196    -0.927609268429
    H            3.528735483391     0.764257579255    -1.858060731302
    H            3.767882005205    -0.693608546248    -0.881348888353
    H            3.618894060788     0.877344231828    -0.098195733934

  Mulliken Charges: (a.u.)
   Center  Symbol    Alpha    Beta     Spin     Total
       1     H     0.42033  0.42033  0.00000  0.15935
       2     C     3.06976  3.06976  0.00000 -0.13951
       3     C     3.07556  3.07556  0.00000 -0.15111
       4     C     3.07493  3.07493  0.00000 -0.14985
       5     H     0.42043  0.42043  0.00000  0.15913
       6     C     3.07587  3.07587  0.00000 -0.15174
       7     H     0.42194  0.42194  0.00000  0.15612
       8     C     3.08206  3.08206  0.00000 -0.16412
       9     H     0.40649  0.40649  0.00000  0.18702
      10     C     3.01650  3.01650  0.00000 -0.03300
      11     H     0.41112  0.41112  0.00000  0.17777
      12     C     2.77749  2.77749  0.00000  0.44501
      13     O     4.14952  4.14952  0.00000 -0.29905
      14     O     4.21140  4.21140  0.00000 -0.42279
      15     C     3.03860  3.03860  0.00000 -0.07721
      16     H     0.44776  0.44776  0.00000  0.10448
      17     H     0.45513  0.45513  0.00000  0.08975
      18     H     0.44512  0.44512  0.00000  0.10977

   Total alpha = 36.00000, Total beta = 36.00000, Total charge =  0.00000

*** Psi4 exiting successfully. Buy a developer a beer!
