  ==> Input File <==

--------------------------------------------------------------------------
set {
	reference rhf
	basis 6-31G*
}

set_num_threads( 4 )
memory 2 gb

molecule MOL {
0 1

H	 1.723202	 1.632482	 -1.968286
C	 0.995937	 1.433708	 -1.189505
C	 1.322923	 0.120767	 -0.479465
H	 1.011660	 2.271686	 -0.499636
H	 0.015082	 1.398287	 -1.653469
C	 0.306652	 -0.176050	 0.621399
H	 2.313063	 0.171746	 -0.038497
H	 1.322156	 -0.700098	 -1.186883
N	 -1.068537	 -0.011044	 0.085269
H	 0.372515	 -1.192590	 0.973735
H	 0.391664	 0.520566	 1.441230
O	 -1.656956	 -0.997225	 -0.235017
O	 -1.478635	 1.104830	 -0.018026

	symmetry c1
}
set optking {
	frozen_dihedral = ("
		7 3 6 9
	")
}

ee = optimize('scf')
oeprop('DIPOLE', 'QUADRUPOLE', 'MULLIKEN_CHARGES')
f=open( 'psi4out.xyz', 'w' )
f.write( "13  " )
f.write( str(ee) + "\n" )
f.write( MOL.save_string_xyz() )
f.close()
--------------------------------------------------------------------------

    Molecular point group: c1
  Charge       = 0
  Multiplicity = 1
  Basis Set: 6-31G*
  Basis Set:
  @DF-RHF Final Energy:  -321.72882020928233
    Total Energy =                       -321.7288202092823894
    Molecular point group: c1
  Basis Set: 6-31G*
  Basis Set:
  Basis Set: 6-31G*
  Basis Set:
  @DF-RHF Final Energy:  -321.73241709785594
    Total Energy =                       -321.7324170978557731
  Basis Set: 6-31G*
  Basis Set:
  Basis Set: 6-31G*
  Basis Set:
  @DF-RHF Final Energy:  -321.72724289250311
    Total Energy =                       -321.7272428925031136
  Basis Set: 6-31G*
  Basis Set:
  Basis Set: 6-31G*
  Basis Set:
  @DF-RHF Final Energy:  -321.73306624235062
    Total Energy =                       -321.7330662423508443
  Basis Set: 6-31G*
  Basis Set:
  @DF-RHF Final Energy:  -321.73411607663940
    Total Energy =                       -321.7341160766394523
  @DF-RHF Final Energy:  -321.73434024700157
    Total Energy =                       -321.7343402470016827
  @DF-RHF Final Energy:  -321.73445569141444
    Total Energy =                       -321.7344556914144391
  @DF-RHF Final Energy:  -321.73456483972473
    Total Energy =                       -321.7345648397248397
  @DF-RHF Final Energy:  -321.73476982134525
    Total Energy =                       -321.7347698213451395
  Basis Set: 6-31G*
  Basis Set:
  @DF-RHF Final Energy:  -321.73487656265092
    Total Energy =                       -321.7348765626510954
  Basis Set: 6-31G*
  Basis Set:
  Basis Set: 6-31G*
  Basis Set:
  @DF-RHF Final Energy:  -321.73489436713101
    Total Energy =                       -321.7348943671311190
  Basis Set: 6-31G*
  Basis Set:
  Basis Set: 6-31G*
  Basis Set:
  @DF-RHF Final Energy:  -321.73489689894512
    Total Energy =                       -321.7348968989451805
  Basis Set: 6-31G*
  Basis Set:
  Charge       = 0
  Multiplicity = 1
  Basis Set: 6-31G*
  Basis Set:

    Orbital Energies (a.u.)
    -----------------------

    Doubly Occupied:

       1A    -20.603897     2A    -20.598779     3A    -15.846991
       4A    -11.299384     5A    -11.255911     6A    -11.231027
       7A     -1.631142     8A     -1.416566     9A     -1.133868
      10A     -1.021448    11A     -0.895103    12A     -0.820846
      13A     -0.755817    14A     -0.737580    15A     -0.725047
      16A     -0.658032    17A     -0.613309    18A     -0.593212
      19A     -0.532750    20A     -0.519043    21A     -0.512814
      22A     -0.483351    23A     -0.473898    24A     -0.449230

  @DF-RHF Final Energy:  -321.73489734549617

   => Energetics <=

    Nuclear Repulsion Energy =            253.9378774856638756
    One-Electron Energy =                -941.7274580414111824
    Two-Electron Energy =                 366.0546832102512553
    DFT Exchange-Correlation Energy =       0.0000000000000000
    Empirical Dispersion Energy =           0.0000000000000000
    PCM Polarization Energy =               0.0000000000000000
    EFP Energy =                            0.0000000000000000
    Total Energy =                       -321.7348973454960515
    Molecular point group: c1
  Basis Set: 6-31G*
  Basis Set:

  -Total Gradient:
     Atom            X                  Y                   Z
    ------   -----------------  -----------------  -----------------
       1       -0.000002077089    -0.000001291603     0.000006458979
       2        0.000011853374    -0.000006061733     0.000026407683
       3        0.000479341060    -0.003046504611    -0.000229125170
       4       -0.000003338661     0.000006566075     0.000005967148
       5       -0.000013266323    -0.000008965397    -0.000016282631
       6       -0.000126530825    -0.002561451476    -0.000703033047
       7       -0.000372250714     0.003226033087     0.000340258395
       8       -0.000008574628     0.000000128987     0.000011056167
       9       -0.000034455715     0.002436709600     0.000583425564
      10        0.000001750455    -0.000008021719    -0.000004790797
      11        0.000001234126    -0.000004761545    -0.000005355941
      12        0.000045982943    -0.000049640508    -0.000029347199
      13        0.000020331998     0.000017260842     0.000014360845

  **** Optimization is complete! (in 13 steps) ****
    Final optimized geometry and variables:
    Molecular point group: c1

    Geometry (in Angstrom), charge = 0, multiplicity = 1:

    H            2.145047514275     1.313868412639    -1.816762184152
    C            1.352739869009     1.153618164952    -1.094269738382
    C            1.609788863538    -0.137689633648    -0.314647715184
    H            1.321879945161     2.015117477506    -0.434734928951
    H            0.416214583927     1.111860305055    -1.638764848250
    C            0.612253320768    -0.381986377939     0.817352991364
    H            2.587571895663    -0.072896374302     0.152725433333
    H            1.613267974384    -0.988746981359    -0.983636017391
    N           -0.785247670058    -0.249804869524     0.327449932831
    H            0.691654491297    -1.384877980031     1.210275609635
    H            0.710348390251     0.341365166232     1.610064195852
    O           -1.147340601617    -1.045483936796    -0.486015308188
    O           -1.444840558473     0.641403215235     0.762926740762

  Mulliken Charges: (a.u.)
   Center  Symbol    Alpha    Beta     Spin     Total
       1     H     0.41027  0.41027  0.00000  0.17946
       2     C     3.25243  3.25243  0.00000 -0.50487
       3     C     3.17001  3.17001  0.00000 -0.34002
       4     H     0.41292  0.41292  0.00000  0.17415
       5     H     0.40383  0.40383  0.00000  0.19234
       6     C     3.09120  3.09120  0.00000 -0.18241
       7     H     0.40808  0.40808  0.00000  0.18383
       8     H     0.39807  0.39807  0.00000  0.20387
       9     N     3.22302  3.22302  0.00000  0.55397
      10     H     0.38612  0.38612  0.00000  0.22777
      11     H     0.38740  0.38740  0.00000  0.22520
      12     O     4.23092  4.23092  0.00000 -0.46183
      13     O     4.22574  4.22574  0.00000 -0.45148

   Total alpha = 24.00000, Total beta = 24.00000, Total charge = -0.00000
