                              Psi4 1.0.54 Driver

  ==> Input File <==

--------------------------------------------------------------------------
set {
	reference rhf
	basis cc-pvtz
}

set_num_threads( 4 )
memory 2 gb

molecule MOL {
0 1

O	 -2.026710	 -0.537360	 -1.326879
C	 -1.703887	 0.273567	 -0.527326
C	 -2.444849	 1.552796	 -0.257136
O	 -0.637375	 0.157174	 0.243149
H	 -1.790916	 2.396485	 -0.436800
H	 -3.310035	 1.611220	 -0.897197
H	 -2.746270	 1.586110	 0.781904
C	 0.162530	 -1.009518	 0.097799
C	 1.587210	 -0.664190	 0.477086
H	 0.096803	 -1.356267	 -0.924704
H	 -0.233803	 -1.785900	 0.736810
C	 2.256770	 0.342732	 -0.454344
H	 2.154716	 -1.590834	 0.479041
H	 1.598751	 -0.289614	 1.496104
C	 3.698146	 0.643205	 -0.057145
H	 2.235038	 -0.042575	 -1.470299
H	 1.683491	 1.262594	 -0.461300
H	 4.150202	 1.356548	 -0.736242
H	 4.305463	 -0.255904	 -0.069842
H	 3.749130	 1.061068	 0.942759

	symmetry c1
}
set optking {
	frozen_dihedral = ("
		2 4 8 10
	")
}

ee,wfn = optimize('scf', return_wfn=True)
oeprop( wfn, 'DIPOLE', 'QUADRUPOLE', 'MULLIKEN_CHARGES')
f=open( 'psi4out.xyz', 'w' )
f.write( "20  " )
f.write( str(ee) + "\n" )
f.write( MOL.save_string_xyz() )
f.close()
--------------------------------------------------------------------------

    Molecular point group: c1
  Charge       = 0
  Multiplicity = 1
  Basis Set: CC-PVTZ
  Basis Set:
  @DF-RHF Final Energy:  -384.08633585019430
    Total Energy =                       -384.0863358501940183
    Molecular point group: c1
  Basis Set: CC-PVTZ
  Basis Set:
  Basis Set: CC-PVTZ
  Basis Set:
  @DF-RHF Final Energy:  -384.08640370555594
    Total Energy =                       -384.0864037055555400
  Basis Set: CC-PVTZ
  Basis Set:
  Basis Set: CC-PVTZ
  Basis Set:
  @DF-RHF Final Energy:  -384.08653823258800
    Total Energy =                       -384.0865382325879409
  Basis Set: CC-PVTZ
  Basis Set:
  Basis Set: CC-PVTZ
  Basis Set:
  @DF-RHF Final Energy:  -384.08640247780693
    Total Energy =                       -384.0864024778068142
  Basis Set: CC-PVTZ
  Basis Set:
  Basis Set: CC-PVTZ
  Basis Set:
  @DF-RHF Final Energy:  -384.08657507461550
    Total Energy =                       -384.0865750746152116
  Basis Set: CC-PVTZ
  Basis Set:
  Basis Set: CC-PVTZ
  Basis Set:
  @DF-RHF Final Energy:  -384.08657629448311
    Total Energy =                       -384.0865762944829385
  Basis Set: CC-PVTZ
  Basis Set:
  Charge       = 0
  Multiplicity = 1
  Basis Set: CC-PVTZ
  Basis Set:

    Orbital Energies (a.u.)
    -----------------------

    Doubly Occupied:

       1A    -20.593806     2A    -20.532272     3A    -11.367220
       4A    -11.279503     5A    -11.231328     6A    -11.223643
       7A    -11.219272     8A    -11.211827     9A     -1.469685
      10A     -1.365414    11A     -1.087140    12A     -1.029485
      13A     -0.982285    14A     -0.883063    15A     -0.810822
      16A     -0.777358    17A     -0.694046    18A     -0.683361
      19A     -0.669881    20A     -0.633361    21A     -0.602870
      22A     -0.595037    23A     -0.573746    24A     -0.550221
      25A     -0.542426    26A     -0.536502    27A     -0.510211
      28A     -0.484253    29A     -0.480876    30A     -0.475206
      31A     -0.448497    32A     -0.440697

  @DF-RHF Final Energy:  -384.08657645936904

   => Energetics <=

    Nuclear Repulsion Energy =            387.1593212103013570
    One-Electron Energy =               -1290.5211642775022938
    Two-Electron Energy =                 519.2752666078317816
    DFT Exchange-Correlation Energy =       0.0000000000000000
    Empirical Dispersion Energy =           0.0000000000000000
    PCM Polarization Energy =               0.0000000000000000
    EFP Energy =                            0.0000000000000000
    Total Energy =                       -384.0865764593690983
    Molecular point group: c1
  Basis Set: CC-PVTZ
  Basis Set:

  -Total Gradient:
     Atom            X                  Y                   Z
    ------   -----------------  -----------------  -----------------
       1        0.000017981304     0.000061785357     0.000054735573
       2        0.000783958538     0.000630662555    -0.001014403271
       3        0.000001005496     0.000017765293    -0.000028511777
       4       -0.001479830277    -0.001218613586     0.001534283062
       5       -0.000024733143    -0.000018744185     0.000022003991
       6        0.000040094161    -0.000005478362     0.000030124206
       7        0.000002227457    -0.000004392291    -0.000035835990
       8        0.001908113296     0.001534741240    -0.000984346908
       9       -0.000001346905    -0.000008675485    -0.000011118838
      10       -0.001248652688    -0.000978948066     0.000436761955
      11        0.000002112579    -0.000006812885    -0.000000249351
      12        0.000008405682    -0.000021120528    -0.000010790144
      13        0.000001991702     0.000005679469    -0.000003213243
      14       -0.000002655506    -0.000005074309    -0.000003888822
      15       -0.000001791965     0.000013195377     0.000013363770
      16       -0.000001255228     0.000003145132     0.000011489247
      17        0.000002038221    -0.000002405768    -0.000003326458
      18       -0.000001577066     0.000002639877     0.000005882249
      19       -0.000010220406     0.000006677422    -0.000004337433
      20        0.000004134741    -0.000006026257    -0.000008621821

  **** Optimization is complete! (in 7 steps) ****
    Final optimized geometry and variables:
    Molecular point group: c1

    Geometry (in Angstrom), charge = 0, multiplicity = 1:

    O           -2.180899435399    -0.693304244699    -1.051656702660
    C           -1.830299720603     0.129279321396    -0.276381174858
    C           -2.565275196825     1.411017072120    -0.001715412365
    O           -0.739114456013     0.032336186986     0.462298986308
    H           -1.922051776844     2.253382121753    -0.221249657348
    H           -3.454565527246     1.454884695220    -0.608950638895
    H           -2.826551540328     1.461848039226     1.047302111320
    C            0.101207992973    -1.105715494142     0.308674315607
    C            1.517013585065    -0.724837944573     0.688355188336
    H            0.033417266442    -1.465068364017    -0.706275814403
    H           -0.272441862379    -1.886089380495     0.959421799418
    C            2.166771208585     0.282709276901    -0.255897972076
    H            2.104241038839    -1.638983834735     0.705023904858
    H            1.517888080451    -0.335641934661     1.701856876090
    C            3.595619187916     0.630634026058     0.147483863514
    H            2.163860877646    -0.120350046480    -1.264929025637
    H            1.569414620130     1.187025254168    -0.282955033913
    H            4.032695569761     1.345540860133    -0.539677293110
    H            4.227944874214    -0.251013475953     0.153744142049
    H            3.626562984400     1.065527468145     1.140880417518

  Mulliken Charges: (a.u.)
   Center  Symbol    Alpha    Beta     Spin     Total
       1     O     4.19748  4.19748  0.00000 -0.39496
       2     C     2.80462  2.80462  0.00000  0.39077
       3     C     3.13954  3.13954  0.00000 -0.27907
       4     O     4.15767  4.15767  0.00000 -0.31534
       5     H     0.44662  0.44662  0.00000  0.10677
       6     H     0.43789  0.43789  0.00000  0.12422
       7     H     0.44554  0.44554  0.00000  0.10891
       8     C     2.99784  2.99784  0.00000  0.00433
       9     C     3.08276  3.08276  0.00000 -0.16552
      10     H     0.44276  0.44276  0.00000  0.11448
      11     H     0.44703  0.44703  0.00000  0.10594
      12     C     3.08752  3.08752  0.00000 -0.17504
      13     H     0.45162  0.45162  0.00000  0.09676
      14     H     0.45208  0.45208  0.00000  0.09584
      15     C     3.15001  3.15001  0.00000 -0.30003
      16     H     0.45324  0.45324  0.00000  0.09353
      17     H     0.44906  0.44906  0.00000  0.10188
      18     H     0.44719  0.44719  0.00000  0.10562
      19     H     0.45522  0.45522  0.00000  0.08956
      20     H     0.45432  0.45432  0.00000  0.09136

   Total alpha = 32.00000, Total beta = 32.00000, Total charge = -0.00000

*** Psi4 exiting successfully. Buy a developer a beer!
