  ==> Input File <==

--------------------------------------------------------------------------
set {
	reference rhf
	basis 6-31G*
}

set_num_threads( 4 )
memory 2 gb

molecule MOL {
0 1

H	 -2.138899	 -0.630570	 -0.647413
O	 -2.035884	 -0.060112	 0.102722
C	 -0.955155	 0.788182	 -0.092531
C	 0.353668	 0.040312	 -0.004810
H	 -0.985057	 1.290372	 -1.054184
H	 -0.974469	 1.533190	 0.688632
F	 0.394464	 -0.937475	 -0.903053
F	 1.368604	 0.853376	 -0.249821
F	 0.546173	 -0.502608	 1.179981

	symmetry c1
}
set optking {
	frozen_dihedral = ("
		1 2 3 5
	")
}

ee = optimize('scf')
oeprop('DIPOLE', 'QUADRUPOLE', 'MULLIKEN_CHARGES')
f=open( 'psi4out.xyz', 'w' )
f.write( "9  " )
f.write( str(ee) + "\n" )
f.write( MOL.save_string_xyz() )
f.close()
--------------------------------------------------------------------------

    Molecular point group: c1
  Charge       = 0
  Multiplicity = 1
  Basis Set: 6-31G*
  Basis Set:
  @DF-RHF Final Energy:  -450.66280690169651
    Total Energy =                       -450.6628069016960580
    Molecular point group: c1
  Basis Set: 6-31G*
  Basis Set:
  Basis Set: 6-31G*
  Basis Set:
  @DF-RHF Final Energy:  -450.66281021294509
    Total Energy =                       -450.6628102129449758
  Basis Set: 6-31G*
  Basis Set:
  Charge       = 0
  Multiplicity = 1
  Basis Set: 6-31G*
  Basis Set:

    Orbital Energies (a.u.)
    -----------------------

    Doubly Occupied:

       1A    -26.342723     2A    -26.342666     3A    -26.338378
       4A    -20.590666     5A    -11.499281     6A    -11.309824
       7A     -1.739345     8A     -1.638179     9A     -1.635957
      10A     -1.402698    11A     -1.047925    12A     -0.923078
      13A     -0.829744    14A     -0.828002    15A     -0.804200
      16A     -0.727959    17A     -0.711023    18A     -0.697361
      19A     -0.664089    20A     -0.657967    21A     -0.641731
      22A     -0.628934    23A     -0.612901    24A     -0.531833
      25A     -0.480410

  @DF-RHF Final Energy:  -450.66281094882493

   => Energetics <=

    Nuclear Repulsion Energy =            277.0585183772406026
    One-Electron Energy =               -1176.1889088544371589
    Two-Electron Energy =                 448.4675795283718003
    DFT Exchange-Correlation Energy =       0.0000000000000000
    Empirical Dispersion Energy =           0.0000000000000000
    PCM Polarization Energy =               0.0000000000000000
    EFP Energy =                            0.0000000000000000
    Total Energy =                       -450.6628109488247560
    Molecular point group: c1
  Basis Set: 6-31G*
  Basis Set:

  -Total Gradient:
     Atom            X                  Y                   Z
    ------   -----------------  -----------------  -----------------
       1       -0.000315673701     0.000374172416    -0.000218819411
       2        0.000472291605    -0.000564435485     0.000233341454
       3       -0.000457221019     0.000529196499     0.000160954542
       4        0.000038007090     0.000135835717     0.000019549211
       5        0.000261095512    -0.000358982398    -0.000196793374
       6        0.000012368294    -0.000003095123     0.000004717295
       7        0.000009439897    -0.000007049088     0.000013947997
       8       -0.000014502075    -0.000046557065    -0.000019198915
       9       -0.000005805592    -0.000059085473     0.000002301200

  **** Optimization is complete! (in 3 steps) ****
    Final optimized geometry and variables:
    Molecular point group: c1

    Geometry (in Angstrom), charge = 0, multiplicity = 1:

    H           -2.135743733380    -0.634366467541    -0.641908228409
    O           -2.034339486411    -0.060057535181     0.105295288150
    C           -0.954450067072     0.788924882973    -0.092576187774
    C            0.353639648544     0.039412309110    -0.005013778037
    H           -0.983128040206     1.286627464078    -1.056401407895
    H           -0.971747153171     1.536134571769     0.686592226586
    F            0.396484741726    -0.934306163322    -0.906971336533
    F            1.369588486787     0.853444374984    -0.244574506224
    F            0.543143975083    -0.507869320242     1.178207271659

  Mulliken Charges: (a.u.)
   Center  Symbol    Alpha    Beta     Spin     Total
       1     H     0.27239  0.27239  0.00000  0.45523
       2     O     4.36128  4.36128  0.00000 -0.72257
       3     C     3.05442  3.05442  0.00000 -0.10884
       4     C     2.46332  2.46332  0.00000  1.07336
       5     H     0.40976  0.40976  0.00000  0.18047
       6     H     0.39552  0.39552  0.00000  0.20897
       7     F     4.68616  4.68616  0.00000 -0.37232
       8     F     4.68205  4.68205  0.00000 -0.36410
       9     F     4.67510  4.67510  0.00000 -0.35020

   Total alpha = 25.00000, Total beta = 25.00000, Total charge = -0.00000
