                              Psi4 1.0.54 Driver

  ==> Input File <==

--------------------------------------------------------------------------
set {
	reference rhf
	basis cc-pvtz
}

set_num_threads( 4 )
memory 2 gb

molecule MOL {
0 1

H	 -2.797029	 0.259566	 -0.358794
O	 -2.041679	 -0.058866	 0.103463
C	 -0.959304	 0.780994	 -0.094939
C	 0.354905	 0.037902	 -0.006215
H	 -0.985899	 1.279578	 -1.057596
H	 -0.969809	 1.529522	 0.682889
F	 0.412060	 -0.931028	 -0.902708
F	 1.359641	 0.856111	 -0.239961
F	 0.545380	 -0.506387	 1.171682

	symmetry c1
}
set optking {
	frozen_dihedral = ("
		1 2 3 5
	")
}

ee,wfn = optimize('scf', return_wfn=True)
oeprop( wfn, 'DIPOLE', 'QUADRUPOLE', 'MULLIKEN_CHARGES')
f=open( 'psi4out.xyz', 'w' )
f.write( "9  " )
f.write( str(ee) + "\n" )
f.write( MOL.save_string_xyz() )
f.close()
--------------------------------------------------------------------------

    Molecular point group: c1
  Charge       = 0
  Multiplicity = 1
  Basis Set: CC-PVTZ
  Basis Set:
  @DF-RHF Final Energy:  -450.84310454189114
    Total Energy =                       -450.8431045418911935
    Molecular point group: c1
  Basis Set: CC-PVTZ
  Basis Set:
  Basis Set: CC-PVTZ
  Basis Set:
  @DF-RHF Final Energy:  -450.84416846669728
    Total Energy =                       -450.8441684666971128
  Basis Set: CC-PVTZ
  Basis Set:
  Basis Set: CC-PVTZ
  Basis Set:
  @DF-RHF Final Energy:  -450.84442212627044
    Total Energy =                       -450.8444221262704446
  Basis Set: CC-PVTZ
  Basis Set:
  Basis Set: CC-PVTZ
  Basis Set:
  @DF-RHF Final Energy:  -450.84443602409391
    Total Energy =                       -450.8444360240941364
  Basis Set: CC-PVTZ
  Basis Set:
  Charge       = 0
  Multiplicity = 1
  Basis Set: CC-PVTZ
  Basis Set:

    Orbital Energies (a.u.)
    -----------------------

    Doubly Occupied:

       1A    -26.333726     2A    -26.330428     3A    -26.330050
       4A    -20.582457     5A    -11.490224     6A    -11.310135
       7A     -1.741919     8A     -1.638205     9A     -1.636653
      10A     -1.406075    11A     -1.050645    12A     -0.923740
      13A     -0.833145    14A     -0.831482    15A     -0.789540
      16A     -0.740697    17A     -0.713682    18A     -0.703845
      19A     -0.671651    20A     -0.657657    21A     -0.642542
      22A     -0.641186    23A     -0.600334    24A     -0.532483
      25A     -0.483196

  @DF-RHF Final Energy:  -450.84443816141840

   => Energetics <=

    Nuclear Repulsion Energy =            277.7312425385313759
    One-Electron Energy =               -1177.9199703712683913
    Two-Electron Energy =                 449.3442896713186201
    DFT Exchange-Correlation Energy =       0.0000000000000000
    Empirical Dispersion Energy =           0.0000000000000000
    PCM Polarization Energy =               0.0000000000000000
    EFP Energy =                            0.0000000000000000
    Total Energy =                       -450.8444381614183385
    Molecular point group: c1
  Basis Set: CC-PVTZ
  Basis Set:

  -Total Gradient:
     Atom            X                  Y                   Z
    ------   -----------------  -----------------  -----------------
       1        0.000052424825    -0.000080771013    -0.000096356376
       2       -0.000035301487     0.000185662800     0.000061820138
       3        0.000130294349    -0.000192853734     0.000002606262
       4        0.000086386907     0.000210182104     0.000046830978
       5       -0.000120567669     0.000027244306     0.000071367384
       6        0.000002011547    -0.000024339467    -0.000034051658
       7       -0.000003473579     0.000034586927     0.000056338468
       8       -0.000058708307    -0.000094715194    -0.000061988636
       9       -0.000053066584    -0.000064996729    -0.000046566558

  **** Optimization is complete! (in 5 steps) ****
    Final optimized geometry and variables:
    Molecular point group: c1

    Geometry (in Angstrom), charge = 0, multiplicity = 1:

    H           -2.735416415396     0.211954535956    -0.500016486657
    O           -2.003419514599    -0.054956627767     0.023224749690
    C           -0.929238366897     0.803411885959    -0.161792313175
    C            0.352062875314     0.020445589309    -0.000459650599
    H           -0.910207063441     1.241202300865    -1.152311226826
    H           -0.917988297496     1.600404632876     0.572821158642
    F            0.469657649875    -0.923556846398    -0.905993955748
    F            1.383813059471     0.832162088543    -0.134324817804
    F            0.439877402771    -0.544696532447     1.180514734959

  Mulliken Charges: (a.u.)
   Center  Symbol    Alpha    Beta     Spin     Total
       1     H     0.38794  0.38794  0.00000  0.22411
       2     O     4.18794  4.18794  0.00000 -0.37588
       3     C     2.98663  2.98663  0.00000  0.02674
       4     C     2.67659  2.67659  0.00000  0.64681
       5     H     0.46440  0.46440  0.00000  0.07121
       6     H     0.46382  0.46382  0.00000  0.07237
       7     F     4.60988  4.60988  0.00000 -0.21976
       8     F     4.61442  4.61442  0.00000 -0.22883
       9     F     4.60838  4.60838  0.00000 -0.21676

   Total alpha = 25.00000, Total beta = 25.00000, Total charge =  0.00000

*** Psi4 exiting successfully. Buy a developer a beer!
