  ==> Input File <==

--------------------------------------------------------------------------
set {
	reference rhf
	basis 6-31G*
}

set_num_threads( 1 )
memory 2 gb

molecule MOL {
0 1

H	 -1.836707	 0.607391	 -3.261791
C	 -2.415396	 0.088815	 -2.487311
C	 -1.762007	 -1.147560	 -1.924220
O	 -3.474740	 0.509170	 -2.151393
C	 -0.328423	 -0.887559	 -1.441011
H	 -2.387652	 -1.532323	 -1.127205
H	 -1.742180	 -1.889997	 -2.721120
C	 -0.252658	 0.041456	 -0.226725
H	 0.129773	 -1.840881	 -1.195006
H	 0.258553	 -0.471802	 -2.258546
C	 1.180775	 0.282413	 0.250794
H	 -0.838976	 -0.384849	 0.584658
H	 -0.716998	 0.996902	 -0.463474
C	 2.148627	 -0.814315	 -0.201312
H	 1.516199	 1.249228	 -0.115937
H	 1.192670	 0.346017	 1.338083
C	 3.580890	 -0.659131	 0.322722
H	 2.166869	 -0.852443	 -1.289387
H	 1.762857	 -1.776509	 0.128956
C	 4.324889	 0.564933	 -0.213704
H	 4.142010	 -1.551473	 0.056605
H	 3.564836	 -0.624694	 1.410140
H	 4.342616	 0.565491	 -1.300421
H	 3.866655	 1.493402	 0.110242
H	 5.353900	 0.572371	 0.132816

	symmetry c1
}
set optking {
	frozen_dihedral = ("
		6 3 5 8,
		6 3 2 4,
		3 5 8 12,
		8 11 14 18,
		20 17 14 18
	")
}

ee = energy('scf')
oeprop('DIPOLE', 'QUADRUPOLE', 'MULLIKEN_CHARGES')
f=open( 'psi4out.xyz', 'w' )
f.write( "25  " )
f.write( str(ee) + "\n" )
f.write( MOL.save_string_xyz() )
f.close()
--------------------------------------------------------------------------

    Molecular point group: c1

    Geometry (in Angstrom), charge = 0, multiplicity = 1:

       Center              X                  Y                   Z               Mass
    ------------   -----------------  -----------------  -----------------  -----------------
           H         -2.172947565130     0.820950567369    -2.360215438258     1.007825032070
           C         -2.751636565130     0.302374567369    -1.585735438258    12.000000000000
           C         -2.098247565130    -0.934000432631    -1.022644438258    12.000000000000
           O         -3.810980565130     0.722729567369    -1.249817438258    15.994914619560
           C         -0.664663565130    -0.673999432631    -0.539435438258    12.000000000000
           H         -2.723892565130    -1.318763432631    -0.225629438258     1.007825032070
           H         -2.078420565130    -1.676437432631    -1.819544438258     1.007825032070
           C         -0.588898565130     0.255015567369     0.674850561742    12.000000000000
           H         -0.206467565130    -1.627321432631    -0.293430438258     1.007825032070
           H         -0.077687565130    -0.258242432631    -1.356970438258     1.007825032070
           C          0.844534434870     0.495972567369     1.152369561742    12.000000000000
           H         -1.175216565130    -0.171289432631     1.486233561742     1.007825032070
           H         -1.053238565130     1.210461567369     0.438101561742     1.007825032070
           C          1.812386434870    -0.600755432631     0.700263561742    12.000000000000
           H          1.179958434870     1.462787567369     0.785638561742     1.007825032070
           H          0.856429434870     0.559576567369     2.239658561742     1.007825032070
           C          3.244649434870    -0.445571432631     1.224297561742    12.000000000000
           H          1.830628434870    -0.638883432631    -0.387811438258     1.007825032070
           H          1.426616434870    -1.562949432631     1.030531561742     1.007825032070
           C          3.988648434870     0.778492567369     0.687871561742    12.000000000000
           H          3.805769434870    -1.337913432631     0.958180561742     1.007825032070
           H          3.228595434870    -0.411134432631     2.311715561742     1.007825032070
           H          4.006375434870     0.779050567369    -0.398845438258     1.007825032070
           H          3.530414434870     1.706961567369     1.011817561742     1.007825032070
           H          5.017659434870     0.785930567369     1.034391561742     1.007825032070

  Charge       = 0
  Multiplicity = 1
  Basis Set: 6-31G*
  Basis Set:

    Orbital Energies (a.u.)
    -----------------------

    Doubly Occupied:

       1A    -20.561243     2A    -11.325384     3A    -11.233709
       4A    -11.233063     5A    -11.223077     6A    -11.219240
       7A    -11.218906     8A    -11.218301     9A    -11.211602
      10A     -1.401281    11A     -1.108049    12A     -1.066939
      13A     -1.013401    14A     -0.937476    15A     -0.887472
      16A     -0.825587    17A     -0.793622    18A     -0.763333
      19A     -0.664477    20A     -0.661626    21A     -0.632675
      22A     -0.627519    23A     -0.602427    24A     -0.591594
      25A     -0.585589    26A     -0.546383    27A     -0.542673
      28A     -0.524272    29A     -0.514483    30A     -0.503312
      31A     -0.487670    32A     -0.475880    33A     -0.454505
      34A     -0.452057    35A     -0.446981    36A     -0.408094

  @DF-RHF Final Energy:  -387.11053598463525

   => Energetics <=

    Nuclear Repulsion Energy =            447.4442473136336957
    One-Electron Energy =               -1411.1815985698858640
    Two-Electron Energy =                 576.6268152716206714
    DFT Exchange-Correlation Energy =       0.0000000000000000
    Empirical Dispersion Energy =           0.0000000000000000
    PCM Polarization Energy =               0.0000000000000000
    EFP Energy =                            0.0000000000000000
    Total Energy =                       -387.1105359846314968

  Mulliken Charges: (a.u.)
   Center  Symbol    Alpha    Beta     Spin     Total
       1     H     0.43295  0.43295  0.00000  0.13411
       2     C     2.83108  2.83108  0.00000  0.33784
       3     C     3.20536  3.20536  0.00000 -0.41071
       4     O     4.23801  4.23801  0.00000 -0.47602
       5     C     3.17467  3.17467  0.00000 -0.34935
       6     H     0.40022  0.40022  0.00000  0.19956
       7     H     0.40724  0.40724  0.00000  0.18552
       8     C     3.15704  3.15704  0.00000 -0.31409
       9     H     0.40842  0.40842  0.00000  0.18315
      10     H     0.41892  0.41892  0.00000  0.16216
      11     C     3.15565  3.15565  0.00000 -0.31130
      12     H     0.41673  0.41673  0.00000  0.16654
      13     H     0.41552  0.41552  0.00000  0.16897
      14     C     3.16223  3.16223  0.00000 -0.32446
      15     H     0.41853  0.41853  0.00000  0.16295
      16     H     0.41861  0.41861  0.00000  0.16277
      17     C     3.14993  3.14993  0.00000 -0.29986
      18     H     0.42132  0.42132  0.00000  0.15735
      19     H     0.42126  0.42126  0.00000  0.15748
      20     C     3.24143  3.24143  0.00000 -0.48286
      21     H     0.42110  0.42110  0.00000  0.15781
      22     H     0.42285  0.42285  0.00000  0.15430
      23     H     0.42292  0.42292  0.00000  0.15416
      24     H     0.41958  0.41958  0.00000  0.16083
      25     H     0.41843  0.41843  0.00000  0.16314

   Total alpha = 36.00000, Total beta = 36.00000, Total charge =  0.00000
