                              Psi4 1.0.54 Driver

  ==> Input File <==

--------------------------------------------------------------------------
set {
	reference rhf
	basis cc-pvtz
}

set_num_threads( 4 )
memory 2 gb

molecule MOL {
0 1

H	 1.651322	 -0.822465	 0.000000
O	 0.729993	 -1.034364	 0.000000
C	 0.037305	 0.100061	 0.000000
C	 -1.164416	 0.024911	 0.893474
O	 0.360035	 1.038691	 -0.641572
H	 -1.808162	 -0.781241	 0.566091
H	 -1.695407	 0.961877	 0.864021
H	 -0.849212	 -0.195698	 1.905129

	symmetry c1
}
set optking {
	frozen_dihedral = ("
		4 3 2 1
	")
}

ee,wfn = optimize('scf', return_wfn=True)
oeprop( wfn, 'DIPOLE', 'QUADRUPOLE', 'MULLIKEN_CHARGES')
f=open( 'psi4out.xyz', 'w' )
f.write( "8  " )
f.write( str(ee) + "\n" )
f.write( MOL.save_string_xyz() )
f.close()
--------------------------------------------------------------------------

    Molecular point group: c1
  Charge       = 0
  Multiplicity = 1
  Basis Set: CC-PVTZ
  Basis Set:
  @DF-RHF Final Energy:  -227.89625387290323
    Total Energy =                       -227.8962538729032019
    Molecular point group: c1
  Basis Set: CC-PVTZ
  Basis Set:
  Basis Set: CC-PVTZ
  Basis Set:
  @DF-RHF Final Energy:  -227.89354696706539
    Total Energy =                       -227.8935469670655038
  Basis Set: CC-PVTZ
  Basis Set:
  Basis Set: CC-PVTZ
  Basis Set:
  @DF-RHF Final Energy:  -227.89676745723662
    Total Energy =                       -227.8967674572365922
  Basis Set: CC-PVTZ
  Basis Set:
  Basis Set: CC-PVTZ
  Basis Set:
  @DF-RHF Final Energy:  -227.89694880296378
    Total Energy =                       -227.8969488029638910
  Basis Set: CC-PVTZ
  Basis Set:
  @DF-RHF Final Energy:  -227.89702560149814
    Total Energy =                       -227.8970256014981146
  Basis Set: CC-PVTZ
  Basis Set:
  @DF-RHF Final Energy:  -227.89704764107066
    Total Energy =                       -227.8970476410706283
  Basis Set: CC-PVTZ
  Basis Set:
  Basis Set: CC-PVTZ
  Basis Set:
  @DF-RHF Final Energy:  -227.89705916144345
    Total Energy =                       -227.8970591614433943
  Basis Set: CC-PVTZ
  Basis Set:
  Basis Set: CC-PVTZ
  Basis Set:
  @DF-RHF Final Energy:  -227.89706481213977
    Total Energy =                       -227.8970648121397744
  Basis Set: CC-PVTZ
  Basis Set:
  Charge       = 0
  Multiplicity = 1
  Basis Set: CC-PVTZ
  Basis Set:

    Orbital Energies (a.u.)
    -----------------------

    Doubly Occupied:

       1A    -20.600116     2A    -20.545645     3A    -11.379007
       4A    -11.239830     5A     -1.474604     6A     -1.372391
       7A     -1.026920     8A     -0.832717     9A     -0.707629
      10A     -0.683240    11A     -0.659878    12A     -0.584153
      13A     -0.580435    14A     -0.546163    15A     -0.489581
      16A     -0.452660

  @DF-RHF Final Energy:  -227.89706524243348

   => Energetics <=

    Nuclear Repulsion Energy =            122.5481725013301713
    One-Electron Energy =                -554.5405369992919304
    Two-Electron Energy =                 204.0952992555282890
    DFT Exchange-Correlation Energy =       0.0000000000000000
    Empirical Dispersion Energy =           0.0000000000000000
    PCM Polarization Energy =               0.0000000000000000
    EFP Energy =                            0.0000000000000000
    Total Energy =                       -227.8970652424334844
    Molecular point group: c1
  Basis Set: CC-PVTZ
  Basis Set:

  -Total Gradient:
     Atom            X                  Y                   Z
    ------   -----------------  -----------------  -----------------
       1       -0.000124232377    -0.000854312454     0.011329757928
       2        0.001757371018     0.001813591511    -0.011715249574
       3       -0.005434476002    -0.002669780640    -0.005005460955
       4        0.003905062983     0.001815302912     0.005610583974
       5       -0.000117360501    -0.000092244981    -0.000235595355
       6        0.000003988590    -0.000003710452     0.000003373291
       7        0.000008934094    -0.000000864030     0.000009119423
       8        0.000000712197    -0.000007981866     0.000003471267

  **** Optimization is complete! (in 9 steps) ****
    Final optimized geometry and variables:
    Molecular point group: c1

    Geometry (in Angstrom), charge = 0, multiplicity = 1:

    H            1.595361719222    -0.917752823375    -0.133472687089
    O            0.665087546560    -1.077514548773    -0.155705762857
    C            0.008633819196     0.088371515576    -0.075079442549
    C           -1.206271475355    -0.002713170002     0.799364269589
    O            0.413679368921     1.076995986603    -0.573501509232
    H           -1.785568711174    -0.885581379788     0.565768382529
    H           -1.806214498720     0.886433107407     0.693467124076
    H           -0.864325902842    -0.094788192392     1.823350407453

  Mulliken Charges: (a.u.)
   Center  Symbol    Alpha    Beta     Spin     Total
       1     H     0.37830  0.37830  0.00000  0.24340
       2     O     4.17048  4.17048  0.00000 -0.34095
       3     C     2.80414  2.80414  0.00000  0.39173
       4     C     3.13628  3.13628  0.00000 -0.27256
       5     O     4.18128  4.18128  0.00000 -0.36257
       6     H     0.44396  0.44396  0.00000  0.11209
       7     H     0.43857  0.43857  0.00000  0.12285
       8     H     0.44699  0.44699  0.00000  0.10601

   Total alpha = 16.00000, Total beta = 16.00000, Total charge = -0.00000

*** Psi4 exiting successfully. Buy a developer a beer!
