                              Psi4 1.0.54 Driver

  ==> Input File <==

--------------------------------------------------------------------------
set {
	reference rhf
	basis cc-pvtz
}

set_num_threads( 4 )
memory 2 gb

molecule MOL {
0 1

H	 -2.362939	 -1.309000	 -0.383250
C	 -1.359344	 -1.272457	 0.020748
C	 -0.684082	 0.000127	 -0.464918
H	 -0.825835	 -2.151141	 -0.318537
H	 -1.416276	 -1.292399	 1.099455
C	 -1.359089	 1.272668	 0.021259
N	 0.742439	 -0.000109	 0.007333
H	 -0.596914	 0.000345	 -1.538146
H	 -2.362696	 1.309620	 -0.382686
H	 -0.825392	 2.151374	 -0.317674
H	 -1.415983	 1.292181	 1.099973
O	 1.046487	 -0.806440	 0.820370
O	 1.474140	 0.805948	 -0.462960

	symmetry c1
}
set optking {
	frozen_dihedral = ("
		12 7 3 8
	")
}

ee,wfn = optimize('scf', return_wfn=True)
oeprop( wfn, 'DIPOLE', 'QUADRUPOLE', 'MULLIKEN_CHARGES')
f=open( 'psi4out.xyz', 'w' )
f.write( "13  " )
f.write( str(ee) + "\n" )
f.write( MOL.save_string_xyz() )
f.close()
--------------------------------------------------------------------------

    Molecular point group: c1
  Charge       = 0
  Multiplicity = 1
  Basis Set: CC-PVTZ
  Basis Set:
  @DF-RHF Final Energy:  -321.86265698937513
    Total Energy =                       -321.8626569893751821
    Molecular point group: c1
  Basis Set: CC-PVTZ
  Basis Set:
  Basis Set: CC-PVTZ
  Basis Set:
  @DF-RHF Final Energy:  -321.86307890981175
    Total Energy =                       -321.8630789098116907
  Basis Set: CC-PVTZ
  Basis Set:
  Basis Set: CC-PVTZ
  Basis Set:
  @DF-RHF Final Energy:  -321.86344586431380
    Total Energy =                       -321.8634458643136895
  Basis Set: CC-PVTZ
  Basis Set:
  Basis Set: CC-PVTZ
  Basis Set:
  @DF-RHF Final Energy:  -321.86039208739680
    Total Energy =                       -321.8603920873970310
  Basis Set: CC-PVTZ
  Basis Set:
  Basis Set: CC-PVTZ
  Basis Set:
  @DF-RHF Final Energy:  -321.86323820899662
    Total Energy =                       -321.8632382089965063
  Basis Set: CC-PVTZ
  Basis Set:
  Basis Set: CC-PVTZ
  Basis Set:
  @DF-RHF Final Energy:  -321.86348243985708
    Total Energy =                       -321.8634824398572505
  Basis Set: CC-PVTZ
  Basis Set:
  Basis Set: CC-PVTZ
  Basis Set:
  @DF-RHF Final Energy:  -321.86348440529986
    Total Energy =                       -321.8634844052999142
  Basis Set: CC-PVTZ
  Basis Set:
  Charge       = 0
  Multiplicity = 1
  Basis Set: CC-PVTZ
  Basis Set:

    Orbital Energies (a.u.)
    -----------------------

    Doubly Occupied:

       1A    -20.591548     2A    -20.585774     3A    -15.833337
       4A    -11.305640     5A    -11.243640     6A    -11.237700
       7A     -1.634241     8A     -1.418312     9A     -1.141213
      10A     -0.970704    11A     -0.957692    12A     -0.815667
      13A     -0.760146    14A     -0.730573    15A     -0.724921
      16A     -0.644948    17A     -0.593116    18A     -0.588052
      19A     -0.570844    20A     -0.526827    21A     -0.521612
      22A     -0.484688    23A     -0.471986    24A     -0.451402

  @DF-RHF Final Energy:  -321.86348879406529

   => Energetics <=

    Nuclear Repulsion Energy =            257.3490287396006693
    One-Electron Energy =                -948.8158714170772328
    Two-Electron Energy =                 369.6033538834112164
    DFT Exchange-Correlation Energy =       0.0000000000000000
    Empirical Dispersion Energy =           0.0000000000000000
    PCM Polarization Energy =               0.0000000000000000
    EFP Energy =                            0.0000000000000000
    Total Energy =                       -321.8634887940652902
    Molecular point group: c1
  Basis Set: CC-PVTZ
  Basis Set:

  -Total Gradient:
     Atom            X                  Y                   Z
    ------   -----------------  -----------------  -----------------
       1        0.000003701768     0.000007134564    -0.000002088416
       2        0.000002522949    -0.000010058818     0.000008407964
       3        0.000029351332     0.001106267496    -0.000393629095
       4        0.000000136843     0.000006390052    -0.000000876172
       5       -0.000002025228    -0.000001323018     0.000003654993
       6        0.000006730892    -0.000014858035    -0.000004406199
       7       -0.000541509366     0.000855538666     0.001207704105
       8        0.000091088605    -0.001195225572     0.000036644251
       9       -0.000003205484     0.000003175116     0.000000876340
      10       -0.000000803751     0.000001801256     0.000004836070
      11        0.000000149052     0.000002051551    -0.000001454071
      12        0.000398124356    -0.000790842873    -0.000835293366
      13        0.000015738033     0.000029949610    -0.000024376406

  **** Optimization is complete! (in 8 steps) ****
    Final optimized geometry and variables:
    Molecular point group: c1

    Geometry (in Angstrom), charge = 0, multiplicity = 1:

    H           -2.281159048255    -1.455795594322    -0.455292060136
    C           -1.308371221798    -1.368181859985     0.012943055319
    C           -0.664150115105    -0.086142739790    -0.474820946853
    H           -0.720216938661    -2.234081009093    -0.254041101493
    H           -1.439505069773    -1.362204393495     1.085339105924
    C           -1.428184824932     1.170445671724    -0.078978907211
    N            0.745984293313     0.049105456766     0.041748777115
    H           -0.527965155629    -0.115065579922    -1.545482890260
    H           -2.428470872730     1.115270525712    -0.487849873765
    H           -0.944739769735     2.056469176938    -0.461028955510
    H           -1.505980924296     1.246566901496     0.998869208403
    O            1.114718894296    -0.686299138181     0.892487677042
    O            1.404050391138     0.903469379073    -0.452728095837

  Mulliken Charges: (a.u.)
   Center  Symbol    Alpha    Beta     Spin     Total
       1     H     0.45023  0.45023  0.00000  0.09955
       2     C     3.14271  3.14271  0.00000 -0.28541
       3     C     3.00709  3.00709  0.00000 -0.01418
       4     H     0.43829  0.43829  0.00000  0.12342
       5     H     0.44160  0.44160  0.00000  0.11679
       6     C     3.14394  3.14394  0.00000 -0.28789
       7     N     3.27475  3.27475  0.00000  0.45050
       8     H     0.42831  0.42831  0.00000  0.14338
       9     H     0.44906  0.44906  0.00000  0.10188
      10     H     0.43247  0.43247  0.00000  0.13505
      11     H     0.44551  0.44551  0.00000  0.10897
      12     O     4.16985  4.16985  0.00000 -0.33971
      13     O     4.17617  4.17617  0.00000 -0.35235

   Total alpha = 24.00000, Total beta = 24.00000, Total charge =  0.00000

*** Psi4 exiting successfully. Buy a developer a beer!
