  ==> Input File <==

--------------------------------------------------------------------------
set {
	reference rhf
	basis 6-31G*
}

set_num_threads( 1 )
memory 2 gb

molecule MOL {
0 1

H	 3.517553	 4.543972	 -2.426016
C	 3.066687	 3.697523	 -1.939163
C	 1.807356	 3.816844	 -1.370836
C	 3.746489	 2.491069	 -1.881978
H	 1.281222	 4.753071	 -1.415888
C	 1.228284	 2.728036	 -0.745012
H	 4.722611	 2.400460	 -2.323091
C	 3.168790	 1.399816	 -1.256034
H	 0.254639	 2.802055	 -0.299805
C	 1.906775	 1.516168	 -0.685470
H	 3.691249	 0.464302	 -1.209440
C	 1.239129	 0.373821	 0.000060
O	 1.970282	 -0.730723	 0.000018
O	 0.159709	 0.436408	 0.499853
C	 3.377318	 -0.566646	 -0.000065
H	 3.695437	 -0.028981	 -0.881264
H	 3.789299	 -1.563704	 0.000236
H	 3.695516	 -0.028316	 0.880770

	symmetry c1
}
set optking {
	frozen_dihedral = ("
		12 13 15 16,
		13 12 10 6
	")
}

ee = energy('scf')
oeprop('DIPOLE', 'QUADRUPOLE', 'MULLIKEN_CHARGES')
f=open( 'psi4out.xyz', 'w' )
f.write( "18  " )
f.write( str(ee) + "\n" )
f.write( MOL.save_string_xyz() )
f.close()
--------------------------------------------------------------------------

    Molecular point group: c1

    Geometry (in Angstrom), charge = 0, multiplicity = 1:

       Center              X                  Y                   Z               Mass
    ------------   -----------------  -----------------  -----------------  -----------------
           H          1.361036170757     3.116439270719    -1.733039523382     1.007825032070
           C          0.910170170757     2.269990270719    -1.246186523382    12.000000000000
           C         -0.349160829243     2.389311270719    -0.677859523382    12.000000000000
           C          1.589972170757     1.063536270719    -1.189001523382    12.000000000000
           H         -0.875294829243     3.325538270719    -0.722911523382     1.007825032070
           C         -0.928232829243     1.300503270719    -0.052035523382    12.000000000000
           H          2.566094170757     0.972927270719    -1.630114523382     1.007825032070
           C          1.012273170757    -0.027716729281    -0.563057523382    12.000000000000
           H         -1.901877829243     1.374522270719     0.393171476618     1.007825032070
           C         -0.249741829243     0.088635270719     0.007506476618    12.000000000000
           H          1.534732170757    -0.963230729281    -0.516463523382     1.007825032070
           C         -0.917387829243    -1.053711729281     0.693036476618    12.000000000000
           O         -0.186234829243    -2.158255729281     0.692994476618    15.994914619560
           O         -1.996807829243    -0.991124729281     1.192829476618    15.994914619560
           C          1.220801170757    -1.994178729281     0.692911476618    12.000000000000
           H          1.538920170757    -1.456513729281    -0.188287523382     1.007825032070
           H          1.632782170757    -2.991236729281     0.693212476618     1.007825032070
           H          1.538999170757    -1.455848729281     1.573746476618     1.007825032070

  Charge       = 0
  Multiplicity = 1
  Basis Set: 6-31G*
  Basis Set:

    Orbital Energies (a.u.)
    -----------------------

    Doubly Occupied:

       1A    -20.607591     2A    -20.546172     3A    -11.380405
       4A    -11.272739     5A    -11.255520     6A    -11.253279
       7A    -11.250311     8A    -11.246707     9A    -11.245978
      10A    -11.239387    11A     -1.471568    12A     -1.371057
      13A     -1.183342    14A     -1.096864    15A     -1.046229
      16A     -1.009276    17A     -0.894492    18A     -0.874603
      19A     -0.808719    20A     -0.750554    21A     -0.727857
      22A     -0.681684    23A     -0.668742    24A     -0.650867
      25A     -0.627895    26A     -0.618055    27A     -0.571371
      28A     -0.561657    29A     -0.552223    30A     -0.523255
      31A     -0.518990    32A     -0.474531    33A     -0.443311
      34A     -0.386939    35A     -0.353375    36A     -0.349712

  @DF-RHF Final Energy:  -457.07044408448274

   => Energetics <=

    Nuclear Repulsion Energy =            508.5527861808774901
    One-Electron Energy =               -1630.2159973983589225
    Two-Electron Energy =                 664.5927671329986879
    DFT Exchange-Correlation Energy =       0.0000000000000000
    Empirical Dispersion Energy =           0.0000000000000000
    PCM Polarization Energy =               0.0000000000000000
    EFP Energy =                            0.0000000000000000
    Total Energy =                       -457.0704440844826877

  Mulliken Charges: (a.u.)
   Center  Symbol    Alpha    Beta     Spin     Total
       1     H     0.39471  0.39471  0.00000  0.21059
       2     C     3.08986  3.08986  0.00000 -0.17971
       3     C     3.10519  3.10519  0.00000 -0.21038
       4     C     3.10640  3.10640  0.00000 -0.21280
       5     H     0.39282  0.39282  0.00000  0.21435
       6     C     3.08374  3.08374  0.00000 -0.16749
       7     H     0.39589  0.39589  0.00000  0.20822
       8     C     3.09868  3.09868  0.00000 -0.19735
       9     H     0.37252  0.37252  0.00000  0.25496
      10     C     3.08544  3.08544  0.00000 -0.17089
      11     H     0.38834  0.38834  0.00000  0.22331
      12     C     2.57373  2.57373  0.00000  0.85254
      13     O     4.30621  4.30621  0.00000 -0.61243
      14     O     4.27443  4.27443  0.00000 -0.54885
      15     C     3.09503  3.09503  0.00000 -0.19005
      16     H     0.42730  0.42730  0.00000  0.14540
      17     H     0.40293  0.40293  0.00000  0.19413
      18     H     0.40677  0.40677  0.00000  0.18646

   Total alpha = 36.00000, Total beta = 36.00000, Total charge =  0.00000
