                              Psi4 1.0.54 Driver

  ==> Input File <==

--------------------------------------------------------------------------
set {
	reference rhf
	basis cc-pvtz
}

set_num_threads( 4 )
memory 2 gb

molecule MOL {
0 1

H	 2.867831	 -1.345477	 1.056259
O	 2.824271	 -1.154299	 0.131461
C	 2.076458	 -0.067370	 -0.038225
C	 0.626018	 -0.337582	 0.258241
O	 2.538288	 0.965419	 -0.381593
C	 -0.267326	 0.883135	 0.076490
H	 0.325620	 -1.161483	 -0.378003
H	 0.574537	 -0.713685	 1.275261
C	 -1.726822	 0.642622	 0.463839
H	 -0.210803	 1.217591	 -0.953497
H	 0.129920	 1.693110	 0.675679
C	 -2.480891	 -0.340606	 -0.429852
H	 -2.243098	 1.597649	 0.438609
H	 -1.776542	 0.301208	 1.495542
C	 -3.955933	 -0.460128	 -0.060472
H	 -2.393755	 -0.020485	 -1.464726
H	 -2.024244	 -1.323637	 -0.374360
H	 -4.467673	 -1.160944	 -0.709827
H	 -4.458917	 0.497287	 -0.144505
H	 -4.076458	 -0.806900	 0.960497

	symmetry c1
}
set optking {
	frozen_dihedral = ("
		1 2 3 5
	")
}

ee,wfn = optimize('scf', return_wfn=True)
oeprop( wfn, 'DIPOLE', 'QUADRUPOLE', 'MULLIKEN_CHARGES')
f=open( 'psi4out.xyz', 'w' )
f.write( "20  " )
f.write( str(ee) + "\n" )
f.write( MOL.save_string_xyz() )
f.close()
--------------------------------------------------------------------------

    Molecular point group: c1
  Charge       = 0
  Multiplicity = 1
  Basis Set: CC-PVTZ
  Basis Set:
  @DF-RHF Final Energy:  -384.07416714430701
    Total Energy =                       -384.0741671443070118
    Molecular point group: c1
  Basis Set: CC-PVTZ
  Basis Set:
  Basis Set: CC-PVTZ
  Basis Set:
  @DF-RHF Final Energy:  -384.07553596819594
    Total Energy =                       -384.0755359681962204
  Basis Set: CC-PVTZ
  Basis Set:
  Basis Set: CC-PVTZ
  Basis Set:
  @DF-RHF Final Energy:  -384.07475042266606
    Total Energy =                       -384.0747504226658293
  Basis Set: CC-PVTZ
  Basis Set:
  Basis Set: CC-PVTZ
  Basis Set:
  @DF-RHF Final Energy:  -384.07574929939602
    Total Energy =                       -384.0757492993958522
  Basis Set: CC-PVTZ
  Basis Set:
  Basis Set: CC-PVTZ
  Basis Set:
  @DF-RHF Final Energy:  -384.07577443524741
    Total Energy =                       -384.0757744352468990
  Basis Set: CC-PVTZ
  Basis Set:
  Charge       = 0
  Multiplicity = 1
  Basis Set: CC-PVTZ
  Basis Set:

    Orbital Energies (a.u.)
    -----------------------

    Doubly Occupied:

       1A    -20.587742     2A    -20.548841     3A    -11.373702
       4A    -11.243260     5A    -11.223834     6A    -11.221434
       7A    -11.220596     8A    -11.212527     9A     -1.463573
      10A     -1.371287    11A     -1.099597    12A     -1.042630
      13A     -0.960315    14A     -0.866492    15A     -0.821010
      16A     -0.787467    17A     -0.717002    18A     -0.676105
      19A     -0.662742    20A     -0.639006    21A     -0.618444
      22A     -0.591670    23A     -0.563083    24A     -0.552398
      25A     -0.539971    26A     -0.509915    27A     -0.505597
      28A     -0.493248    29A     -0.472715    30A     -0.469191
      31A     -0.461255    32A     -0.445532

  @DF-RHF Final Energy:  -384.07577493530454

   => Energetics <=

    Nuclear Repulsion Energy =            375.9080277582667691
    One-Electron Energy =               -1268.0432469103157018
    Two-Electron Energy =                 508.0594442167443958
    DFT Exchange-Correlation Energy =       0.0000000000000000
    Empirical Dispersion Energy =           0.0000000000000000
    PCM Polarization Energy =               0.0000000000000000
    EFP Energy =                            0.0000000000000000
    Total Energy =                       -384.0757749353044801
    Molecular point group: c1
  Basis Set: CC-PVTZ
  Basis Set:

  -Total Gradient:
     Atom            X                  Y                   Z
    ------   -----------------  -----------------  -----------------
       1        0.002917303740     0.002152626750    -0.000014161889
       2       -0.003490709393    -0.002254461153     0.001305984416
       3       -0.000046175590    -0.000807983584    -0.004247475829
       4        0.000065450512    -0.000021832070    -0.000091678042
       5        0.000578039270     0.000916366294     0.002975352558
       6        0.000017544128     0.000018041274     0.000049386589
       7       -0.000036643892    -0.000019738994     0.000024063021
       8        0.000001631436     0.000011645584     0.000014749727
       9       -0.000017858642     0.000027175586    -0.000008716513
      10       -0.000004062798     0.000003907853     0.000009629620
      11        0.000000408372    -0.000025268826    -0.000005237940
      12        0.000006275483     0.000017743842    -0.000019170534
      13       -0.000013576616    -0.000003134436    -0.000010429335
      14       -0.000005529751     0.000017215497     0.000004314020
      15        0.000005647118    -0.000017171526     0.000015710807
      16       -0.000007398993     0.000002962591     0.000001800309
      17        0.000025534968    -0.000012936523    -0.000006994946
      18        0.000002607555    -0.000004988539     0.000003976355
      19        0.000007097178    -0.000002036536    -0.000005303337
      20       -0.000005584088     0.000001866911     0.000004200941

  **** Optimization is complete! (in 6 steps) ****
    Final optimized geometry and variables:
    Molecular point group: c1

    Geometry (in Angstrom), charge = 0, multiplicity = 1:

    H            2.994457703142    -1.381235676879     1.007307777193
    O            2.869724411646    -1.178264149586     0.095501367061
    C            2.080046959540    -0.087504685662    -0.077228079476
    C            0.628131086193    -0.331160817868     0.248697682414
    O            2.524624420278     0.922527952858    -0.476004832576
    C           -0.257509807382     0.896077166110     0.074344950601
    H            0.309105248830    -1.157307546707    -0.376088328563
    H            0.578741194658    -0.701279014168     1.270494048069
    C           -1.714285739458     0.672350412078     0.482030295980
    H           -0.210223958258     1.223457767934    -0.958052035490
    H            0.155551904598     1.706081570634     0.663276235264
    C           -2.489427676348    -0.308007878865    -0.396787586974
    H           -2.221311039522     1.632283486928     0.458320444974
    H           -1.754740060060     0.337246682971     1.516434131222
    C           -3.958199142367    -0.419678437781    -0.000706891619
    H           -2.419034303878     0.010400827075    -1.433348459456
    H           -2.036839170940    -1.293388038556    -0.348657156386
    H           -4.484111797147    -1.121208260579    -0.637756142402
    H           -4.458636039301     0.539403563780    -0.080333070652
    H           -4.062382540400    -0.761320079366     1.023843406284

  Mulliken Charges: (a.u.)
   Center  Symbol    Alpha    Beta     Spin     Total
       1     H     0.39018  0.39018  0.00000  0.21963
       2     O     4.16881  4.16881  0.00000 -0.33761
       3     C     2.79840  2.79840  0.00000  0.40319
       4     C     3.12275  3.12275  0.00000 -0.24550
       5     O     4.16074  4.16074  0.00000 -0.32148
       6     C     3.09470  3.09470  0.00000 -0.18940
       7     H     0.43439  0.43439  0.00000  0.13121
       8     H     0.44967  0.44967  0.00000  0.10066
       9     C     3.09947  3.09947  0.00000 -0.19894
      10     H     0.44295  0.44295  0.00000  0.11409
      11     H     0.43987  0.43987  0.00000  0.12026
      12     C     3.08680  3.08680  0.00000 -0.17360
      13     H     0.44500  0.44500  0.00000  0.11000
      14     H     0.45476  0.45476  0.00000  0.09049
      15     C     3.14945  3.14945  0.00000 -0.29890
      16     H     0.45152  0.45152  0.00000  0.09695
      17     H     0.45471  0.45471  0.00000  0.09059
      18     H     0.44731  0.44731  0.00000  0.10539
      19     H     0.45329  0.45329  0.00000  0.09342
      20     H     0.45523  0.45523  0.00000  0.08954

   Total alpha = 32.00000, Total beta = 32.00000, Total charge = -0.00000

*** Psi4 exiting successfully. Buy a developer a beer!
