                              Psi4 1.0.54 Driver

  ==> Input File <==

--------------------------------------------------------------------------
set {
	reference rhf
	basis cc-pvtz
}

set_num_threads( 4 )
memory 2 gb

molecule MOL {
0 1

H	 2.614283	 2.028610	 0.296620
O	 3.358864	 1.662087	 -0.142800
C	 3.565468	 0.338079	 0.273842
C	 2.533667	 -0.637565	 -0.272227
H	 4.548038	 0.064914	 -0.086598
H	 3.593945	 0.282242	 1.360360
C	 1.114816	 -0.402372	 0.240993
H	 2.544552	 -0.580764	 -1.356576
H	 2.850574	 -1.642962	 -0.005497
C	 0.113298	 -1.420414	 -0.302504
H	 0.796373	 0.598427	 -0.031033
H	 1.113377	 -0.446476	 1.328807
C	 -1.241343	 -1.437175	 0.408076
H	 -0.040289	 -1.238611	 -1.363440
H	 0.552867	 -2.411121	 -0.226681
C	 -2.087659	 -0.179904	 0.216342
H	 -1.805778	 -2.291931	 0.045677
H	 -1.086431	 -1.607668	 1.471132
C	 -3.467735	 -0.284896	 0.860373
H	 -2.203763	 0.014458	 -0.847712
H	 -1.573717	 0.683022	 0.628926
C	 -4.313950	 0.970133	 0.674052
H	 -3.994197	 -1.138951	 0.443236
H	 -3.353575	 -0.487490	 1.921969
H	 -4.473495	 1.181924	 -0.378055
H	 -5.286572	 0.861205	 1.140151
H	 -3.831847	 1.836693	 1.114510

	symmetry c1
}
set optking {
	frozen_dihedral = ("
		14 10 7 4
	")
}

ee,wfn = optimize('scf', return_wfn=True)
oeprop( wfn, 'DIPOLE', 'QUADRUPOLE', 'MULLIKEN_CHARGES')
f=open( 'psi4out.xyz', 'w' )
f.write( "27  " )
f.write( str(ee) + "\n" )
f.write( MOL.save_string_xyz() )
f.close()
--------------------------------------------------------------------------

    Molecular point group: c1
  Charge       = 0
  Multiplicity = 1
  Basis Set: CC-PVTZ
  Basis Set:
  @DF-RHF Final Energy:  -388.42743492463427
    Total Energy =                       -388.4274349246343263
    Molecular point group: c1
  Basis Set: CC-PVTZ
  Basis Set:
  Basis Set: CC-PVTZ
  Basis Set:
  @DF-RHF Final Energy:  -388.42737090874863
    Total Energy =                       -388.4273709087487987
  Basis Set: CC-PVTZ
  Basis Set:
  Basis Set: CC-PVTZ
  Basis Set:
  @DF-RHF Final Energy:  -388.42750397055943
    Total Energy =                       -388.4275039705595418
  Basis Set: CC-PVTZ
  Basis Set:
  Basis Set: CC-PVTZ
  Basis Set:
  @DF-RHF Final Energy:  -388.42750585735445
    Total Energy =                       -388.4275058573549586
  Basis Set: CC-PVTZ
  Basis Set:
  Basis Set: CC-PVTZ
  Basis Set:
  @DF-RHF Final Energy:  -388.42750707491626
    Total Energy =                       -388.4275070749159795
  Basis Set: CC-PVTZ
  Basis Set:
  Charge       = 0
  Multiplicity = 1
  Basis Set: CC-PVTZ
  Basis Set:

    Orbital Energies (a.u.)
    -----------------------

    Doubly Occupied:

       1A    -20.545315     2A    -11.264972     3A    -11.216942
       4A    -11.214664     5A    -11.214005     6A    -11.213306
       7A    -11.213180     8A    -11.212024     9A    -11.207435
      10A     -1.363237    11A     -1.096371    12A     -1.062525
      13A     -1.012657    14A     -0.949202    15A     -0.888817
      16A     -0.820579    17A     -0.802585    18A     -0.777633
      19A     -0.695938    20A     -0.654819    21A     -0.638580
      22A     -0.616078    23A     -0.599979    24A     -0.584900
      25A     -0.580848    26A     -0.552993    27A     -0.542416
      28A     -0.532987    29A     -0.505501    30A     -0.495315
      31A     -0.485976    32A     -0.474633    33A     -0.468543
      34A     -0.461262    35A     -0.453243    36A     -0.442635
      37A     -0.425521

  @DF-RHF Final Energy:  -388.42750720693834

   => Energetics <=

    Nuclear Repulsion Energy =            460.1433924277366714
    One-Electron Energy =               -1438.5665662973187864
    Two-Electron Energy =                 589.9956666626438846
    DFT Exchange-Correlation Energy =       0.0000000000000000
    Empirical Dispersion Energy =           0.0000000000000000
    PCM Polarization Energy =               0.0000000000000000
    EFP Energy =                            0.0000000000000000
    Total Energy =                       -388.4275072069382304
    Molecular point group: c1
  Basis Set: CC-PVTZ
  Basis Set:

  -Total Gradient:
     Atom            X                  Y                   Z
    ------   -----------------  -----------------  -----------------
       1        0.000003001581    -0.000004323906     0.000002350806
       2        0.000008239190    -0.000005798918    -0.000010788427
       3       -0.000013618929     0.000005694431     0.000022157038
       4        0.000218339022    -0.000720068335     0.000956639160
       5       -0.000004947750     0.000005002374    -0.000002340096
       6        0.000004146217    -0.000000247433     0.000002109741
       7       -0.000602606554     0.001254963855    -0.001274000863
       8       -0.000005679015    -0.000001907138     0.000001173491
       9       -0.000001268332    -0.000001390103    -0.000000831224
      10        0.001672892724    -0.001568217201    -0.000032509788
      11        0.000006779138    -0.000002973236    -0.000002072800
      12       -0.000003678369    -0.000002779908    -0.000000715289
      13       -0.000001340506    -0.000000937307     0.000001823623
      14       -0.001282940921     0.001042142210     0.000342521293
      15       -0.000002518410     0.000000509902    -0.000003433907
      16        0.000003046886     0.000005659707     0.000003651049
      17        0.000000152125    -0.000000667133    -0.000000631160
      18        0.000002289658     0.000001150375    -0.000001190492
      19       -0.000003753629    -0.000004894755    -0.000006317206
      20       -0.000001252737    -0.000000412042     0.000009434649
      21       -0.000001968159    -0.000002230314    -0.000003902512
      22        0.000001720946     0.000002635055    -0.000000645510
      23        0.000001414621     0.000000163255     0.000002347478
      24        0.000002199916    -0.000000076190    -0.000005845147
      25       -0.000000246196    -0.000000209286     0.000003790950
      26        0.000003676312     0.000000363340     0.000000017362
      27       -0.000002078832    -0.000001151300    -0.000002792219

  **** Optimization is complete! (in 6 steps) ****
    Final optimized geometry and variables:
    Molecular point group: c1

    Geometry (in Angstrom), charge = 0, multiplicity = 1:

    H            2.569221717946     2.151825332767     0.049200777068
    O            3.327615235578     1.785384292576    -0.365649220800
    C            3.548257020447     0.477667144682     0.092817122508
    C            2.542198731095    -0.530535633973    -0.441802346209
    H            4.541207913542     0.210721457425    -0.242931135881
    H            3.558899626542     0.453711436970     1.180840808273
    C            1.112173054801    -0.309545146827     0.046034780172
    H            2.569283858898    -0.502291557254    -1.527153902836
    H            2.871758205409    -1.522654887011    -0.143558740784
    C            0.130579411340    -1.344146332707    -0.505864359949
    H            0.780937026561     0.685630991303    -0.231178661471
    H            1.100154637117    -0.350662101733     1.133948278193
    C           -1.240440604928    -1.351916683092     0.173250603981
    H           -0.007473935249    -1.171408654390    -1.570293899016
    H            0.568929645521    -2.332693803394    -0.406557905158
    C           -2.058341379932    -0.075625692350    -0.014315354253
    H           -1.810870278177    -2.190151178101    -0.217313427565
    H           -1.112524179749    -1.543225809172     1.236260513156
    C           -3.454914894513    -0.164898624386     0.595274117829
    H           -2.145455620085     0.141009315469    -1.076875727964
    H           -1.536637351312     0.768634495761     0.426606613976
    C           -4.271476636231     1.110360126199     0.414532269348
    H           -3.988201830487    -0.999836341695     0.149191186693
    H           -3.369731128200    -0.390342256433     1.654919673733
    H           -4.402722643867     1.345361788866    -0.636526507782
    H           -5.256436666573     1.012446855981     0.856422188501
    H           -3.782409268837     1.958352131239     0.882531203784

  Mulliken Charges: (a.u.)
   Center  Symbol    Alpha    Beta     Spin     Total
       1     H     0.39241  0.39241  0.00000  0.21517
       2     O     4.20544  4.20544  0.00000 -0.41088
       3     C     2.98021  2.98021  0.00000  0.03958
       4     C     3.08888  3.08888  0.00000 -0.17776
       5     H     0.44838  0.44838  0.00000  0.10324
       6     H     0.46987  0.46987  0.00000  0.06025
       7     C     3.10396  3.10396  0.00000 -0.20791
       8     H     0.45099  0.45099  0.00000  0.09803
       9     H     0.45510  0.45510  0.00000  0.08981
      10     C     3.09806  3.09806  0.00000 -0.19611
      11     H     0.45538  0.45538  0.00000  0.08923
      12     H     0.45384  0.45384  0.00000  0.09233
      13     C     3.09801  3.09801  0.00000 -0.19601
      14     H     0.45134  0.45134  0.00000  0.09732
      15     H     0.44800  0.44800  0.00000  0.10401
      16     C     3.08780  3.08780  0.00000 -0.17561
      17     H     0.44810  0.44810  0.00000  0.10379
      18     H     0.45380  0.45380  0.00000  0.09241
      19     C     3.08422  3.08422  0.00000 -0.16845
      20     H     0.45422  0.45422  0.00000  0.09155
      21     H     0.45509  0.45509  0.00000  0.08983
      22     C     3.14965  3.14965  0.00000 -0.29930
      23     H     0.45363  0.45363  0.00000  0.09274
      24     H     0.45466  0.45466  0.00000  0.09067
      25     H     0.45490  0.45490  0.00000  0.09021
      26     H     0.44826  0.44826  0.00000  0.10348
      27     H     0.45581  0.45581  0.00000  0.08839

   Total alpha = 37.00000, Total beta = 37.00000, Total charge = -0.00000

*** Psi4 exiting successfully. Buy a developer a beer!
