  ==> Input File <==

--------------------------------------------------------------------------
set {
	reference rhf
	basis 6-31G*
}

set_num_threads( 1 )
memory 2 gb

molecule MOL {
0 1

O	 -1.756495	 -0.067919	 2.369589
C	 -0.783024	 0.602316	 2.203537
C	 0.486621	 0.001428	 1.626267
C	 -0.772064	 2.079954	 2.525778
C	 0.379448	 -0.143569	 0.099626
H	 0.620454	 -0.977231	 2.074171
H	 1.348578	 0.611168	 1.881754
C	 1.631333	 -0.777471	 -0.511575
H	 -0.497995	 -0.740319	 -0.122563
H	 0.216836	 0.834404	 -0.350788
C	 2.915987	 -0.544314	 0.291766
H	 1.766672	 -0.399098	 -1.523130
H	 1.471257	 -1.849544	 -0.605828
C	 3.373361	 0.914346	 0.347591
H	 3.708709	 -1.142521	 -0.150311
H	 2.780642	 -0.921148	 1.303579
H	 3.506512	 1.320010	 -0.651625
H	 4.322697	 0.999599	 0.867103
H	 2.660624	 1.545032	 0.868198
H	 -0.089492	 2.268975	 3.350176
H	 -1.765477	 2.406444	 2.800222
H	 -0.415631	 2.655969	 1.676680

	symmetry c1
}
set optking {
	frozen_dihedral = ("
		6 3 2 1,
		6 3 5 8,
		12 8 11 15
	")
}

ee = energy('scf')
oeprop('DIPOLE', 'QUADRUPOLE', 'MULLIKEN_CHARGES')
f=open( 'psi4out.xyz', 'w' )
f.write( "22  " )
f.write( str(ee) + "\n" )
f.write( MOL.save_string_xyz() )
f.close()
--------------------------------------------------------------------------

    Molecular point group: c1

    Geometry (in Angstrom), charge = 0, multiplicity = 1:

       Center              X                  Y                   Z               Mass
    ------------   -----------------  -----------------  -----------------  -----------------
           O         -2.444224284724    -0.341084458098     1.244267260445    15.994914619560
           C         -1.470753284724     0.329150541902     1.078215260445    12.000000000000
           C         -0.201108284724    -0.271737458098     0.500945260445    12.000000000000
           C         -1.459793284724     1.806788541902     1.400456260445    12.000000000000
           C         -0.308281284724    -0.416734458098    -1.025695739555    12.000000000000
           H         -0.067275284724    -1.250396458098     0.948849260445     1.007825032070
           H          0.660848715276     0.338002541902     0.756432260445     1.007825032070
           C          0.943603715276    -1.050636458098    -1.636896739555    12.000000000000
           H         -1.185724284724    -1.013484458098    -1.247884739555     1.007825032070
           H         -0.470893284724     0.561238541902    -1.476109739555     1.007825032070
           C          2.228257715276    -0.817479458098    -0.833555739555    12.000000000000
           H          1.078942715276    -0.672263458098    -2.648451739555     1.007825032070
           H          0.783527715276    -2.122709458098    -1.731149739555     1.007825032070
           C          2.685631715276     0.641180541902    -0.777730739555    12.000000000000
           H          3.020979715276    -1.415686458098    -1.275632739555     1.007825032070
           H          2.092912715276    -1.194313458098     0.178257260445     1.007825032070
           H          2.818782715276     1.046844541902    -1.776946739555     1.007825032070
           H          3.634967715276     0.726433541902    -0.258218739555     1.007825032070
           H          1.972894715276     1.271866541902    -0.257123739555     1.007825032070
           H         -0.777221284724     1.995809541902     2.224854260445     1.007825032070
           H         -2.453206284724     2.133278541902     1.674900260445     1.007825032070
           H         -1.103360284724     2.382803541902     0.551358260445     1.007825032070

  Charge       = 0
  Multiplicity = 1
  Basis Set: 6-31G*
  Basis Set:

    Orbital Energies (a.u.)
    -----------------------

    Doubly Occupied:

       1A    -20.546106     2A    -11.323230     3A    -11.228864
       4A    -11.227924     5A    -11.226738     6A    -11.222566
       7A    -11.221734     8A    -11.216877     9A     -1.392003
      10A     -1.101453    11A     -1.039250    12A     -0.998867
      13A     -0.945089    14A     -0.863963    15A     -0.778570
      16A     -0.735263    17A     -0.668018    18A     -0.655018
      19A     -0.620241    20A     -0.611242    21A     -0.604889
      22A     -0.577982    23A     -0.558926    24A     -0.552495
      25A     -0.539548    26A     -0.521394    27A     -0.507348
      28A     -0.491062    29A     -0.467550    30A     -0.458139
      31A     -0.455444    32A     -0.396281

  @DF-RHF Final Energy:  -348.08732529700256

   => Energetics <=

    Nuclear Repulsion Energy =            385.1386264811287106
    One-Electron Energy =               -1234.9436501949417107
    Two-Electron Energy =                 501.7176984168111744
    DFT Exchange-Correlation Energy =       0.0000000000000000
    Empirical Dispersion Energy =           0.0000000000000000
    PCM Polarization Energy =               0.0000000000000000
    EFP Energy =                            0.0000000000000000
    Total Energy =                       -348.0873252970017688

  Mulliken Charges: (a.u.)
   Center  Symbol    Alpha    Beta     Spin     Total
       1     O     4.26337  4.26337  0.00000 -0.52675
       2     C     2.73311  2.73311  0.00000  0.53378
       3     C     3.21058  3.21058  0.00000 -0.42117
       4     C     3.29039  3.29039  0.00000 -0.58077
       5     C     3.16448  3.16448  0.00000 -0.32897
       6     H     0.40066  0.40066  0.00000  0.19867
       7     H     0.41272  0.41272  0.00000  0.17456
       8     C     3.15377  3.15377  0.00000 -0.30754
       9     H     0.40213  0.40213  0.00000  0.19575
      10     H     0.41975  0.41975  0.00000  0.16051
      11     C     3.16365  3.16365  0.00000 -0.32729
      12     H     0.41902  0.41902  0.00000  0.16196
      13     H     0.41659  0.41659  0.00000  0.16681
      14     C     3.24153  3.24153  0.00000 -0.48306
      15     H     0.41627  0.41627  0.00000  0.16746
      16     H     0.41833  0.41833  0.00000  0.16333
      17     H     0.41957  0.41957  0.00000  0.16086
      18     H     0.41698  0.41698  0.00000  0.16604
      19     H     0.42315  0.42315  0.00000  0.15369
      20     H     0.40720  0.40720  0.00000  0.18559
      21     H     0.39690  0.39690  0.00000  0.20620
      22     H     0.40984  0.40984  0.00000  0.18033

   Total alpha = 32.00000, Total beta = 32.00000, Total charge = -0.00000
