                              Psi4 1.0.54 Driver

  ==> Input File <==

--------------------------------------------------------------------------
set {
	reference rhf
	basis cc-pvtz
}

set_num_threads( 4 )
memory 2 gb

molecule MOL {
0 1

H	 -2.219417	 0.064300	 2.562781
C	 -1.884240	 -0.946872	 2.782035
O	 -0.693083	 -1.239803	 2.131745
H	 -1.710601	 -1.032715	 3.844752
H	 -2.674879	 -1.639884	 2.500062
C	 -0.766439	 -1.178856	 0.745188
C	 0.600300	 -1.410113	 0.151141
H	 -1.448221	 -1.941743	 0.369493
H	 -1.137469	 -0.208772	 0.421609
O	 1.401606	 -0.295166	 0.366636
H	 1.042034	 -2.294998	 0.604221
H	 0.493641	 -1.597327	 -0.917291
C	 2.714315	 -0.441627	 -0.061017
H	 2.765292	 -0.641548	 -1.128869
H	 3.305661	 0.447341	 0.150952
H	 3.143725	 -1.278506	 0.470147

	symmetry c1
}
set optking {
	frozen_dihedral = ("
		7 10 13 14
	")
}

ee,wfn = optimize('scf', return_wfn=True)
oeprop( wfn, 'DIPOLE', 'QUADRUPOLE', 'MULLIKEN_CHARGES')
f=open( 'psi4out.xyz', 'w' )
f.write( "16  " )
f.write( str(ee) + "\n" )
f.write( MOL.save_string_xyz() )
f.close()
--------------------------------------------------------------------------

    Molecular point group: c1
  Charge       = 0
  Multiplicity = 1
  Basis Set: CC-PVTZ
  Basis Set:
  @DF-RHF Final Energy:  -307.09688195408961
    Total Energy =                       -307.0968819540894401
    Molecular point group: c1
  Basis Set: CC-PVTZ
  Basis Set:
  Basis Set: CC-PVTZ
  Basis Set:
  @DF-RHF Final Energy:  -307.09772630715935
    Total Energy =                       -307.0977263071597463
  Basis Set: CC-PVTZ
  Basis Set:
  Basis Set: CC-PVTZ
  Basis Set:
  @DF-RHF Final Energy:  -307.09795411493127
    Total Energy =                       -307.0979541149315537
  Basis Set: CC-PVTZ
  Basis Set:
  Charge       = 0
  Multiplicity = 1
  Basis Set: CC-PVTZ
  Basis Set:

    Orbital Energies (a.u.)
    -----------------------

    Doubly Occupied:

       1A    -20.547861     2A    -20.547847     3A    -11.267589
       4A    -11.266910     5A    -11.261642     6A    -11.261615
       7A     -1.391875     8A     -1.374665     9A     -1.032135
      10A     -0.937224    11A     -0.892224    12A     -0.824464
      13A     -0.686541    14A     -0.682906    15A     -0.659567
      16A     -0.638207    17A     -0.632361    18A     -0.598656
      19A     -0.550667    20A     -0.536178    21A     -0.509928
      22A     -0.479850    23A     -0.464862    24A     -0.423342
      25A     -0.413776

  @DF-RHF Final Energy:  -307.09795505595605

   => Energetics <=

    Nuclear Repulsion Energy =            258.9305379315493383
    One-Electron Energy =                -932.2912042919931537
    Two-Electron Energy =                 366.2627113044877660
    DFT Exchange-Correlation Energy =       0.0000000000000000
    Empirical Dispersion Energy =           0.0000000000000000
    PCM Polarization Energy =               0.0000000000000000
    EFP Energy =                            0.0000000000000000
    Total Energy =                       -307.0979550559560494
    Molecular point group: c1
  Basis Set: CC-PVTZ
  Basis Set:

  -Total Gradient:
     Atom            X                  Y                   Z
    ------   -----------------  -----------------  -----------------
       1        0.000001709552    -0.000001459373    -0.000001823417
       2        0.000003613672     0.000000388737     0.000014758466
       3       -0.000015931278    -0.000020696896     0.000022597886
       4       -0.000005769672    -0.000000481978     0.000003687662
       5        0.000000247708    -0.000000658438    -0.000000215343
       6        0.000075189581     0.000121000215     0.000028399975
       7        0.000018154620    -0.000089407105    -0.000125593094
       8        0.000067343200     0.000002002075    -0.000016293847
       9       -0.000028991989     0.000015722147    -0.000017685642
      10        0.000030057423    -0.000014210248     0.000053419058
      11        0.000026342143     0.000023713990     0.000014215206
      12        0.000000555839    -0.000002726844    -0.000007717186
      13       -0.000072924015    -0.000022649055     0.000016303458
      14       -0.000037323331    -0.000028299642    -0.000006108129
      15       -0.000038187682     0.000017729651     0.000010508697
      16       -0.000024085769     0.000000032763     0.000011546250

  **** Optimization is complete! (in 4 steps) ****
    Final optimized geometry and variables:
    Molecular point group: c1

    Geometry (in Angstrom), charge = 0, multiplicity = 1:

    H           -2.449343836899     0.925028509674     1.574198308722
    C           -2.102979386983    -0.087014252155     1.770801972031
    O           -0.913741959750    -0.355312658090     1.106477096608
    H           -1.920986332006    -0.192451045054     2.830349574415
    H           -2.888930021664    -0.781894411339     1.480423105645
    C           -0.997455123986    -0.267133960347    -0.278024676350
    C            0.366933245873    -0.473993788926    -0.886130106977
    H           -1.674638410102    -1.028771296247    -0.664377046375
    H           -1.379739800660     0.705686426926    -0.579548338201
    O            1.159086201391     0.644010360159    -0.653803037231
    H            0.820171071799    -1.363307767481    -0.453616970112
    H            0.254527667643    -0.640965360619    -1.957338779049
    C            2.469992884281     0.518111324005    -1.092919643392
    H            2.516924177302     0.339508563026    -2.165688476532
    H            2.982747740369     1.442948424728    -0.872385933991
    H            2.983025734536    -0.296141915468    -0.586318452722

  Mulliken Charges: (a.u.)
   Center  Symbol    Alpha    Beta     Spin     Total
       1     H     0.47018  0.47018  0.00000  0.05964
       2     C     3.03198  3.03198  0.00000 -0.06396
       3     O     4.17050  4.17050  0.00000 -0.34099
       4     H     0.44634  0.44634  0.00000  0.10732
       5     H     0.47368  0.47368  0.00000  0.05264
       6     C     2.96050  2.96050  0.00000  0.07900
       7     C     2.96055  2.96055  0.00000  0.07890
       8     H     0.47612  0.47612  0.00000  0.04776
       9     H     0.47071  0.47071  0.00000  0.05858
      10     O     4.17043  4.17043  0.00000 -0.34086
      11     H     0.47073  0.47073  0.00000  0.05855
      12     H     0.47605  0.47605  0.00000  0.04790
      13     C     3.03200  3.03200  0.00000 -0.06400
      14     H     0.47375  0.47375  0.00000  0.05250
      15     H     0.44635  0.44635  0.00000  0.10730
      16     H     0.47014  0.47014  0.00000  0.05972

   Total alpha = 25.00000, Total beta = 25.00000, Total charge = -0.00000

*** Psi4 exiting successfully. Buy a developer a beer!
