  ==> Input File <==

--------------------------------------------------------------------------
set {
	reference rhf
	basis 6-31G*
}

set_num_threads( 4 )
memory 2 gb

molecule MOL {
0 1

H	 0.102908	 -0.061840	 -0.297136
N	 -0.626943	 -0.667432	 -0.000092
C	 -1.979713	 -0.158776	 0.000050
C	 -0.303657	 -1.926657	 0.382011
H	 -2.520245	 -0.492427	 -0.879443
H	 -1.934741	 0.918111	 -0.004428
H	 -2.517790	 -0.485056	 0.883818
C	 1.175299	 -2.248285	 0.303069
O	 -1.114312	 -2.729269	 0.754659
H	 1.746452	 -1.582314	 0.942302
H	 1.328421	 -3.268182	 0.622537
H	 1.539205	 -2.131733	 -0.712965

	symmetry c1
}
set optking {
	frozen_dihedral = ("
		4 2 3 5
	")
}

ee = optimize('scf')
oeprop('DIPOLE', 'QUADRUPOLE', 'MULLIKEN_CHARGES')
f=open( 'psi4out.xyz', 'w' )
f.write( "12  " )
f.write( str(ee) + "\n" )
f.write( MOL.save_string_xyz() )
f.close()
--------------------------------------------------------------------------

    Molecular point group: c1
  Charge       = 0
  Multiplicity = 1
  Basis Set: 6-31G*
  Basis Set:
  @DF-RHF Final Energy:  -247.00534075630199
    Total Energy =                       -247.0053407563017345
    Molecular point group: c1
  Basis Set: 6-31G*
  Basis Set:
  Basis Set: 6-31G*
  Basis Set:
  @DF-RHF Final Energy:  -247.00557337113153
    Total Energy =                       -247.0055733711316179
  Basis Set: 6-31G*
  Basis Set:
  Basis Set: 6-31G*
  Basis Set:
  @DF-RHF Final Energy:  -247.00558935700118
    Total Energy =                       -247.0055893570014973
  Basis Set: 6-31G*
  Basis Set:
  Basis Set: 6-31G*
  Basis Set:
  @DF-RHF Final Energy:  -247.00559913703927
    Total Energy =                       -247.0055991370392121
  Basis Set: 6-31G*
  Basis Set:
  @DF-RHF Final Energy:  -247.00564056654224
    Total Energy =                       -247.0056405665424109
  @DF-RHF Final Energy:  -247.00567052009464
    Total Energy =                       -247.0056705200946681
  @DF-RHF Final Energy:  -247.00568050002201
    Total Energy =                       -247.0056805000218674
  @DF-RHF Final Energy:  -247.00568309506951
    Total Energy =                       -247.0056830950693438
  @DF-RHF Final Energy:  -247.00569384595062
    Total Energy =                       -247.0056938459506455
  @DF-RHF Final Energy:  -247.00570978172576
    Total Energy =                       -247.0057097817258409
  @DF-RHF Final Energy:  -247.00573019701696
    Total Energy =                       -247.0057301970170442
  @DF-RHF Final Energy:  -247.00562087865387
    Total Energy =                       -247.0056208786538718
  @DF-RHF Final Energy:  -247.00576003156732
    Total Energy =                       -247.0057600315672062
  @DF-RHF Final Energy:  -247.00577253867192
    Total Energy =                       -247.0057725386718630
  @DF-RHF Final Energy:  -247.00576995863270
    Total Energy =                       -247.0057699586327544
  Basis Set: 6-31G*
  Basis Set:
  @DF-RHF Final Energy:  -247.00580018812761
    Total Energy =                       -247.0058001881276368
  Basis Set: 6-31G*
  Basis Set:
  Basis Set: 6-31G*
  Basis Set:
  @DF-RHF Final Energy:  -247.00579687273830
    Total Energy =                       -247.0057968727383582
  Basis Set: 6-31G*
  Basis Set:
  Basis Set: 6-31G*
  Basis Set:
  @DF-RHF Final Energy:  -247.00580905179794
    Total Energy =                       -247.0058090517977121
  Basis Set: 6-31G*
  Basis Set:
  Charge       = 0
  Multiplicity = 1
  Basis Set: 6-31G*
  Basis Set:

    Orbital Energies (a.u.)
    -----------------------

    Doubly Occupied:

       1A    -20.514276     2A    -15.582615     3A    -11.342030
       4A    -11.254859     5A    -11.230085     6A     -1.383631
       7A     -1.228470     8A     -1.015136     9A     -0.932506
      10A     -0.787692    11A     -0.689101    12A     -0.648165
      13A     -0.632649    14A     -0.584943    15A     -0.579612
      16A     -0.554834    17A     -0.546479    18A     -0.503227
      19A     -0.412604    20A     -0.385481

  @DF-RHF Final Energy:  -247.00580931316929

   => Energetics <=

    Nuclear Repulsion Energy =            181.4587243837949302
    One-Electron Energy =                -695.3122749959311477
    Two-Electron Energy =                 266.8477412989668665
    DFT Exchange-Correlation Energy =       0.0000000000000000
    Empirical Dispersion Energy =           0.0000000000000000
    PCM Polarization Energy =               0.0000000000000000
    EFP Energy =                            0.0000000000000000
    Total Energy =                       -247.0058093131693795
    Molecular point group: c1
  Basis Set: 6-31G*
  Basis Set:

  -Total Gradient:
     Atom            X                  Y                   Z
    ------   -----------------  -----------------  -----------------
       1        0.000000254525     0.000005882144    -0.000003680072
       2        0.000030841422    -0.000025616047    -0.000220680883
       3       -0.000084857759    -0.000155397661     0.000122365109
       4        0.000016698872     0.000088570493     0.000151575440
       5        0.000055356380     0.000135309372    -0.000040749780
       6        0.000002456024     0.000000671365     0.000002393728
       7        0.000001116269    -0.000001602792    -0.000002770782
       8       -0.000011250691    -0.000009839565    -0.000010312831
       9       -0.000009919482    -0.000032659153    -0.000005039904
      10       -0.000003681572    -0.000000564067     0.000002151662
      11        0.000004226817    -0.000005135060     0.000000571673
      12       -0.000001240806     0.000000380969     0.000004176640

  **** Optimization is complete! (in 19 steps) ****
    Final optimized geometry and variables:
    Molecular point group: c1

    Geometry (in Angstrom), charge = 0, multiplicity = 1:

    H            0.697965382933     1.547274968637    -0.372514277474
    N           -0.029490045826     0.917215292514    -0.127852279374
    C           -1.398173762604     1.373661392189    -0.227788571828
    C            0.276921128887    -0.384488322360     0.076294451001
    H           -1.818103724931     1.190166538754    -1.211752507715
    H           -1.431248381804     2.436678566683    -0.025929498716
    H           -2.001351665457     0.857034565965     0.503066628382
    C            1.752396393663    -0.724166973406     0.038665705196
    O           -0.559956215665    -1.225133729551     0.262574908606
    H            2.390186975381     0.128240524415     0.242290920406
    H            1.947623716628    -1.503069685293     0.762539721021
    H            1.996663591739    -1.112056869449    -0.945102363604

  Mulliken Charges: (a.u.)
   Center  Symbol    Alpha    Beta     Spin     Total
       1     H     0.30997  0.30997  0.00000  0.38006
       2     N     3.89282  3.89282  0.00000 -0.78564
       3     C     3.13727  3.13727  0.00000 -0.27454
       4     C     2.62970  2.62970  0.00000  0.74060
       5     H     0.41374  0.41374  0.00000  0.17251
       6     H     0.41717  0.41717  0.00000  0.16567
       7     H     0.39443  0.39443  0.00000  0.21115
       8     C     3.29104  3.29104  0.00000 -0.58208
       9     O     4.30325  4.30325  0.00000 -0.60650
      10     H     0.41657  0.41657  0.00000  0.16686
      11     H     0.39401  0.39401  0.00000  0.21198
      12     H     0.40003  0.40003  0.00000  0.19993

   Total alpha = 20.00000, Total beta = 20.00000, Total charge =  0.00000
