  ==> Input File <==

--------------------------------------------------------------------------
set {
	reference rhf
	basis 6-31G*
}

set_num_threads( 4 )
memory 2 gb

molecule MOL {
0 1

O	 3.225979	 0.970355	 -0.599647
C	 2.701189	 0.057885	 -0.047330
C	 1.245376	 -0.013843	 0.345420
O	 3.347903	 -1.046386	 0.304773
C	 0.455112	 1.231400	 -0.050772
H	 0.838542	 -0.913825	 -0.103701
H	 1.208210	 -0.175333	 1.419774
C	 -0.998893	 1.219485	 0.433193
H	 0.482531	 1.345121	 -1.130325
H	 0.957290	 2.103070	 0.354729
C	 -1.883438	 0.145884	 -0.207175
H	 -1.431207	 2.195402	 0.224832
H	 -1.019646	 1.105716	 1.516076
C	 -3.347647	 0.245583	 0.225435
H	 -1.822183	 0.231698	 -1.291012
H	 -1.510341	 -0.844814	 0.042401
C	 -4.239992	 -0.825570	 -0.404234
H	 -3.732888	 1.230466	 -0.033079
H	 -3.408585	 0.170602	 1.310038
C	 -5.238970	 -1.427242	 0.583558
H	 -4.779325	 -0.395558	 -1.245574
H	 -3.617157	 -1.617789	 -0.814411
H	 -5.856636	 -2.182798	 0.107920
H	 -5.900156	 -0.664847	 0.985780
H	 -4.728958	 -1.895920	 1.420519
C	 4.728119	 -1.109107	 -0.004993
H	 4.882018	 -1.033965	 -1.071845
H	 5.068212	 -2.067527	 0.355250
H	 5.265056	 -0.311663	 0.488280

	symmetry c1
}
set optking {
	frozen_dihedral = ("
		21 17 14 11
	")
}

ee = optimize('scf')
oeprop('DIPOLE', 'QUADRUPOLE', 'MULLIKEN_CHARGES')
f=open( 'psi4out.xyz', 'w' )
f.write( "29  " )
f.write( str(ee) + "\n" )
f.write( MOL.save_string_xyz() )
f.close()
--------------------------------------------------------------------------

    Molecular point group: c1
  Charge       = 0
  Multiplicity = 1
  Basis Set: 6-31G*
  Basis Set:
  @DF-RHF Final Energy:  -501.03946348883221
    Total Energy =                       -501.0394634888332348
    Molecular point group: c1
  Basis Set: 6-31G*
  Basis Set:
  Basis Set: 6-31G*
  Basis Set:
  @DF-RHF Final Energy:  -501.03970073711741
    Total Energy =                       -501.0397007371171867
  Basis Set: 6-31G*
  Basis Set:
  Basis Set: 6-31G*
  Basis Set:
  @DF-RHF Final Energy:  -501.03978140788809
    Total Energy =                       -501.0397814078875172
  Basis Set: 6-31G*
  Basis Set:
  Basis Set: 6-31G*
  Basis Set:
  @DF-RHF Final Energy:  -501.03976799572536
    Total Energy =                       -501.0397679957253558
  Basis Set: 6-31G*
  Basis Set:
  Basis Set: 6-31G*
  Basis Set:
  @DF-RHF Final Energy:  -501.03978128207666
    Total Energy =                       -501.0397812820768877
  Basis Set: 6-31G*
  Basis Set:
  Charge       = 0
  Multiplicity = 1
  Basis Set: 6-31G*
  Basis Set:

    Orbital Energies (a.u.)
    -----------------------

    Doubly Occupied:

       1A    -20.603385     2A    -20.545205     3A    -11.372020
       4A    -11.280674     5A    -11.234768     6A    -11.219114
       7A    -11.217500     8A    -11.216240     9A    -11.215638
      10A    -11.214233    11A    -11.209177    12A     -1.469080
      13A     -1.362522    14A     -1.097536    15A     -1.065424
      16A     -1.019151    17A     -0.977167    18A     -0.928190
      19A     -0.861637    20A     -0.800054    21A     -0.790262
      22A     -0.763841    23A     -0.700785    24A     -0.682368
      25A     -0.672043    26A     -0.648241    27A     -0.625510
      28A     -0.608058    29A     -0.595393    30A     -0.583280
      31A     -0.564263    32A     -0.551140    33A     -0.532035
      34A     -0.530452    35A     -0.516548    36A     -0.506422
      37A     -0.501033    38A     -0.476463    39A     -0.471067
      40A     -0.460463    41A     -0.457162    42A     -0.455756
      43A     -0.440420    44A     -0.434844

  @DF-RHF Final Energy:  -501.03978199555024

   => Energetics <=

    Nuclear Repulsion Energy =            611.1572724573890127
    One-Electron Energy =               -1893.4409796346894836
    Two-Electron Energy =                 781.2439251817498871
    DFT Exchange-Correlation Energy =       0.0000000000000000
    Empirical Dispersion Energy =           0.0000000000000000
    PCM Polarization Energy =               0.0000000000000000
    EFP Energy =                            0.0000000000000000
    Total Energy =                       -501.0397819955506975
    Molecular point group: c1
  Basis Set: 6-31G*
  Basis Set:

  -Total Gradient:
     Atom            X                  Y                   Z
    ------   -----------------  -----------------  -----------------
       1        0.000067069573     0.000119394628     0.000269483529
       2       -0.000178004781    -0.000356370386    -0.000747309127
       3        0.000026765655     0.000103541073     0.000207990374
       4        0.000053261307     0.000103254776     0.000207156075
       5        0.000040064020     0.000052292180     0.000061977198
       6        0.000021101511    -0.000021049303    -0.000012402017
       7       -0.000050583341     0.000005657182     0.000008712056
       8       -0.000039068763     0.000068175218    -0.000061138045
       9        0.000013094697     0.000022017653     0.000008774995
      10        0.000029450627    -0.000018096425     0.000008484755
      11        0.000479939811    -0.001700530122     0.002036209555
      12       -0.000013166468     0.000001559455    -0.000007278815
      13       -0.000010613274     0.000023301387    -0.000019863268
      14       -0.001326661589     0.002312473505    -0.002269642290
      15        0.000003945338     0.000026203979     0.000051897910
      16       -0.000010645091    -0.000047242922    -0.000007358553
      17        0.003602587265    -0.001637687144    -0.002000278573
      18       -0.000017242007    -0.000031178992    -0.000109751080
      19       -0.000022600186    -0.000017725409     0.000025745998
      20        0.000011886671    -0.000009238395     0.000037917964
      21       -0.002713821410     0.000934101845     0.002302465051
      22        0.000033510815     0.000067430515     0.000042579425
      23       -0.000026293216    -0.000021016295    -0.000006095395
      24        0.000027813277     0.000015153943    -0.000005694585
      25       -0.000006440757     0.000000932830    -0.000034084740
      26        0.000002902408     0.000002060608     0.000005909989
      27       -0.000008391653     0.000001910233     0.000002078301
      28        0.000001621547     0.000002018772     0.000004134809
      29        0.000008518007    -0.000001344389    -0.000000621495

  **** Optimization is complete! (in 6 steps) ****
    Final optimized geometry and variables:
    Molecular point group: c1

    Geometry (in Angstrom), charge = 0, multiplicity = 1:

    O            3.185185152261     1.036897834568    -0.659957504480
    C            2.660116692768     0.127515489367    -0.102842430122
    C            1.204736511564     0.059173694841     0.292149769235
    O            3.307375193864    -0.973399503265     0.258653605898
    C            0.414362911622     1.301704343657    -0.112282064897
    H            0.797189667055    -0.844041022887    -0.149782408109
    H            1.168779160266    -0.094307617721     1.367719563881
    C           -1.039889639549     1.292501038928     0.371361428076
    H            0.442010179425     1.408356577086    -1.192533484950
    H            0.916408737687     2.176025876146     0.287603934731
    C           -1.921804429977     0.209358421281    -0.255380669688
    H           -1.474330076184     2.264817743049     0.150927100734
    H           -1.060725418716     1.192247629742     1.455692758535
    C           -3.383594685865     0.298647748128     0.189872043808
    H           -1.866931338026     0.286904889455    -1.340557015336
    H           -1.544572678451    -0.778270193001    -0.000741033414
    C           -4.291410522984    -0.766257716045    -0.456701480308
    H           -3.771646474767     1.291800813074    -0.021641184467
    H           -3.415455655926     0.190210393355     1.272480677653
    C           -5.308919926959    -1.357952262954     0.520933432309
    H           -4.839455391717    -0.323528147497    -1.284008274711
    H           -3.688309352349    -1.569186180548    -0.871675775594
    H           -5.957913879373    -2.076066566830     0.028769021587
    H           -5.937954079599    -0.581331610369     0.947249337777
    H           -4.812391963298    -1.866909496621     1.342329791234
    C            4.687941986197    -1.037481173547    -0.049296450434
    H            4.842783750208    -0.970784789981    -1.116576857618
    H            5.028447143317    -1.992697563899     0.318959530344
    H            5.223764273904    -0.235668049468     0.438070286248

  Mulliken Charges: (a.u.)
   Center  Symbol    Alpha    Beta     Spin     Total
       1     O     4.28595  4.28595  0.00000 -0.57190
       2     C     2.60482  2.60482  0.00000  0.79036
       3     C     3.20975  3.20975  0.00000 -0.41950
       4     O     4.30747  4.30747  0.00000 -0.61494
       5     C     3.15365  3.15365  0.00000 -0.30729
       6     H     0.39893  0.39893  0.00000  0.20214
       7     H     0.40120  0.40120  0.00000  0.19761
       8     C     3.15721  3.15721  0.00000 -0.31441
       9     H     0.41306  0.41306  0.00000  0.17388
      10     H     0.40876  0.40876  0.00000  0.18248
      11     C     3.15673  3.15673  0.00000 -0.31346
      12     H     0.41819  0.41819  0.00000  0.16362
      13     H     0.42390  0.42390  0.00000  0.15221
      14     C     3.15338  3.15338  0.00000 -0.30677
      15     H     0.42235  0.42235  0.00000  0.15531
      16     H     0.42329  0.42329  0.00000  0.15341
      17     C     3.15379  3.15379  0.00000 -0.30758
      18     H     0.42060  0.42060  0.00000  0.15880
      19     H     0.42233  0.42233  0.00000  0.15535
      20     C     3.23997  3.23997  0.00000 -0.47993
      21     H     0.42043  0.42043  0.00000  0.15914
      22     H     0.42093  0.42093  0.00000  0.15815
      23     H     0.42041  0.42041  0.00000  0.15918
      24     H     0.42148  0.42148  0.00000  0.15703
      25     H     0.42231  0.42231  0.00000  0.15538
      26     C     3.09241  3.09241  0.00000 -0.18481
      27     H     0.40910  0.40910  0.00000  0.18180
      28     H     0.40852  0.40852  0.00000  0.18296
      29     H     0.40910  0.40910  0.00000  0.18180

   Total alpha = 44.00000, Total beta = 44.00000, Total charge = -0.00000
