                              Psi4 1.0.54 Driver

  ==> Input File <==

--------------------------------------------------------------------------
set {
	reference rhf
	basis cc-pvtz
}

set_num_threads( 4 )
memory 2 gb

molecule MOL {
0 1

H	 -2.448143	 -1.567622	 -2.155921
O	 -2.061401	 -1.539294	 -1.293746
C	 -0.988245	 -0.754945	 -1.339215
C	 -0.310616	 -0.658853	 0.000791
O	 -0.641992	 -0.219852	 -2.335083
C	 0.926581	 0.227233	 0.000178
H	 -0.071157	 -1.670966	 0.310654
H	 -1.051847	 -0.301433	 0.708283
C	 2.220156	 -0.582071	 -0.000088
H	 0.899945	 0.878221	 -0.866390
H	 0.900542	 0.878581	 0.866486
C	 3.466689	 0.296012	 -0.000457
H	 2.239073	 -1.234095	 -0.869382
H	 2.239505	 -1.233985	 0.869270
H	 3.493549	 0.935857	 -0.875887
H	 4.368821	 -0.304526	 -0.001199
H	 3.494559	 0.935166	 0.875458

	symmetry c1
}
set optking {
	frozen_dihedral = ("
		7 4 6 10
	")
}

ee,wfn = optimize('scf', return_wfn=True)
oeprop( wfn, 'DIPOLE', 'QUADRUPOLE', 'MULLIKEN_CHARGES')
f=open( 'psi4out.xyz', 'w' )
f.write( "17  " )
f.write( str(ee) + "\n" )
f.write( MOL.save_string_xyz() )
f.close()
--------------------------------------------------------------------------

    Molecular point group: c1
  Charge       = 0
  Multiplicity = 1
  Basis Set: CC-PVTZ
  Basis Set:
  @DF-RHF Final Energy:  -345.04519660503826
    Total Energy =                       -345.0451966050383135
    Molecular point group: c1
  Basis Set: CC-PVTZ
  Basis Set:
  Basis Set: CC-PVTZ
  Basis Set:
  @DF-RHF Final Energy:  -345.04554774301471
    Total Energy =                       -345.0455477430147084
  Basis Set: CC-PVTZ
  Basis Set:
  Basis Set: CC-PVTZ
  Basis Set:
  @DF-RHF Final Energy:  -345.04503546199828
    Total Energy =                       -345.0450354619982818
  Basis Set: CC-PVTZ
  Basis Set:
  Basis Set: CC-PVTZ
  Basis Set:
  @DF-RHF Final Energy:  -345.04562948554775
    Total Energy =                       -345.0456294855479200
  Basis Set: CC-PVTZ
  Basis Set:
  Basis Set: CC-PVTZ
  Basis Set:
  @DF-RHF Final Energy:  -345.04563769154004
    Total Energy =                       -345.0456376915399233
  Basis Set: CC-PVTZ
  Basis Set:
  Basis Set: CC-PVTZ
  Basis Set:
  @DF-RHF Final Energy:  -345.04564037415923
    Total Energy =                       -345.0456403741592908
  Basis Set: CC-PVTZ
  Basis Set:
  Basis Set: CC-PVTZ
  Basis Set:
  @DF-RHF Final Energy:  -345.04564236189975
    Total Energy =                       -345.0456423618995245
  Basis Set: CC-PVTZ
  Basis Set:
  Charge       = 0
  Multiplicity = 1
  Basis Set: CC-PVTZ
  Basis Set:

    Orbital Energies (a.u.)
    -----------------------

    Doubly Occupied:

       1A    -20.604703     2A    -20.541614     3A    -11.374494
       4A    -11.239542     5A    -11.219875     6A    -11.217599
       7A    -11.208068     8A     -1.478557     9A     -1.369949
      10A     -1.090168    11A     -1.017715    12A     -0.914085
      13A     -0.825911    14A     -0.788215    15A     -0.705793
      16A     -0.696326    17A     -0.659068    18A     -0.629531
      19A     -0.587937    20A     -0.584556    21A     -0.583292
      22A     -0.526171    23A     -0.522409    24A     -0.487144
      25A     -0.480835    26A     -0.470985    27A     -0.466100
      28A     -0.448543

  @DF-RHF Final Energy:  -345.04564272469793

   => Energetics <=

    Nuclear Repulsion Energy =            308.3633300982530727
    One-Electron Energy =               -1081.3395775867763859
    Two-Electron Energy =                 427.9306047638255563
    DFT Exchange-Correlation Energy =       0.0000000000000000
    Empirical Dispersion Energy =           0.0000000000000000
    PCM Polarization Energy =               0.0000000000000000
    EFP Energy =                            0.0000000000000000
    Total Energy =                       -345.0456427246977569
    Molecular point group: c1
  Basis Set: CC-PVTZ
  Basis Set:

  -Total Gradient:
     Atom            X                  Y                   Z
    ------   -----------------  -----------------  -----------------
       1        0.000038401508     0.000020198836     0.000013767270
       2       -0.000045748303    -0.000030800157     0.000068648375
       3       -0.000011060312    -0.000024935663    -0.000071067671
       4       -0.000456192423     0.000500352930     0.003560809718
       5        0.000042144239     0.000034007520     0.000012260946
       6       -0.001811014482     0.002561841210     0.001275688302
       7        0.000608301789    -0.000816079772    -0.003146201647
       8       -0.000016401316    -0.000009859415    -0.000007565844
       9        0.000034840457     0.000005879268     0.000000734415
      10        0.001608245907    -0.002260896435    -0.001702525041
      11        0.000016752601     0.000007837243    -0.000004040445
      12        0.000008318813    -0.000004091999    -0.000003164439
      13       -0.000006068916     0.000009333444     0.000003421981
      14       -0.000011686836     0.000006998615    -0.000000148671
      15       -0.000000630392    -0.000000052730    -0.000000805051
      16        0.000004261519     0.000003705484    -0.000001613308
      17       -0.000002463853    -0.000003438383     0.000001801105

  **** Optimization is complete! (in 8 steps) ****
    Final optimized geometry and variables:
    Molecular point group: c1

    Geometry (in Angstrom), charge = 0, multiplicity = 1:

    H           -2.787908049213    -1.075166835028    -1.428455083482
    O           -2.433217270181    -1.007853350735    -0.554772041378
    C           -1.316438107828    -0.287726365531    -0.608823303470
    C           -0.681923072297    -0.152231344072     0.752488211624
    O           -0.907432326400     0.159821020617    -1.624115213075
    C            0.578303447248     0.717769480249     0.770064330847
    H           -0.465568100062    -1.168624979560     1.065431667638
    H           -1.448643048490     0.216814253676     1.422062060715
    C            1.869066367822    -0.099999691415     0.743540434709
    H            0.571156828172     1.365609126261    -0.096054287682
    H            0.569823879333     1.346339371261     1.653285284573
    C            3.120038852867     0.770399820581     0.722460592630
    H            1.862889176207    -0.743372069171    -0.131553880753
    H            1.899533994625    -0.756072476325     1.609596893044
    H            3.135543290530     1.408980232966    -0.153947889447
    H            4.018562826960     0.164614203657     0.706984852070
    H            3.167105548015     1.409571006215     1.598131696311

  Mulliken Charges: (a.u.)
   Center  Symbol    Alpha    Beta     Spin     Total
       1     H     0.38249  0.38249  0.00000  0.23501
       2     O     4.15963  4.15963  0.00000 -0.31925
       3     C     2.80087  2.80087  0.00000  0.39826
       4     C     3.11988  3.11988  0.00000 -0.23976
       5     O     4.19249  4.19249  0.00000 -0.38499
       6     C     3.09483  3.09483  0.00000 -0.18967
       7     H     0.43792  0.43792  0.00000  0.12416
       8     H     0.42831  0.42831  0.00000  0.14338
       9     C     3.08352  3.08352  0.00000 -0.16703
      10     H     0.44014  0.44014  0.00000  0.11971
      11     H     0.44620  0.44620  0.00000  0.10759
      12     C     3.15117  3.15117  0.00000 -0.30234
      13     H     0.45068  0.45068  0.00000  0.09864
      14     H     0.45595  0.45595  0.00000  0.08811
      15     H     0.45161  0.45161  0.00000  0.09678
      16     H     0.44818  0.44818  0.00000  0.10363
      17     H     0.45611  0.45611  0.00000  0.08777

   Total alpha = 28.00000, Total beta = 28.00000, Total charge = -0.00000

*** Psi4 exiting successfully. Buy a developer a beer!
