  ==> Input File <==

--------------------------------------------------------------------------
set {
	reference rhf
	basis cc-pvtz
}

set_num_threads( 4 )
memory 2 gb

molecule MOL {
0 1

H	 3.273419	 0.176595	 -0.102789
N	 2.433987	 -0.362316	 -0.080024
C	 1.263552	 0.494993	 0.021953
H	 2.497638	 -0.973615	 0.707122
C	 -0.016533	 -0.325589	 -0.026925
H	 1.280915	 1.180773	 -0.818522
H	 1.263064	 1.106893	 0.925038
C	 -1.280353	 0.525521	 0.047747
H	 -0.016686	 -0.912532	 -0.939714
H	 -0.014099	 -1.037598	 0.796369
C	 -2.101751	 0.487972	 -1.236732
H	 -1.007803	 1.553974	 0.269032
H	 -1.896175	 0.188925	 0.877410
H	 -1.524403	 0.850737	 -2.080414
H	 -2.989553	 1.104303	 -1.153706
H	 -2.421358	 -0.522928	 -1.467199

	symmetry c1
}
set optking {
	frozen_dihedral = ("
		12 8 5 9
	")
}

ee = optimize('scf')
oeprop('DIPOLE', 'QUADRUPOLE', 'MULLIKEN_CHARGES')
f=open( 'psi4out.xyz', 'w' )
f.write( "16  " )
f.write( str(ee) + "\n" )
f.write( MOL.save_string_xyz() )
f.close()
--------------------------------------------------------------------------

    Molecular point group: c1
  Charge       = 0
  Multiplicity = 1
  Basis Set: CC-PVTZ
  Basis Set:
  @DF-RHF Final Energy:  -212.39491627610766
    Total Energy =                       -212.3949162761077218
    Molecular point group: c1
  Basis Set: CC-PVTZ
  Basis Set:
  Basis Set: CC-PVTZ
  Basis Set:
  @DF-RHF Final Energy:  -212.39517337004904
    Total Energy =                       -212.3951733700489513
  Basis Set: CC-PVTZ
  Basis Set:
  Basis Set: CC-PVTZ
  Basis Set:
  @DF-RHF Final Energy:  -212.39523587739623
    Total Energy =                       -212.3952358773960327
  Basis Set: CC-PVTZ
  Basis Set:
  Charge       = 0
  Multiplicity = 1
  Basis Set: CC-PVTZ
  Basis Set:

    Orbital Energies (a.u.)
    -----------------------

    Doubly Occupied:

       1A    -15.526617     2A    -11.238657     3A    -11.212801
       4A    -11.207698     5A    -11.205572     6A     -1.178579
       7A     -1.058013     8A     -0.958396     9A     -0.847378
      10A     -0.790521    11A     -0.663500    12A     -0.624425
      13A     -0.622117    14A     -0.584348    15A     -0.554067
      16A     -0.526521    17A     -0.504689    18A     -0.470522
      19A     -0.463445    20A     -0.455869    21A     -0.384218

  @DF-RHF Final Energy:  -212.39523668791878

   => Energetics <=

    Nuclear Repulsion Energy =            187.3236201572249229
    One-Electron Energy =                -657.2818080276738328
    Two-Electron Energy =                 257.5629511825302984
    DFT Exchange-Correlation Energy =       0.0000000000000000
    Empirical Dispersion Energy =           0.0000000000000000
    PCM Polarization Energy =               0.0000000000000000
    EFP Energy =                            0.0000000000000000
    Total Energy =                       -212.3952366879186116
    Molecular point group: c1
  Basis Set: CC-PVTZ
  Basis Set:

  -Total Gradient:
     Atom            X                  Y                   Z
    ------   -----------------  -----------------  -----------------
       1        0.000038892711    -0.000014667837    -0.000004299724
       2        0.000075787004    -0.000008677512    -0.000024454378
       3       -0.000078771670    -0.000062275845     0.000045041971
       4       -0.000000262136     0.000011079038     0.000000829459
       5       -0.000752541430    -0.001073670109     0.000471417049
       6        0.000000096438    -0.000010704641     0.000010209533
       7       -0.000009151927     0.000022957100    -0.000003837791
       8       -0.000015730257    -0.000097304350     0.001365784326
       9        0.000622431391     0.000958824636    -0.000628150969
      10        0.000020275593     0.000001516508    -0.000005757074
      11        0.000000351843     0.000007797150     0.000041940145
      12        0.000113058721     0.000251483194    -0.001269199701
      13       -0.000013021359     0.000014729531    -0.000004802058
      14        0.000002473487    -0.000003611247     0.000010821930
      15       -0.000013453943     0.000004403596    -0.000000819518
      16        0.000009565535    -0.000001879211    -0.000004723199

  **** Optimization is complete! (in 4 steps) ****
    Final optimized geometry and variables:
    Molecular point group: c1

    Geometry (in Angstrom), charge = 0, multiplicity = 1:

    H            3.178175182774     0.027870726815     0.122544050069
    N            2.342235861332    -0.516371183459     0.149200575845
    C            1.168156569211     0.330029630993     0.282440267477
    H            2.421543173660    -1.140764307713     0.924637281228
    C           -0.109026823846    -0.499145899379     0.249722120264
    H            1.162613298266     1.025224480006    -0.551027326402
    H            1.178518458056     0.932869882802     1.191544792035
    C           -1.386762376944     0.360495089637     0.305371986525
    H           -0.093567249153    -1.093530666021    -0.656617184274
    H           -0.090188205236    -1.200437573907     1.078816123406
    C           -2.189845593152     0.331735782043    -0.992704701477
    H           -1.121657013329     1.390955393891     0.522841887640
    H           -2.022194657157     0.034437501104     1.120956284944
    H           -1.590333198473     0.674030594001    -1.829914594032
    H           -3.064712454055     0.969146551359    -0.928921597413
    H           -2.526860866944    -0.673796454261    -1.220318275328

  Mulliken Charges: (a.u.)
   Center  Symbol    Alpha    Beta     Spin     Total
       1     H     0.43019  0.43019  0.00000  0.13961
       2     N     3.69006  3.69006  0.00000 -0.38013
       3     C     3.02447  3.02447  0.00000 -0.04893
       4     H     0.43080  0.43080  0.00000  0.13840
       5     C     3.08846  3.08846  0.00000 -0.17693
       6     H     0.45692  0.45692  0.00000  0.08617
       7     H     0.46816  0.46816  0.00000  0.06369
       8     C     3.09479  3.09479  0.00000 -0.18957
       9     H     0.44967  0.44967  0.00000  0.10065
      10     H     0.45479  0.45479  0.00000  0.09041
      11     C     3.14625  3.14625  0.00000 -0.29250
      12     H     0.45637  0.45637  0.00000  0.08726
      13     H     0.44967  0.44967  0.00000  0.10066
      14     H     0.45469  0.45469  0.00000  0.09062
      15     H     0.45047  0.45047  0.00000  0.09907
      16     H     0.45424  0.45424  0.00000  0.09152

   Total alpha = 21.00000, Total beta = 21.00000, Total charge =  0.00000
