                              Psi4 1.0.54 Driver

  ==> Input File <==

--------------------------------------------------------------------------
set {
	reference rhf
	basis cc-pvtz
}

set_num_threads( 4 )
memory 2 gb

molecule MOL {
0 1

H	 -3.294565	 0.569785	 0.000000
C	 -2.246225	 0.343737	 0.000000
C	 -1.809462	 -0.973484	 0.000000
C	 -1.312577	 1.353775	 0.000000
H	 -2.523539	 -1.775124	 0.000000
C	 -0.467257	 -1.267606	 0.000000
H	 -1.631287	 2.379013	 0.000000
C	 0.046966	 1.074396	 0.000000
H	 -0.119372	 -2.281828	 0.000000
C	 0.471772	 -0.241514	 0.000000
H	 0.748162	 1.882966	 0.000000
O	 1.760432	 -0.625184	 0.000000
C	 2.727336	 0.179607	 0.604622
H	 2.785767	 1.153965	 0.132477
H	 3.669822	 -0.329422	 0.478224
H	 2.533475	 0.306574	 1.663869

	symmetry c1
}
set optking {
	frozen_dihedral = ("
		13 12 10 8
	")
}

ee,wfn = optimize('scf', return_wfn=True)
oeprop( wfn, 'DIPOLE', 'QUADRUPOLE', 'MULLIKEN_CHARGES')
f=open( 'psi4out.xyz', 'w' )
f.write( "16  " )
f.write( str(ee) + "\n" )
f.write( MOL.save_string_xyz() )
f.close()
--------------------------------------------------------------------------

    Molecular point group: c1
  Charge       = 0
  Multiplicity = 1
  Basis Set: CC-PVTZ
  Basis Set:
  @DF-RHF Final Energy:  -344.70179668373322
    Total Energy =                       -344.7017966837332779
    Molecular point group: c1
  Basis Set: CC-PVTZ
  Basis Set:
  Basis Set: CC-PVTZ
  Basis Set:
  @DF-RHF Final Energy:  -344.70188915142717
    Total Energy =                       -344.7018891514271672
  Basis Set: CC-PVTZ
  Basis Set:
  Basis Set: CC-PVTZ
  Basis Set:
  @DF-RHF Final Energy:  -344.70252090124154
    Total Energy =                       -344.7025209012415417
  Basis Set: CC-PVTZ
  Basis Set:
  Basis Set: CC-PVTZ
  Basis Set:
  @DF-RHF Final Energy:  -344.70253221799874
    Total Energy =                       -344.7025322179989644
  Basis Set: CC-PVTZ
  Basis Set:
  Charge       = 0
  Multiplicity = 1
  Basis Set: CC-PVTZ
  Basis Set:

    Orbital Energies (a.u.)
    -----------------------

    Doubly Occupied:

       1A    -20.576709     2A    -11.291757     3A    -11.277598
       4A    -11.231555     5A    -11.230257     6A    -11.222714
       7A    -11.218860     8A    -11.218496     9A     -1.415725
      10A     -1.151403    11A     -1.024608    12A     -1.017131
      13A     -0.942268    14A     -0.835473    15A     -0.808789
      16A     -0.724008    17A     -0.668143    18A     -0.667010
      19A     -0.656245    20A     -0.618350    21A     -0.591909
      22A     -0.581975    23A     -0.530172    24A     -0.519652
      25A     -0.510722    26A     -0.483391    27A     -0.459547
      28A     -0.339793    29A     -0.313035

  @DF-RHF Final Energy:  -344.70253436480186

   => Energetics <=

    Nuclear Repulsion Energy =            348.7547716937086761
    One-Electron Energy =               -1158.6600165238587579
    Two-Electron Energy =                 465.2027104653478773
    DFT Exchange-Correlation Energy =       0.0000000000000000
    Empirical Dispersion Energy =           0.0000000000000000
    PCM Polarization Energy =               0.0000000000000000
    EFP Energy =                            0.0000000000000000
    Total Energy =                       -344.7025343648022044
    Molecular point group: c1
  Basis Set: CC-PVTZ
  Basis Set:

  -Total Gradient:
     Atom            X                  Y                   Z
    ------   -----------------  -----------------  -----------------
       1        0.000004424295    -0.000011100054    -0.000008856550
       2        0.000067956319     0.000274035308     0.000024224461
       3        0.000210163414    -0.000188966925     0.000012339519
       4       -0.000285787755    -0.000071025618    -0.000001619094
       5       -0.000003262645     0.000012066006     0.000001803139
       6       -0.000265738055    -0.000053565042    -0.000023902121
       7        0.000011393441     0.000002226679    -0.000002638890
       8        0.000132416556    -0.000154495270    -0.001814771904
       9        0.000024192568    -0.000001888394     0.000003583768
      10       -0.000009726922    -0.000228950023     0.003598584743
      11       -0.000015418545     0.000010828284    -0.000013238447
      12        0.000324591113     0.001298593464    -0.003316309082
      13       -0.000211666895    -0.000936463298     0.001638321919
      14       -0.000020166797     0.000073677872    -0.000091685520
      15        0.000004836347    -0.000014642833     0.000020304532
      16        0.000031793565    -0.000010330154    -0.000026140471

  **** Optimization is complete! (in 5 steps) ****
    Final optimized geometry and variables:
    Molecular point group: c1

    Geometry (in Angstrom), charge = 0, multiplicity = 1:

    H           -3.286937730177     0.591177502389    -0.094673620883
    C           -2.239013964973     0.362866798329    -0.088035184618
    C           -1.806612559607    -0.953653976861    -0.114837613023
    C           -1.303483424039     1.373219330908    -0.054708906401
    H           -2.522820877001    -1.752882655025    -0.141910030849
    C           -0.462868627159    -1.251053982904    -0.102421287659
    H           -1.621183573414     2.398597448130    -0.038741151961
    C            0.053014623899     1.088903882517    -0.048436184516
    H           -0.116850347937    -2.265723943900    -0.123073965968
    C            0.474858918945    -0.228147000970    -0.065289060080
    H            0.761727352858     1.891853206820    -0.031531962542
    O            1.770732438636    -0.598294776674    -0.101823510790
    C            2.736808471274     0.225369016666     0.484967731144
    H            2.931959691718     1.106670469537    -0.115489494755
    H            3.642413008052    -0.358106645915     0.546237778252
    H            2.439107452121     0.531271750203     1.481368716814

  Mulliken Charges: (a.u.)
   Center  Symbol    Alpha    Beta     Spin     Total
       1     H     0.42422  0.42422  0.00000  0.15155
       2     C     3.09808  3.09808  0.00000 -0.19617
       3     C     3.05997  3.05997  0.00000 -0.11993
       4     C     3.06160  3.06160  0.00000 -0.12320
       5     H     0.42279  0.42279  0.00000  0.15443
       6     C     3.11069  3.11069  0.00000 -0.22139
       7     H     0.42311  0.42311  0.00000  0.15378
       8     C     3.13225  3.13225  0.00000 -0.26451
       9     H     0.41981  0.41981  0.00000  0.16039
      10     C     2.85794  2.85794  0.00000  0.28412
      11     H     0.42291  0.42291  0.00000  0.15418
      12     O     4.15779  4.15779  0.00000 -0.31558
      13     C     3.04567  3.04567  0.00000 -0.09134
      14     H     0.46180  0.46180  0.00000  0.07640
      15     H     0.44051  0.44051  0.00000  0.11899
      16     H     0.46086  0.46086  0.00000  0.07827

   Total alpha = 29.00000, Total beta = 29.00000, Total charge = -0.00000

*** Psi4 exiting successfully. Buy a developer a beer!
