  ==> Input File <==

--------------------------------------------------------------------------
set {
	reference rhf
	basis cc-pvtz
}

set_num_threads( 4 )
memory 2 gb

molecule MOL {
0 1

H	 1.055267	 -1.249310	 -0.769574
O	 1.675515	 -0.612943	 -0.465627
C	 1.135873	 0.113391	 0.608264
C	 0.027642	 1.012027	 0.090274
H	 1.902972	 0.727968	 1.072615
H	 0.756163	 -0.561896	 1.370018
C	 -1.138737	 0.285728	 -0.581921
H	 0.464661	 1.708096	 -0.618252
H	 -0.340737	 1.603071	 0.925246
C	 -1.933983	 -0.631436	 0.343653
H	 -0.763151	 -0.285569	 -1.422081
H	 -1.808359	 1.035291	 -0.992333
H	 -2.789188	 -1.049673	 -0.174718
H	 -1.335629	 -1.461368	 0.700418
H	 -2.305435	 -0.092167	 1.209725

	symmetry c1
}
set optking {
	frozen_dihedral = ("
		1 2 3 4
	")
}

ee = optimize('scf')
oeprop('DIPOLE', 'QUADRUPOLE', 'MULLIKEN_CHARGES')
f=open( 'psi4out.xyz', 'w' )
f.write( "15  " )
f.write( str(ee) + "\n" )
f.write( MOL.save_string_xyz() )
f.close()
--------------------------------------------------------------------------

    Molecular point group: c1
  Charge       = 0
  Multiplicity = 1
  Basis Set: CC-PVTZ
  Basis Set:
  @DF-RHF Final Energy:  -232.23469833637716
    Total Energy =                       -232.2346983363772210
    Molecular point group: c1
  Basis Set: CC-PVTZ
  Basis Set:
  Basis Set: CC-PVTZ
  Basis Set:
  @DF-RHF Final Energy:  -232.23621657517165
    Total Energy =                       -232.2362165751716248
  Basis Set: CC-PVTZ
  Basis Set:
  Basis Set: CC-PVTZ
  Basis Set:
  @DF-RHF Final Energy:  -232.23665282790836
    Total Energy =                       -232.2366528279085287
  Basis Set: CC-PVTZ
  Basis Set:
  Basis Set: CC-PVTZ
  Basis Set:
  @DF-RHF Final Energy:  -232.23664746485173
    Total Energy =                       -232.2366474648517283
  Basis Set: CC-PVTZ
  Basis Set:
  Basis Set: CC-PVTZ
  Basis Set:
  @DF-RHF Final Energy:  -232.23666314075450
    Total Energy =                       -232.2366631407543309
  Basis Set: CC-PVTZ
  Basis Set:
  Charge       = 0
  Multiplicity = 1
  Basis Set: CC-PVTZ
  Basis Set:

    Orbital Energies (a.u.)
    -----------------------

    Doubly Occupied:

       1A    -20.545795     2A    -11.264793     3A    -11.220861
       4A    -11.214790     5A    -11.214036     6A     -1.363604
       7A     -1.072153     8A     -0.977033     9A     -0.880728
      10A     -0.787537    11A     -0.697306    12A     -0.645616
      13A     -0.617530    14A     -0.587194    15A     -0.573781
      16A     -0.546980    17A     -0.504576    18A     -0.493507
      19A     -0.477980    20A     -0.459820    21A     -0.429711

  @DF-RHF Final Energy:  -232.23666396035941

   => Energetics <=

    Nuclear Repulsion Energy =            191.5858878148545159
    One-Electron Energy =                -694.4944466128531531
    Two-Electron Energy =                 270.6718948376393428
    DFT Exchange-Correlation Energy =       0.0000000000000000
    Empirical Dispersion Energy =           0.0000000000000000
    PCM Polarization Energy =               0.0000000000000000
    EFP Energy =                            0.0000000000000000
    Total Energy =                       -232.2366639603592944
    Molecular point group: c1
  Basis Set: CC-PVTZ
  Basis Set:

  -Total Gradient:
     Atom            X                  Y                   Z
    ------   -----------------  -----------------  -----------------
       1       -0.000040600966     0.000094841002    -0.000102991423
       2        0.000015523041    -0.000165366274     0.000073791028
       3        0.000096525068     0.000105731336    -0.000011771162
       4       -0.000057854694    -0.000079396327     0.000000755551
       5       -0.000018956309     0.000024910374     0.000018680721
       6       -0.000009991306     0.000011692830     0.000009729697
       7        0.000027570044    -0.000015624226     0.000001002466
       8       -0.000006215485     0.000004306285     0.000001083232
       9       -0.000002261179     0.000009982355     0.000000931820
      10       -0.000016355899     0.000007469217     0.000003171824
      11        0.000011159593     0.000003367523    -0.000002288325
      12        0.000005455634    -0.000005418030     0.000007683115
      13       -0.000006158201     0.000003073628     0.000004829806
      14       -0.000000228781     0.000004655525    -0.000009660466
      15        0.000002389439    -0.000004225221     0.000005052115

  **** Optimization is complete! (in 6 steps) ****
    Final optimized geometry and variables:
    Molecular point group: c1

    Geometry (in Angstrom), charge = 0, multiplicity = 1:

    H            1.200211209891    -1.273568427616    -0.769986913452
    O            1.777299884080    -0.617070893098    -0.426701952185
    C            1.141294483111     0.105162641932     0.594620500939
    C            0.024749120938     1.009321538935     0.089522808305
    H            1.911143038525     0.713798957168     1.049247252624
    H            0.774645068729    -0.568860929056     1.363787758264
    C           -1.154796190528     0.296179204894    -0.575395497145
    H            0.455019188434     1.710640573442    -0.617815065167
    H           -0.339129992011     1.594100034518     0.931264776227
    C           -1.951205905952    -0.621026062096     0.350218770123
    H           -0.803614821231    -0.267831963050    -1.435000069308
    H           -1.822391843202     1.051138885062    -0.977159193388
    H           -2.807924575518    -1.037963788186    -0.166225891033
    H           -1.357403170620    -1.451868011933     0.714320595900
    H           -2.318839595242    -0.078298794704     1.214799914425

  Mulliken Charges: (a.u.)
   Center  Symbol    Alpha    Beta     Spin     Total
       1     H     0.39257  0.39257  0.00000  0.21486
       2     O     4.20581  4.20581  0.00000 -0.41162
       3     C     2.98219  2.98219  0.00000  0.03562
       4     C     3.09386  3.09386  0.00000 -0.18773
       5     H     0.44669  0.44669  0.00000  0.10661
       6     H     0.46789  0.46789  0.00000  0.06423
       7     C     3.10466  3.10466  0.00000 -0.20933
       8     H     0.44685  0.44685  0.00000  0.10630
       9     H     0.45601  0.45601  0.00000  0.08797
      10     C     3.15117  3.15117  0.00000 -0.30235
      11     H     0.45377  0.45377  0.00000  0.09247
      12     H     0.44445  0.44445  0.00000  0.11110
      13     H     0.44499  0.44499  0.00000  0.11002
      14     H     0.45621  0.45621  0.00000  0.08758
      15     H     0.45287  0.45287  0.00000  0.09426

   Total alpha = 21.00000, Total beta = 21.00000, Total charge = -0.00000
