                              Psi4 1.0.54 Driver

  ==> Input File <==

--------------------------------------------------------------------------
set {
	reference rhf
	basis cc-pvtz
}

set_num_threads( 4 )
memory 2 gb

molecule MOL {
0 1

H	 3.273419	 0.176595	 -0.102789
N	 2.433987	 -0.362316	 -0.080024
C	 1.263552	 0.494993	 0.021953
H	 2.497638	 -0.973615	 0.707122
C	 -0.016533	 -0.325589	 -0.026925
H	 1.280915	 1.180773	 -0.818522
H	 1.263064	 1.106893	 0.925038
C	 -1.280353	 0.525521	 0.047747
H	 -0.016686	 -0.912532	 -0.939714
H	 -0.014099	 -1.037598	 0.796369
C	 -2.558219	 -0.306024	 0.087512
H	 -1.314026	 1.193802	 -0.808543
H	 -1.238400	 1.161214	 0.928093
H	 -2.646844	 -0.928641	 -0.796357
H	 -3.437268	 0.326296	 0.136441
H	 -2.572606	 -0.959872	 0.953224

	symmetry c1
}
set optking {
	frozen_dihedral = ("
		12 8 5 9
	")
}

ee,wfn = optimize('scf', return_wfn=True)
oeprop( wfn, 'DIPOLE', 'QUADRUPOLE', 'MULLIKEN_CHARGES')
f=open( 'psi4out.xyz', 'w' )
f.write( "16  " )
f.write( str(ee) + "\n" )
f.write( MOL.save_string_xyz() )
f.close()
--------------------------------------------------------------------------

    Molecular point group: c1
  Charge       = 0
  Multiplicity = 1
  Basis Set: CC-PVTZ
  Basis Set:
  @DF-RHF Final Energy:  -212.40027795641259
    Total Energy =                       -212.4002779564126513
    Molecular point group: c1
  Basis Set: CC-PVTZ
  Basis Set:
  Basis Set: CC-PVTZ
  Basis Set:
  @DF-RHF Final Energy:  -212.40028479550486
    Total Energy =                       -212.4002847955047741
  Basis Set: CC-PVTZ
  Basis Set:
  Basis Set: CC-PVTZ
  Basis Set:
  @DF-RHF Final Energy:  -212.40028647186890
    Total Energy =                       -212.4002864718689807
  Basis Set: CC-PVTZ
  Basis Set:
  Charge       = 0
  Multiplicity = 1
  Basis Set: CC-PVTZ
  Basis Set:

    Orbital Energies (a.u.)
    -----------------------

    Doubly Occupied:

       1A    -15.526527     2A    -11.238023     3A    -11.212959
       4A    -11.207931     5A    -11.205857     6A     -1.178284
       7A     -1.060839     8A     -0.959755     9A     -0.844052
      10A     -0.792353    11A     -0.665341    12A     -0.639263
      13A     -0.605626    14A     -0.577360    15A     -0.565651
      16A     -0.524670    17A     -0.501465    18A     -0.469968
      19A     -0.465629    20A     -0.462521    21A     -0.384018

  @DF-RHF Final Energy:  -212.40028649657481

   => Energetics <=

    Nuclear Repulsion Energy =            186.5707426260447903
    One-Electron Energy =                -655.7658710723908371
    Two-Electron Energy =                 256.7948419497712393
    DFT Exchange-Correlation Energy =       0.0000000000000000
    Empirical Dispersion Energy =           0.0000000000000000
    PCM Polarization Energy =               0.0000000000000000
    EFP Energy =                            0.0000000000000000
    Total Energy =                       -212.4002864965748358
    Molecular point group: c1
  Basis Set: CC-PVTZ
  Basis Set:

  -Total Gradient:
     Atom            X                  Y                   Z
    ------   -----------------  -----------------  -----------------
       1       -0.000000626868     0.000000673303    -0.000000079931
       2        0.000003019617    -0.000003168945     0.000000780118
       3       -0.000003400840    -0.000002096293     0.000002826358
       4        0.000001127211     0.000001069469    -0.000000618595
       5       -0.000465773939    -0.000712926354     0.000304918915
       6        0.000000772588    -0.000001423874     0.000001500764
       7        0.000001554132     0.000004046896     0.000000359621
       8        0.000480562641     0.000681343500     0.000354238171
       9        0.000311210041     0.000486679672    -0.000318834257
      10        0.000000147110     0.000004616995    -0.000002234156
      11        0.000000056241     0.000001111209    -0.000002138212
      12       -0.000326293771    -0.000457978455    -0.000339262787
      13        0.000001129840     0.000000650568    -0.000000215894
      14       -0.000001243011    -0.000002513316     0.000001654884
      15        0.000000120968    -0.000002309395    -0.000001741126
      16       -0.000002361958     0.000002225020    -0.000001153872

  **** Optimization is complete! (in 4 steps) ****
    Final optimized geometry and variables:
    Molecular point group: c1

    Geometry (in Angstrom), charge = 0, multiplicity = 1:

    H            3.271829722306     0.177692358200    -0.145129483317
    N            2.432728312315    -0.361476284501    -0.115788949854
    C            1.263133458288     0.495197781504     0.000018028498
    H            2.504328658237    -0.974639425622     0.669258734724
    C           -0.017414645555    -0.325901467201    -0.036784399417
    H            1.271198327951     1.182581105656    -0.839351495546
    H            1.271967080679     1.105444577726     0.904161283515
    C           -1.280096259578     0.527194186385     0.035881422150
    H           -0.020006963070    -0.915547706293    -0.947718752148
    H           -0.010787620732    -1.032292987742     0.791113914114
    C           -2.558868658443    -0.303587879648     0.071573347768
    H           -1.312407359829     1.191958423189    -0.823034014083
    H           -1.240651922459     1.163220501447     0.915951824860
    H           -2.641643395518    -0.931088834276    -0.809472280703
    H           -3.437918719095     0.329480088257     0.110583580879
    H           -2.579749977154    -0.952554188080     0.940774257371

  Mulliken Charges: (a.u.)
   Center  Symbol    Alpha    Beta     Spin     Total
       1     H     0.43019  0.43019  0.00000  0.13962
       2     N     3.68933  3.68933  0.00000 -0.37866
       3     C     3.02589  3.02589  0.00000 -0.05177
       4     H     0.43097  0.43097  0.00000  0.13806
       5     C     3.08024  3.08024  0.00000 -0.16049
       6     H     0.45730  0.45730  0.00000  0.08540
       7     H     0.46881  0.46881  0.00000  0.06238
       8     C     3.08841  3.08841  0.00000 -0.17683
       9     H     0.44915  0.44915  0.00000  0.10171
      10     H     0.46088  0.46088  0.00000  0.07823
      11     C     3.14932  3.14932  0.00000 -0.29865
      12     H     0.45433  0.45433  0.00000  0.09133
      13     H     0.45664  0.45664  0.00000  0.08672
      14     H     0.45418  0.45418  0.00000  0.09164
      15     H     0.44881  0.44881  0.00000  0.10238
      16     H     0.45554  0.45554  0.00000  0.08891

   Total alpha = 21.00000, Total beta = 21.00000, Total charge = -0.00000

*** Psi4 exiting successfully. Buy a developer a beer!
