  ==> Input File <==

--------------------------------------------------------------------------
set {
	reference rhf
	basis 6-31G*
}

set_num_threads( 4 )
memory 2 gb

molecule MOL {
0 1

O	 1.857517	 0.241204	 0.926034
C	 1.122059	 0.121804	 -0.000188
C	 -0.170150	 -0.657997	 -0.000612
O	 1.350319	 0.674359	 -1.184906
C	 -1.412532	 0.227344	 -0.000452
H	 -0.153702	 -1.313099	 -0.867402
H	 -0.153924	 -1.313811	 0.865644
C	 -2.706999	 -0.587347	 -0.000541
H	 -1.388000	 0.879466	 -0.868000
H	 -1.387972	 0.879138	 0.867341
C	 -3.956778	 0.291888	 0.000910
H	 -2.726114	 -1.239230	 -0.871609
H	 -2.725217	 -1.240844	 0.869333
H	 -3.985213	 0.933254	 -0.875158
H	 -4.860123	 -0.309979	 0.000519
H	 -3.984618	 0.931166	 0.878514
C	 2.535489	 1.437324	 -1.320542
H	 2.533444	 2.268521	 -0.630184
H	 2.540589	 1.796239	 -2.337942
H	 3.405567	 0.823975	 -1.135408

	symmetry c1
}
set optking {
	frozen_dihedral = ("
		1 2 3 6
	")
}

ee = optimize('scf')
oeprop('DIPOLE', 'QUADRUPOLE', 'MULLIKEN_CHARGES')
f=open( 'psi4out.xyz', 'w' )
f.write( "20  " )
f.write( str(ee) + "\n" )
f.write( MOL.save_string_xyz() )
f.close()
--------------------------------------------------------------------------

    Molecular point group: c1
  Charge       = 0
  Multiplicity = 1
  Basis Set: 6-31G*
  Basis Set:
  @DF-RHF Final Energy:  -383.93991342130727
    Total Energy =                       -383.9399134213069829
    Molecular point group: c1
  Basis Set: 6-31G*
  Basis Set:
  Basis Set: 6-31G*
  Basis Set:
  @DF-RHF Final Energy:  -383.94008873651575
    Total Energy =                       -383.9400887365152357
  Basis Set: 6-31G*
  Basis Set:
  Basis Set: 6-31G*
  Basis Set:
  @DF-RHF Final Energy:  -383.93923013284092
    Total Energy =                       -383.9392301328405210
  Basis Set: 6-31G*
  Basis Set:
  Basis Set: 6-31G*
  Basis Set:
  @DF-RHF Final Energy:  -383.94036800715730
    Total Energy =                       -383.9403680071575309
  Basis Set: 6-31G*
  Basis Set:
  Basis Set: 6-31G*
  Basis Set:
  @DF-RHF Final Energy:  -383.94037017363280
    Total Energy =                       -383.9403701736325729
  Basis Set: 6-31G*
  Basis Set:
  Charge       = 0
  Multiplicity = 1
  Basis Set: 6-31G*
  Basis Set:

    Orbital Energies (a.u.)
    -----------------------

    Doubly Occupied:

       1A    -20.604135     2A    -20.543613     3A    -11.370822
       4A    -11.280746     5A    -11.234050     6A    -11.229376
       7A    -11.224324     8A    -11.214487     9A     -1.468615
      10A     -1.361280    11A     -1.092956    12A     -1.025259
      13A     -0.966879    14A     -0.890755    15A     -0.807315
      16A     -0.773795    17A     -0.693657    18A     -0.680002
      19A     -0.673302    20A     -0.647344    21A     -0.597360
      22A     -0.591936    23A     -0.575776    24A     -0.552225
      25A     -0.533369    26A     -0.520014    27A     -0.511650
      28A     -0.484714    29A     -0.480850    30A     -0.475538
      31A     -0.453993    32A     -0.429139

  @DF-RHF Final Energy:  -383.94037067360745

   => Energetics <=

    Nuclear Repulsion Energy =            383.4424886932957293
    One-Electron Energy =               -1282.7871701052740718
    Two-Electron Energy =                 515.4043107383706683
    DFT Exchange-Correlation Energy =       0.0000000000000000
    Empirical Dispersion Energy =           0.0000000000000000
    PCM Polarization Energy =               0.0000000000000000
    EFP Energy =                            0.0000000000000000
    Total Energy =                       -383.9403706736077311
    Molecular point group: c1
  Basis Set: 6-31G*
  Basis Set:

  -Total Gradient:
     Atom            X                  Y                   Z
    ------   -----------------  -----------------  -----------------
       1       -0.000027504210     0.000003651376    -0.000037470647
       2        0.000014155558     0.000031653899     0.000046002296
       3        0.000011511460     0.000026147842     0.000060215336
       4       -0.000002281509    -0.000028239222     0.000003487002
       5       -0.000009407853     0.000023778577    -0.000038026882
       6       -0.000017654114     0.000012612570     0.000036922924
       7        0.000009310796    -0.000054272828    -0.000042250033
       8        0.000016305422    -0.000019060957    -0.000021830507
       9        0.000007968083     0.000000381882     0.000008580545
      10       -0.000001296988    -0.000006771312    -0.000037319164
      11        0.000002095433     0.000011955132     0.000029624252
      12       -0.000002896721     0.000006068815    -0.000006663817
      13        0.000012130432    -0.000016666342    -0.000011006625
      14        0.000001761867    -0.000007025984     0.000003624262
      15       -0.000002136198    -0.000000062102     0.000009829189
      16       -0.000008061213     0.000014784027    -0.000001340874
      17       -0.000024290880     0.000008037570     0.000004007782
      18        0.000008672849    -0.000001346749    -0.000003570587
      19        0.000011083326     0.000002418113    -0.000004012461
      20        0.000000534455    -0.000008044307     0.000001198010

  **** Optimization is complete! (in 6 steps) ****
    Final optimized geometry and variables:
    Molecular point group: c1

    Geometry (in Angstrom), charge = 0, multiplicity = 1:

    O            2.007486457962    -0.035314543679     1.124340026131
    C            1.267894602870    -0.142978417439     0.199577644442
    C           -0.017744087626    -0.930969089887     0.205845422551
    O            1.480998692492     0.444433477677    -0.971672249520
    C           -1.253110385723    -0.019228263968     0.180865302454
    H           -0.026262794886    -1.582580217702    -0.661955129501
    H           -0.014592760440    -1.544672250276     1.097335227874
    C           -2.559849457973    -0.812721377507     0.221940302301
    H           -1.226626489917     0.596352645186    -0.712869387690
    H           -1.214353429329     0.657418097830     1.031380947123
    C           -3.796041403060     0.085413517220     0.207922416656
    H           -2.595535774460    -1.490880014594    -0.627846988760
    H           -2.575615915706    -1.436056572787     1.112972611020
    H           -3.825911673514     0.697406886601    -0.688938096683
    H           -4.707545272458    -0.503028502970     0.237610255757
    H           -3.805143686049     0.753241802933     1.064457801772
    C            2.648501051681     1.236823821471    -1.089843698486
    H            2.630465301358     2.048719871009    -0.377115215379
    H            2.642809659244     1.622981974536    -2.097245836788
    H            3.532019961505     0.637619275929    -0.923289308343

  Mulliken Charges: (a.u.)
   Center  Symbol    Alpha    Beta     Spin     Total
       1     O     4.28492  4.28492  0.00000 -0.56984
       2     C     2.61643  2.61643  0.00000  0.76714
       3     C     3.19504  3.19504  0.00000 -0.39009
       4     O     4.30281  4.30281  0.00000 -0.60562
       5     C     3.16420  3.16420  0.00000 -0.32839
       6     H     0.40457  0.40457  0.00000  0.19085
       7     H     0.39920  0.39920  0.00000  0.20159
       8     C     3.15301  3.15301  0.00000 -0.30603
       9     H     0.40914  0.40914  0.00000  0.18173
      10     H     0.41340  0.41340  0.00000  0.17320
      11     C     3.24021  3.24021  0.00000 -0.48042
      12     H     0.42085  0.42085  0.00000  0.15830
      13     H     0.41982  0.41982  0.00000  0.16035
      14     H     0.42031  0.42031  0.00000  0.15937
      15     H     0.41736  0.41736  0.00000  0.16527
      16     H     0.41980  0.41980  0.00000  0.16039
      17     C     3.09234  3.09234  0.00000 -0.18467
      18     H     0.40908  0.40908  0.00000  0.18185
      19     H     0.40887  0.40887  0.00000  0.18227
      20     H     0.40862  0.40862  0.00000  0.18275

   Total alpha = 32.00000, Total beta = 32.00000, Total charge =  0.00000
