                              Psi4 1.0.54 Driver

  ==> Input File <==

--------------------------------------------------------------------------
set {
	reference rhf
	basis cc-pvtz
}

set_num_threads( 4 )
memory 2 gb

molecule MOL {
0 1

O	 -2.136391	 -1.992084	 0.548253
C	 -1.424963	 -1.823897	 -0.388237
C	 -0.881910	 -0.448129	 -0.720509
C	 -1.009494	 -2.967703	 -1.282588
C	 0.376695	 -0.140025	 0.100361
H	 -1.653846	 0.274083	 -0.486767
H	 -0.657931	 -0.377704	 -1.779630
C	 1.630207	 -0.772146	 -0.501001
H	 0.486632	 0.935267	 0.162725
H	 0.248225	 -0.501310	 1.117842
C	 2.907848	 -0.545876	 0.309149
H	 1.772784	 -0.391628	 -1.509394
H	 1.468529	 -1.842059	 -0.599744
C	 3.373802	 0.906639	 0.372125
H	 3.699140	 -1.146831	 -0.127906
H	 2.764321	 -0.923458	 1.318191
H	 3.519798	 1.311927	 -0.623875
H	 4.316899	 0.983758	 0.900700
H	 2.661122	 1.540651	 0.885346
H	 -1.459252	 -2.836566	 -2.261628
H	 -1.333177	 -3.906607	 -0.860384
H	 0.065686	 -2.973446	 -1.422391

	symmetry c1
}
set optking {
	frozen_dihedral = ("
		6 3 5 8
	")
}

ee,wfn = optimize('scf', return_wfn=True)
oeprop( wfn, 'DIPOLE', 'QUADRUPOLE', 'MULLIKEN_CHARGES')
f=open( 'psi4out.xyz', 'w' )
f.write( "22  " )
f.write( str(ee) + "\n" )
f.write( MOL.save_string_xyz() )
f.close()
--------------------------------------------------------------------------

    Molecular point group: c1
  Charge       = 0
  Multiplicity = 1
  Basis Set: CC-PVTZ
  Basis Set:
  @DF-RHF Final Energy:  -348.21832088839932
    Total Energy =                       -348.2183208883993757
    Molecular point group: c1
  Basis Set: CC-PVTZ
  Basis Set:
  Basis Set: CC-PVTZ
  Basis Set:
  @DF-RHF Final Energy:  -348.22015102351236
    Total Energy =                       -348.2201510235126989
  Basis Set: CC-PVTZ
  Basis Set:
  Basis Set: CC-PVTZ
  Basis Set:
  @DF-RHF Final Energy:  -348.21918292474379
    Total Energy =                       -348.2191829247437909
  Basis Set: CC-PVTZ
  Basis Set:
  Basis Set: CC-PVTZ
  Basis Set:
  @DF-RHF Final Energy:  -348.22094686365944
    Total Energy =                       -348.2209468636594920
  Basis Set: CC-PVTZ
  Basis Set:
  @DF-RHF Final Energy:  -348.22112667086935
    Total Energy =                       -348.2211266708693529
  @DF-RHF Final Energy:  -348.22157639102630
    Total Energy =                       -348.2215763910263604
  @DF-RHF Final Energy:  -348.22200250012344
    Total Energy =                       -348.2220025001230965
  @DF-RHF Final Energy:  -348.22230445619437
    Total Energy =                       -348.2223044561945926
  @DF-RHF Final Energy:  -348.22202529549890
    Total Energy =                       -348.2220252954986108
  @DF-RHF Final Energy:  -348.22349182168159
    Total Energy =                       -348.2234918216814776
  @DF-RHF Final Energy:  -348.22315133080383
    Total Energy =                       -348.2231513308039439
  @DF-RHF Final Energy:  -348.22315418767533
    Total Energy =                       -348.2231541876755614
  @DF-RHF Final Energy:  -348.22352027909756
    Total Energy =                       -348.2235202790977837
  @DF-RHF Final Energy:  -348.22413942660984
    Total Energy =                       -348.2241394266097814
  @DF-RHF Final Energy:  -348.22422109484916
    Total Energy =                       -348.2242210948486445
  @DF-RHF Final Energy:  -348.22426747763632
    Total Energy =                       -348.2242674776357489
  @DF-RHF Final Energy:  -348.22428090032560
    Total Energy =                       -348.2242809003257662
  @DF-RHF Final Energy:  -348.22428302474003
    Total Energy =                       -348.2242830247403163
  Basis Set: CC-PVTZ
  Basis Set:
  @DF-RHF Final Energy:  -348.22429015519998
    Total Energy =                       -348.2242901552000376
  Basis Set: CC-PVTZ
  Basis Set:
  Basis Set: CC-PVTZ
  Basis Set:
  @DF-RHF Final Energy:  -348.22429288282478
    Total Energy =                       -348.2242928828250683
  Basis Set: CC-PVTZ
  Basis Set:
  Basis Set: CC-PVTZ
  Basis Set:
  @DF-RHF Final Energy:  -348.22429438585556
    Total Energy =                       -348.2242943858553872
  Basis Set: CC-PVTZ
  Basis Set:
  Charge       = 0
  Multiplicity = 1
  Basis Set: CC-PVTZ
  Basis Set:

    Orbital Energies (a.u.)
    -----------------------

    Doubly Occupied:

       1A    -20.539506     2A    -11.321595     3A    -11.230588
       4A    -11.227159     5A    -11.214777     6A    -11.211083
       7A    -11.210234     8A    -11.205044     9A     -1.399850
      10A     -1.089625    11A     -1.042978    12A     -1.001300
      13A     -0.933862    14A     -0.855451    15A     -0.781405
      16A     -0.730026    17A     -0.668085    18A     -0.634071
      19A     -0.631036    20A     -0.612686    21A     -0.603122
      22A     -0.579732    23A     -0.563464    24A     -0.548222
      25A     -0.523036    26A     -0.515478    27A     -0.499065
      28A     -0.490637    29A     -0.462538    30A     -0.459352
      31A     -0.448685    32A     -0.403307

  @DF-RHF Final Energy:  -348.22429459974023

   => Energetics <=

    Nuclear Repulsion Energy =            378.3969952253921747
    One-Electron Energy =               -1221.9685745437664082
    Two-Electron Energy =                 495.3472847186346826
    DFT Exchange-Correlation Energy =       0.0000000000000000
    Empirical Dispersion Energy =           0.0000000000000000
    PCM Polarization Energy =               0.0000000000000000
    EFP Energy =                            0.0000000000000000
    Total Energy =                       -348.2242945997395509
    Molecular point group: c1
  Basis Set: CC-PVTZ
  Basis Set:

  -Total Gradient:
     Atom            X                  Y                   Z
    ------   -----------------  -----------------  -----------------
       1       -0.000001111717     0.000019059310    -0.000014770486
       2       -0.000003336636    -0.000033190285     0.000025498045
       3       -0.000688935629    -0.000599930918     0.001280265155
       4       -0.000016625649     0.000008059037     0.000021284641
       5       -0.000118070508    -0.000962082009     0.000825304698
       6        0.000630888835     0.000737368497    -0.001293957239
       7        0.000000963997     0.000009755921     0.000014977457
       8        0.000190457589     0.000826196672    -0.000847723816
       9       -0.000001992878     0.000006914665     0.000001896432
      10       -0.000003328380    -0.000004984862    -0.000008071740
      11       -0.000000893793     0.000007318946     0.000012881234
      12       -0.000002753169    -0.000011357415    -0.000004606177
      13       -0.000008233007    -0.000007065283     0.000004711343
      14        0.000003195679    -0.000004230162     0.000003466285
      15        0.000000608648     0.000010973046    -0.000002202190
      16        0.000006508900    -0.000005281907     0.000006136502
      17        0.000000880975    -0.000000222860    -0.000001403325
      18       -0.000001891105     0.000001726024    -0.000001020414
      19       -0.000000311970    -0.000003615709    -0.000001146624
      20        0.000009799520    -0.000007075022    -0.000009865263
      21        0.000004356831     0.000006506819    -0.000001544153
      22       -0.000000176534     0.000005157497    -0.000010110365

  **** Optimization is complete! (in 22 steps) ****
    Final optimized geometry and variables:
    Molecular point group: c1

    Geometry (in Angstrom), charge = 0, multiplicity = 1:

    O           -1.308269377320    -1.583895297331     0.758520080326
    C           -1.592646923450    -1.131998051829    -0.302159345532
    C           -1.104561221859     0.226723335697    -0.766571238273
    C           -2.478241941171    -1.886542994840    -1.267236534151
    C           -0.046039786934     0.873166316170     0.122176354664
    H           -1.982184330367     0.864337427175    -0.843365445752
    H           -0.742763736538     0.125072072565    -1.786797056969
    C            1.354781205983     0.304682586914    -0.103738632177
    H           -0.043301653584     1.938482711211    -0.078314651331
    H           -0.329660769926     0.745794334914     1.159593304265
    C            2.421912433309     0.852035116087     0.845169680376
    H            1.656823464546     0.498736385454    -1.131227325656
    H            1.317221948611    -0.773324721415     0.010386964294
    C            2.712847248183     2.342793927754     0.689230654004
    H            3.341513523849     0.299200976387     0.680122299389
    H            2.125341332664     0.646590239205     1.869751716000
    H            3.000991447101     2.579696573547    -0.330272169559
    H            3.525865825491     2.645244112332     1.339277214886
    H            1.853509002723     2.952948447682     0.940320761975
    H           -3.270614759431    -1.249710904624    -1.643229162685
    H           -2.899368732408    -2.752309124542    -0.779706010148
    H           -1.888654343580    -2.206222759108    -2.120220990342

  Mulliken Charges: (a.u.)
   Center  Symbol    Alpha    Beta     Spin     Total
       1     O     4.17317  4.17317  0.00000 -0.34634
       2     C     2.85911  2.85911  0.00000  0.28178
       3     C     3.12222  3.12222  0.00000 -0.24444
       4     C     3.15081  3.15081  0.00000 -0.30162
       5     C     3.09610  3.09610  0.00000 -0.19221
       6     H     0.43445  0.43445  0.00000  0.13110
       7     H     0.44486  0.44486  0.00000  0.11028
       8     C     3.09328  3.09328  0.00000 -0.18657
       9     H     0.44486  0.44486  0.00000  0.11028
      10     H     0.44350  0.44350  0.00000  0.11301
      11     C     3.09246  3.09246  0.00000 -0.18492
      12     H     0.45747  0.45747  0.00000  0.08506
      13     H     0.44324  0.44324  0.00000  0.11353
      14     C     3.15302  3.15302  0.00000 -0.30604
      15     H     0.44881  0.44881  0.00000  0.10239
      16     H     0.45051  0.45051  0.00000  0.09899
      17     H     0.45611  0.45611  0.00000  0.08778
      18     H     0.44612  0.44612  0.00000  0.10776
      19     H     0.45420  0.45420  0.00000  0.09160
      20     H     0.45089  0.45089  0.00000  0.09823
      21     H     0.43555  0.43555  0.00000  0.12890
      22     H     0.44926  0.44926  0.00000  0.10148

   Total alpha = 32.00000, Total beta = 32.00000, Total charge = -0.00000

*** Psi4 exiting successfully. Buy a developer a beer!
