  ==> Input File <==

--------------------------------------------------------------------------
set {
	reference rhf
	basis 6-31G*
}

set_num_threads( 4 )
memory 2 gb

molecule MOL {
0 1

O	 -2.692147	 0.379654	 -0.011045
C	 -2.066880	 -0.412371	 0.626271
C	 -0.835822	 -1.083252	 0.042555
C	 -2.444725	 -0.762850	 2.048161
C	 0.379448	 -0.143569	 0.099626
H	 -1.054415	 -1.329724	 -0.990775
H	 -0.616564	 -2.006402	 0.571465
C	 1.631333	 -0.777471	 -0.511575
H	 0.122998	 0.772778	 -0.419917
H	 0.584178	 0.128234	 1.134013
C	 2.915987	 -0.544314	 0.291766
H	 1.766672	 -0.399098	 -1.523130
H	 1.471257	 -1.849544	 -0.605828
C	 3.373361	 0.914346	 0.347591
H	 3.708709	 -1.142521	 -0.150311
H	 2.780642	 -0.921148	 1.303579
H	 3.506512	 1.320010	 -0.651625
H	 4.322697	 0.999599	 0.867103
H	 2.660624	 1.545032	 0.868198
H	 -2.762564	 -1.801081	 2.096314
H	 -3.249880	 -0.124983	 2.385260
H	 -1.589691	 -0.658897	 2.709913

	symmetry c1
}
set optking {
	frozen_dihedral = ("
		3 5 8 12
	")
}

ee = optimize('scf')
oeprop('DIPOLE', 'QUADRUPOLE', 'MULLIKEN_CHARGES')
f=open( 'psi4out.xyz', 'w' )
f.write( "22  " )
f.write( str(ee) + "\n" )
f.write( MOL.save_string_xyz() )
f.close()
--------------------------------------------------------------------------

    Molecular point group: c1
  Charge       = 0
  Multiplicity = 1
  Basis Set: 6-31G*
  Basis Set:
  @DF-RHF Final Energy:  -348.09414659064208
    Total Energy =                       -348.0941465906419126
    Molecular point group: c1
  Basis Set: 6-31G*
  Basis Set:
  Basis Set: 6-31G*
  Basis Set:
  @DF-RHF Final Energy:  -348.09430700082788
    Total Energy =                       -348.0943070008277687
  Basis Set: 6-31G*
  Basis Set:
  Basis Set: 6-31G*
  Basis Set:
  @DF-RHF Final Energy:  -348.09442693578490
    Total Energy =                       -348.0944269357853500
  Basis Set: 6-31G*
  Basis Set:
  Basis Set: 6-31G*
  Basis Set:
  @DF-RHF Final Energy:  -348.09452034002925
    Total Energy =                       -348.0945203400292485
  Basis Set: 6-31G*
  Basis Set:
  @DF-RHF Final Energy:  -348.09427387777373
    Total Energy =                       -348.0942738777741852
  @DF-RHF Final Energy:  -348.09420273823440
    Total Energy =                       -348.0942027382340029
  @DF-RHF Final Energy:  -348.09446327363662
    Total Energy =                       -348.0944632736365065
  @DF-RHF Final Energy:  -348.09430058140271
    Total Energy =                       -348.0943005814024218
  Basis Set: 6-31G*
  Basis Set:
  @DF-RHF Final Energy:  -348.09450473653618
    Total Energy =                       -348.0945047365360097
  Basis Set: 6-31G*
  Basis Set:
  Basis Set: 6-31G*
  Basis Set:
  @DF-RHF Final Energy:  -348.09453313643775
    Total Energy =                       -348.0945331364379740
  Basis Set: 6-31G*
  Basis Set:
  Basis Set: 6-31G*
  Basis Set:
  @DF-RHF Final Energy:  -348.09453634344601
    Total Energy =                       -348.0945363434458955
  Basis Set: 6-31G*
  Basis Set:
  Charge       = 0
  Multiplicity = 1
  Basis Set: 6-31G*
  Basis Set:

    Orbital Energies (a.u.)
    -----------------------

    Doubly Occupied:

       1A    -20.547371     2A    -11.324336     3A    -11.229807
       4A    -11.229233     5A    -11.228291     6A    -11.222184
       7A    -11.221249     8A    -11.212416     9A     -1.393093
      10A     -1.094666    11A     -1.044716    12A     -0.999146
      13A     -0.936881    14A     -0.858879    15A     -0.786210
      16A     -0.734244    17A     -0.662604    18A     -0.643601
      19A     -0.626505    20A     -0.617202    21A     -0.595263
      22A     -0.589524    23A     -0.559748    24A     -0.541035
      25A     -0.533226    26A     -0.524481    27A     -0.496915
      28A     -0.488523    29A     -0.468067    30A     -0.466377
      31A     -0.458041    32A     -0.396077

  @DF-RHF Final Energy:  -348.09453641367611

   => Energetics <=

    Nuclear Repulsion Energy =            373.1981025198006137
    One-Electron Energy =               -1211.1254558789582916
    Two-Electron Energy =                 489.8328169454816816
    DFT Exchange-Correlation Energy =       0.0000000000000000
    Empirical Dispersion Energy =           0.0000000000000000
    PCM Polarization Energy =               0.0000000000000000
    EFP Energy =                            0.0000000000000000
    Total Energy =                       -348.0945364136759963
    Molecular point group: c1
  Basis Set: 6-31G*
  Basis Set:

  -Total Gradient:
     Atom            X                  Y                   Z
    ------   -----------------  -----------------  -----------------
       1       -0.000006817016    -0.000004425953     0.000001605594
       2        0.000006044706    -0.000001732922    -0.000009912299
       3        0.000656674966    -0.001069102623     0.002390806775
       4        0.000011031562     0.000007540378     0.000008671386
       5       -0.000428457340     0.002132498816    -0.002994821293
       6        0.000005805774     0.000004630579     0.000000919230
       7        0.000001357469     0.000003041492     0.000004321971
       8       -0.002347926836    -0.003832994306    -0.000787327760
       9       -0.000010311736     0.000002686505     0.000000835965
      10        0.000004594707    -0.000001028549    -0.000005129186
      11        0.000003908860    -0.000002770797    -0.000002501562
      12        0.002108470157     0.002772650275     0.001391227590
      13        0.000003776520    -0.000003712717    -0.000002120170
      14       -0.000004534807    -0.000003835626     0.000002752481
      15        0.000003462802     0.000001318484     0.000001865321
      16        0.000002661659     0.000003573634    -0.000001832083
      17       -0.000000780966    -0.000004384071     0.000000016213
      18       -0.000000229970    -0.000001219892    -0.000000486730
      19        0.000000285737     0.000000593924     0.000001600514
      20       -0.000003594264    -0.000000486107    -0.000001525695
      21       -0.000001020802    -0.000000372503     0.000001391501
      22       -0.000004401177    -0.000002468021    -0.000000357762

  **** Optimization is complete! (in 12 steps) ****
    Final optimized geometry and variables:
    Molecular point group: c1

    Geometry (in Angstrom), charge = 0, multiplicity = 1:

    O           -2.710711435372     0.701997064000    -0.378786626098
    C           -2.102877900754    -0.106077226490     0.255141874184
    C           -0.879284004759    -0.792344112934    -0.326681272857
    C           -2.500311361675    -0.468836289213     1.668764992939
    C            0.352516297542     0.125161670163    -0.256827341314
    H           -1.098065590686    -1.032851345784    -1.361813454269
    H           -0.673359407703    -1.719861882962     0.199537700319
    C            1.606364088305    -0.514273367520    -0.887930376002
    H            0.115746970542     1.066573012476    -0.738801050284
    H            0.550726237117     0.356089954908     0.788042298333
    C            2.896673429765    -0.263351388563    -0.098034329893
    H            1.747018915881    -0.118531402691    -1.890752599691
    H            1.462763133161    -1.586488037151    -0.987948503659
    C            3.310908969888     1.207872133072    -0.044496459732
    H            3.700247843384    -0.839101118499    -0.550476614227
    H            2.779752257280    -0.645851224405     0.914122650896
    H            3.464698826802     1.604397188348    -1.044320566165
    H            4.238504057831     1.330707540820     0.505822034482
    H            2.558968866544     1.822109286172     0.441069995469
    H           -2.833976195995    -1.502708930363     1.700647607438
    H           -3.299249939905     0.176802267994     2.005806884687
    H           -1.650621763440    -0.385946164424     2.340314450023

  Mulliken Charges: (a.u.)
   Center  Symbol    Alpha    Beta     Spin     Total
       1     O     4.26234  4.26234  0.00000 -0.52469
       2     C     2.73764  2.73764  0.00000  0.52471
       3     C     3.20158  3.20158  0.00000 -0.40315
       4     C     3.28965  3.28965  0.00000 -0.57929
       5     C     3.16485  3.16485  0.00000 -0.32971
       6     H     0.40092  0.40092  0.00000  0.19816
       7     H     0.41675  0.41675  0.00000  0.16651
       8     C     3.15463  3.15463  0.00000 -0.30927
       9     H     0.40275  0.40275  0.00000  0.19450
      10     H     0.42023  0.42023  0.00000  0.15954
      11     C     3.15472  3.15472  0.00000 -0.30945
      12     H     0.41761  0.41761  0.00000  0.16479
      13     H     0.41886  0.41886  0.00000  0.16229
      14     C     3.24171  3.24171  0.00000 -0.48341
      15     H     0.42003  0.42003  0.00000  0.15993
      16     H     0.42415  0.42415  0.00000  0.15171
      17     H     0.42062  0.42062  0.00000  0.15876
      18     H     0.41823  0.41823  0.00000  0.16354
      19     H     0.41903  0.41903  0.00000  0.16194
      20     H     0.40688  0.40688  0.00000  0.18623
      21     H     0.39704  0.39704  0.00000  0.20591
      22     H     0.40978  0.40978  0.00000  0.18045

   Total alpha = 32.00000, Total beta = 32.00000, Total charge = -0.00000
