  ==> Input File <==

--------------------------------------------------------------------------
set {
	reference rhf
	basis 6-31G*
}

set_num_threads( 1 )
memory 2 gb

molecule MOL {
0 1

H	 3.893188	 0.355400	 -0.101367
N	 3.092854	 -0.246221	 -0.068770
C	 1.865559	 0.531981	 0.018834
H	 3.199514	 -0.826043	 0.741946
C	 0.645745	 -0.382037	 -0.029944
H	 1.841966	 1.207024	 -0.831236
H	 1.815756	 1.155410	 0.915079
C	 -0.679275	 0.379305	 0.025956
H	 0.698998	 -0.976915	 -0.937203
H	 0.693479	 -1.083846	 0.802235
C	 -0.561350	 1.829664	 -0.446195
H	 -1.060352	 0.365812	 1.045979
H	 -1.421272	 -0.135253	 -0.582746
C	 -1.886860	 2.587795	 -0.384791
H	 0.178487	 2.346109	 0.161375
H	 -0.183218	 1.846237	 -1.466194
H	 -2.274377	 2.618347	 0.629710
H	 -1.770698	 3.612183	 -0.724997
H	 -2.638673	 2.114845	 -1.010480

	symmetry c1
}
set optking {
	frozen_dihedral = ("
		6 3 5 9,
		12 8 11 15,
		1 2 3 6
	")
}

ee = energy('scf')
oeprop('DIPOLE', 'QUADRUPOLE', 'MULLIKEN_CHARGES')
f=open( 'psi4out.xyz', 'w' )
f.write( "19  " )
f.write( str(ee) + "\n" )
f.write( MOL.save_string_xyz() )
f.close()
--------------------------------------------------------------------------

    Molecular point group: c1

    Geometry (in Angstrom), charge = 0, multiplicity = 1:

       Center              X                  Y                   Z               Mass
    ------------   -----------------  -----------------  -----------------  -----------------
           H          3.446469197523    -0.432278125382     0.037835387044     1.007825032070
           N          2.646135197523    -1.033899125382     0.070432387044    14.003074004780
           C          1.418840197523    -0.255697125382     0.158036387044    12.000000000000
           H          2.752795197523    -1.613721125382     0.881148387044     1.007825032070
           C          0.199026197523    -1.169715125382     0.109258387044    12.000000000000
           H          1.395247197523     0.419345874618    -0.692033612956     1.007825032070
           H          1.369037197523     0.367731874618     1.054281387044     1.007825032070
           C         -1.125993802477    -0.408373125382     0.165158387044    12.000000000000
           H          0.252279197523    -1.764593125382    -0.798000612956     1.007825032070
           H          0.246760197523    -1.871524125382     0.941437387044     1.007825032070
           C         -1.008068802477     1.041985874618    -0.306992612956    12.000000000000
           H         -1.507070802477    -0.421866125382     1.185181387044     1.007825032070
           H         -1.867990802477    -0.922931125382    -0.443543612956     1.007825032070
           C         -2.333578802477     1.800116874618    -0.245588612956    12.000000000000
           H         -0.268231802477     1.558430874618     0.300577387044     1.007825032070
           H         -0.629936802477     1.058558874618    -1.326991612956     1.007825032070
           H         -2.721095802477     1.830668874618     0.768912387044     1.007825032070
           H         -2.217416802477     2.824504874618    -0.585794612956     1.007825032070
           H         -3.085391802477     1.327166874618    -0.871277612956     1.007825032070

  Charge       = 0
  Multiplicity = 1
  Basis Set: 6-31G*
  Basis Set:

    Orbital Energies (a.u.)
    -----------------------

    Doubly Occupied:

       1A    -15.531591     2A    -11.238348     3A    -11.213600
       4A    -11.211806     5A    -11.208468     6A    -11.207375
       7A     -1.176175     8A     -1.075259     9A     -0.994862
      10A     -0.897224    11A     -0.840302    12A     -0.764171
      13A     -0.665545    14A     -0.642863    15A     -0.611897
      16A     -0.593108    17A     -0.572230    18A     -0.552230
      19A     -0.520051    20A     -0.504099    21A     -0.491795
      22A     -0.460339    23A     -0.452927    24A     -0.445390
      25A     -0.379449

  @DF-RHF Final Energy:  -251.34164447400912

   => Energetics <=

    Nuclear Repulsion Energy =            252.1506014290448547
    One-Electron Energy =                -838.4823629966451790
    Two-Electron Energy =                 334.9901170935906976
    DFT Exchange-Correlation Energy =       0.0000000000000000
    Empirical Dispersion Energy =           0.0000000000000000
    PCM Polarization Energy =               0.0000000000000000
    EFP Energy =                            0.0000000000000000
    Total Energy =                       -251.3416444740096267

  Mulliken Charges: (a.u.)
   Center  Symbol    Alpha    Beta     Spin     Total
       1     H     0.33282  0.33282  0.00000  0.33437
       2     N     3.92223  3.92223  0.00000 -0.84446
       3     C     3.06629  3.06629  0.00000 -0.13258
       4     H     0.33581  0.33581  0.00000  0.32838
       5     C     3.15352  3.15352  0.00000 -0.30703
       6     H     0.41683  0.41683  0.00000  0.16634
       7     H     0.43377  0.43377  0.00000  0.13246
       8     C     3.15499  3.15499  0.00000 -0.30998
       9     H     0.41199  0.41199  0.00000  0.17602
      10     H     0.42507  0.42507  0.00000  0.14987
      11     C     3.16139  3.16139  0.00000 -0.32277
      12     H     0.42333  0.42333  0.00000  0.15334
      13     H     0.41982  0.41982  0.00000  0.16037
      14     C     3.23706  3.23706  0.00000 -0.47412
      15     H     0.41995  0.41995  0.00000  0.16010
      16     H     0.42092  0.42092  0.00000  0.15815
      17     H     0.42237  0.42237  0.00000  0.15527
      18     H     0.41998  0.41998  0.00000  0.16003
      19     H     0.42188  0.42188  0.00000  0.15625

   Total alpha = 25.00000, Total beta = 25.00000, Total charge =  0.00000
