                              Psi4 1.0.54 Driver

  ==> Input File <==

--------------------------------------------------------------------------
set {
	reference rhf
	basis cc-pvtz
}

set_num_threads( 4 )
memory 2 gb

molecule MOL {
0 1

H	 1.239401	 1.545974	 0.862723
O	 0.430849	 1.057760	 0.899560
C	 0.489979	 0.078084	 0.002623
C	 -0.763662	 -0.754014	 0.000816
O	 1.435883	 -0.090283	 -0.686456
C	 -2.038001	 0.074705	 -0.000833
H	 -0.712945	 -1.405886	 -0.864342
H	 -0.715137	 -1.405770	 0.866182
H	 -2.087267	 0.710831	 -0.874232
H	 -2.903419	 -0.576199	 -0.001922
H	 -2.089467	 0.710909	 0.872389

	symmetry c1
}
set optking {
	frozen_dihedral = ("
		2 3 4 7
	")
}

ee,wfn = optimize('scf', return_wfn=True)
oeprop( wfn, 'DIPOLE', 'QUADRUPOLE', 'MULLIKEN_CHARGES')
f=open( 'psi4out.xyz', 'w' )
f.write( "11  " )
f.write( str(ee) + "\n" )
f.write( MOL.save_string_xyz() )
f.close()
--------------------------------------------------------------------------

    Molecular point group: c1
  Charge       = 0
  Multiplicity = 1
  Basis Set: CC-PVTZ
  Basis Set:
  @DF-RHF Final Energy:  -266.95107320679756
    Total Energy =                       -266.9510732067976733
    Molecular point group: c1
  Basis Set: CC-PVTZ
  Basis Set:
  Basis Set: CC-PVTZ
  Basis Set:
  @DF-RHF Final Energy:  -266.95135700082170
    Total Energy =                       -266.9513570008217016
  Basis Set: CC-PVTZ
  Basis Set:
  Basis Set: CC-PVTZ
  Basis Set:
  @DF-RHF Final Energy:  -266.95086520113711
    Total Energy =                       -266.9508652011371623
  Basis Set: CC-PVTZ
  Basis Set:
  Basis Set: CC-PVTZ
  Basis Set:
  @DF-RHF Final Energy:  -266.95142915617407
    Total Energy =                       -266.9514291561737878
  Basis Set: CC-PVTZ
  Basis Set:
  Charge       = 0
  Multiplicity = 1
  Basis Set: CC-PVTZ
  Basis Set:

    Orbital Energies (a.u.)
    -----------------------

    Doubly Occupied:

       1A    -20.606045     2A    -20.539817     3A    -11.373938
       4A    -11.242501     5A    -11.226248     6A     -1.478881
       7A     -1.369070     8A     -1.068507     9A     -0.912318
      10A     -0.823151    11A     -0.705837    12A     -0.684871
      13A     -0.651761    14A     -0.610155    15A     -0.592722
      16A     -0.550836    17A     -0.527027    18A     -0.512409
      19A     -0.481439    20A     -0.443638

  @DF-RHF Final Energy:  -266.95143427340230

   => Energetics <=

    Nuclear Repulsion Energy =            180.4223219817521908
    One-Electron Energy =                -721.9451740949255054
    Two-Electron Energy =                 274.5714178397707883
    DFT Exchange-Correlation Energy =       0.0000000000000000
    Empirical Dispersion Energy =           0.0000000000000000
    PCM Polarization Energy =               0.0000000000000000
    EFP Energy =                            0.0000000000000000
    Total Energy =                       -266.9514342734024694
    Molecular point group: c1
  Basis Set: CC-PVTZ
  Basis Set:

  -Total Gradient:
     Atom            X                  Y                   Z
    ------   -----------------  -----------------  -----------------
       1        0.000026053631     0.000022956370     0.000004740218
       2       -0.000105556687     0.000286968375    -0.000549342577
       3        0.000012312137    -0.000464207442     0.000629638158
       4        0.000232630390    -0.000423276167     0.000261883461
       5        0.000050608237     0.000117542928     0.000034386004
       6        0.000074561683    -0.000034868126     0.000012749876
       7       -0.000291024952     0.000469635551    -0.000383106317
       8        0.000036757650    -0.000000627046    -0.000005066338
       9       -0.000007762958     0.000006252684    -0.000002955853
      10       -0.000009785814     0.000009075059     0.000004161072
      11       -0.000018793315     0.000010547813    -0.000007087704

  **** Optimization is complete! (in 5 steps) ****
    Final optimized geometry and variables:
    Molecular point group: c1

    Geometry (in Angstrom), charge = 0, multiplicity = 1:

    H            1.393907756462     1.412091409310     0.750180718240
    O            0.557079875255     0.975577010575     0.805098433022
    C            0.559042011027    -0.041364004953    -0.050989997962
    C           -0.722309941796    -0.832000464147    -0.027926601552
    O            1.493745602402    -0.283673776783    -0.734017300565
    C           -1.988553520479     0.021338643106    -0.061062800215
    H           -0.685066175546    -1.507359906754    -0.869405940245
    H           -0.703527269296    -1.430341896311     0.877548454669
    H           -2.018927540000     0.640527149582    -0.949840750493
    H           -2.861298933596    -0.619084336902    -0.072351652067
    H           -2.051807037923     0.668086703177     0.802470747313

  Mulliken Charges: (a.u.)
   Center  Symbol    Alpha    Beta     Spin     Total
       1     H     0.38039  0.38039  0.00000  0.23921
       2     O     4.16171  4.16171  0.00000 -0.32343
       3     C     2.80425  2.80425  0.00000  0.39150
       4     C     3.09105  3.09105  0.00000 -0.18211
       5     O     4.19342  4.19342  0.00000 -0.38684
       6     C     3.14595  3.14595  0.00000 -0.29189
       7     H     0.43450  0.43450  0.00000  0.13101
       8     H     0.44542  0.44542  0.00000  0.10916
       9     H     0.45044  0.45044  0.00000  0.09912
      10     H     0.44784  0.44784  0.00000  0.10433
      11     H     0.44503  0.44503  0.00000  0.10994

   Total alpha = 20.00000, Total beta = 20.00000, Total charge =  0.00000

*** Psi4 exiting successfully. Buy a developer a beer!
