  ==> Input File <==

--------------------------------------------------------------------------
set {
	reference rhf
	basis 6-31G*
}

set_num_threads( 4 )
memory 2 gb

molecule MOL {
0 1

H	 -1.814658	 -0.061844	 2.223031
C	 -1.307258	 -0.066763	 1.278612
C	 -1.944641	 0.394194	 0.079118
C	 -0.046515	 -0.507742	 1.181246
H	 -2.957122	 0.754556	 0.124582
C	 -1.289661	 0.378448	 -1.090590
H	 0.500661	 -0.869179	 2.031168
N	 0.640212	 -0.532897	 -0.000111
H	 -1.733726	 0.715012	 -2.007044
C	 0.082251	 -0.101418	 -1.196264
C	 2.010177	 -1.032049	 0.000042
O	 0.705315	 -0.131656	 -2.228292
H	 2.187698	 -1.635381	 -0.882279
H	 2.677579	 -0.189247	 -0.001871
H	 2.188882	 -1.632203	 0.884288

	symmetry c1
}
set optking {
	frozen_dihedral = ("
		10 8 11 13
	")
}

ee = optimize('scf')
oeprop('DIPOLE', 'QUADRUPOLE', 'MULLIKEN_CHARGES')
f=open( 'psi4out.xyz', 'w' )
f.write( "15  " )
f.write( str(ee) + "\n" )
f.write( MOL.save_string_xyz() )
f.close()
--------------------------------------------------------------------------

    Molecular point group: c1
  Charge       = 0
  Multiplicity = 1
  Basis Set: 6-31G*
  Basis Set:
  @DF-RHF Final Energy:  -360.59570179105322
    Total Energy =                       -360.5957017910533295
    Molecular point group: c1
  Basis Set: 6-31G*
  Basis Set:
  Basis Set: 6-31G*
  Basis Set:
  @DF-RHF Final Energy:  -360.59635614191762
    Total Energy =                       -360.5963561419176244
  Basis Set: 6-31G*
  Basis Set:
  Basis Set: 6-31G*
  Basis Set:
  @DF-RHF Final Energy:  -360.59645136467441
    Total Energy =                       -360.5964513646742944
  Basis Set: 6-31G*
  Basis Set:
  Basis Set: 6-31G*
  Basis Set:
  @DF-RHF Final Energy:  -360.59640599621167
    Total Energy =                       -360.5964059962118995
  Basis Set: 6-31G*
  Basis Set:
  Charge       = 0
  Multiplicity = 1
  Basis Set: 6-31G*
  Basis Set:

    Orbital Energies (a.u.)
    -----------------------

    Doubly Occupied:

       1A    -20.508848     2A    -15.622259     3A    -11.341927
       4A    -11.297774     5A    -11.266250     6A    -11.260377
       7A    -11.232988     8A    -11.228869     9A     -1.384992
      10A     -1.281038    11A     -1.114869    12A     -1.026212
      13A     -0.970251    14A     -0.872747    15A     -0.835684
      16A     -0.715909    17A     -0.697694    18A     -0.661270
      19A     -0.648294    20A     -0.622651    21A     -0.606542
      22A     -0.573715    23A     -0.549152    24A     -0.547244
      25A     -0.527549    26A     -0.477561    27A     -0.414097
      28A     -0.405582    29A     -0.304604

  @DF-RHF Final Energy:  -360.59646671235964

   => Energetics <=

    Nuclear Repulsion Energy =            357.8991257951688567
    One-Electron Energy =               -1198.9972884301228078
    Two-Electron Energy =                 480.5016959225944220
    DFT Exchange-Correlation Energy =       0.0000000000000000
    Empirical Dispersion Energy =           0.0000000000000000
    PCM Polarization Energy =               0.0000000000000000
    EFP Energy =                            0.0000000000000000
    Total Energy =                       -360.5964667123595291
    Molecular point group: c1
  Basis Set: 6-31G*
  Basis Set:

  -Total Gradient:
     Atom            X                  Y                   Z
    ------   -----------------  -----------------  -----------------
       1       -0.000003364812    -0.000003880069     0.000000266567
       2        0.000188446718    -0.000047961172     0.000029982129
       3       -0.000048580098     0.000045394680    -0.000172290118
       4       -0.000219447060     0.000000343739     0.000212886329
       5        0.000006560919     0.000000655986     0.000003075971
       6       -0.000157406740     0.000042373510     0.000079869671
       7        0.000013986492     0.000016716786    -0.000021134771
       8        0.000433834649     0.001153993540    -0.000169505541
       9        0.000011750518     0.000003970109    -0.000016876267
      10       -0.000026930578    -0.000797540720     0.000058367073
      11       -0.000414217738    -0.001216280324     0.000425449462
      12       -0.000049988301     0.000052208431    -0.000058794085
      13        0.000237330449     0.000730743943    -0.000377018330
      14        0.000015305594     0.000027851808    -0.000005267414
      15        0.000012719986    -0.000008590247     0.000010989326

  **** Optimization is complete! (in 5 steps) ****
    Final optimized geometry and variables:
    Molecular point group: c1

    Geometry (in Angstrom), charge = 0, multiplicity = 1:

    H           -1.751419434615     0.171679230780     2.492299846976
    C           -1.238506141631     0.159382255378     1.551006942263
    C           -1.869776002987     0.610268881156     0.345286265916
    C            0.022145521331    -0.287413453962     1.465841213477
    H           -2.882791397097     0.969849920677     0.383861112188
    C           -1.209644604246     0.586296621210    -0.822163115062
    H            0.560615879021    -0.644112145258     2.322344196617
    N            0.710751117308    -0.324994403606     0.287193099106
    H           -1.648506906497     0.916744623314    -1.743484587600
    C            0.164445187925     0.113509900147    -0.910036055844
    C            2.085504099055    -0.808073693640     0.251601215634
    O            0.813989978722     0.090438730702    -1.926032916534
    H            2.236333259403    -1.386060994822    -0.645040281130
    H            2.781966329489     0.021426931806     0.242147868691
    H            2.269136064313    -1.422072572297     1.121918036315

  Mulliken Charges: (a.u.)
   Center  Symbol    Alpha    Beta     Spin     Total
       1     H     0.39305  0.39305  0.00000  0.21390
       2     C     3.16225  3.16225  0.00000 -0.32450
       3     C     3.05825  3.05825  0.00000 -0.11649
       4     C     2.92149  2.92149  0.00000  0.15702
       5     H     0.39089  0.39089  0.00000  0.21821
       6     C     3.16966  3.16966  0.00000 -0.33933
       7     H     0.38763  0.38763  0.00000  0.22474
       8     N     3.86382  3.86382  0.00000 -0.72765
       9     H     0.38645  0.38645  0.00000  0.22710
      10     C     2.59631  2.59631  0.00000  0.80737
      11     C     3.14252  3.14252  0.00000 -0.28504
      12     O     4.32171  4.32171  0.00000 -0.64342
      13     H     0.38720  0.38720  0.00000  0.22559
      14     H     0.40364  0.40364  0.00000  0.19272
      15     H     0.41512  0.41512  0.00000  0.16976

   Total alpha = 29.00000, Total beta = 29.00000, Total charge =  0.00000
