  ==> Input File <==

--------------------------------------------------------------------------
set {
	reference rhf
	basis 6-31G*
}

set_num_threads( 4 )
memory 2 gb

molecule MOL {
0 1

H	 -2.698709	 -0.000305	 0.034435
C	 -1.693833	 0.000034	 0.434417
O	 -0.828952	 -0.000968	 -0.659236
H	 -1.574200	 0.882896	 1.055746
H	 -1.574147	 -0.881698	 1.057355
C	 0.212863	 -0.948551	 -0.694031
C	 1.220106	 -0.752731	 0.437354
C	 -0.303613	 -2.384000	 -0.769508
H	 0.715815	 -0.727418	 -1.627932
H	 1.526172	 0.286400	 0.492862
H	 2.102642	 -1.358534	 0.257443
H	 0.816287	 -1.043407	 1.402031
H	 -1.052684	 -2.473795	 -1.548793
H	 0.512894	 -3.060371	 -1.002542
H	 -0.742000	 -2.712856	 0.167248

	symmetry c1
}
set optking {
	frozen_dihedral = ("
		6 3 2 1
	")
}

ee = optimize('scf')
oeprop('DIPOLE', 'QUADRUPOLE', 'MULLIKEN_CHARGES')
f=open( 'psi4out.xyz', 'w' )
f.write( "15  " )
f.write( str(ee) + "\n" )
f.write( MOL.save_string_xyz() )
f.close()
--------------------------------------------------------------------------

    Molecular point group: c1
  Charge       = 0
  Multiplicity = 1
  Basis Set: 6-31G*
  Basis Set:
  @DF-RHF Final Energy:  -232.13498070143453
    Total Energy =                       -232.1349807014345856
    Molecular point group: c1
  Basis Set: 6-31G*
  Basis Set:
  Basis Set: 6-31G*
  Basis Set:
  @DF-RHF Final Energy:  -232.13505065999712
    Total Energy =                       -232.1350506599970345
  Basis Set: 6-31G*
  Basis Set:
  Basis Set: 6-31G*
  Basis Set:
  @DF-RHF Final Energy:  -232.13547479416403
    Total Energy =                       -232.1354747941643382
  Basis Set: 6-31G*
  Basis Set:
  Basis Set: 6-31G*
  Basis Set:
  @DF-RHF Final Energy:  -232.13551325815200
    Total Energy =                       -232.1355132581520024
  Basis Set: 6-31G*
  Basis Set:
  Basis Set: 6-31G*
  Basis Set:
  @DF-RHF Final Energy:  -232.13552649539670
    Total Energy =                       -232.1355264953966753
  Basis Set: 6-31G*
  Basis Set:
  Basis Set: 6-31G*
  Basis Set:
  @DF-RHF Final Energy:  -232.13553034487873
    Total Energy =                       -232.1355303448788163
  Basis Set: 6-31G*
  Basis Set:
  Charge       = 0
  Multiplicity = 1
  Basis Set: 6-31G*
  Basis Set:

    Orbital Energies (a.u.)
    -----------------------

    Doubly Occupied:

       1A    -20.545888     2A    -11.274967     3A    -11.261474
       4A    -11.210702     5A    -11.210217     6A     -1.367969
       7A     -1.049937     8A     -0.939807     9A     -0.931433
      10A     -0.781609    11A     -0.675537    12A     -0.638559
      13A     -0.631959    14A     -0.569070    15A     -0.563746
      16A     -0.552219    17A     -0.538417    18A     -0.500604
      19A     -0.497935    20A     -0.441656    21A     -0.403098

  @DF-RHF Final Energy:  -232.13553050758611

   => Energetics <=

    Nuclear Repulsion Energy =            198.6221224837078694
    One-Electron Energy =                -708.3416998612326552
    Two-Electron Energy =                 277.5840468699386747
    DFT Exchange-Correlation Energy =       0.0000000000000000
    Empirical Dispersion Energy =           0.0000000000000000
    PCM Polarization Energy =               0.0000000000000000
    EFP Energy =                            0.0000000000000000
    Total Energy =                       -232.1355305075861111
    Molecular point group: c1
  Basis Set: 6-31G*
  Basis Set:

  -Total Gradient:
     Atom            X                  Y                   Z
    ------   -----------------  -----------------  -----------------
       1       -0.000012167339    -0.001111135610     0.000069138882
       2       -0.000348333863     0.001081904506    -0.000302894481
       3        0.000853098096     0.000691812458     0.000632454126
       4        0.000020226369    -0.000008137398    -0.000003161809
       5       -0.000000610833     0.000020213148    -0.000002122321
       6       -0.000600728972    -0.000625309853    -0.000344595798
       7        0.000035998874    -0.000008257346    -0.000021420954
       8        0.000041754571    -0.000024922832    -0.000029411874
       9        0.000006260291    -0.000007918833     0.000011689852
      10        0.000001971555     0.000003877768     0.000002799032
      11        0.000003482720     0.000007082560     0.000003724162
      12        0.000003541957    -0.000005293802    -0.000009674222
      13       -0.000005865132    -0.000002032856     0.000007765453
      14       -0.000008685166    -0.000021769493    -0.000006693434
      15        0.000010056872     0.000009887582    -0.000007596614

  **** Optimization is complete! (in 7 steps) ****
    Final optimized geometry and variables:
    Molecular point group: c1

    Geometry (in Angstrom), charge = 0, multiplicity = 1:

    H           -2.419577647972     0.800318338224     0.339636121216
    C           -1.392636875589     0.821536317000     0.685845982781
    O           -0.543356587417     0.796047618800    -0.424758473463
    H           -1.234229381203     1.730588282856     1.257226363358
    H           -1.249291758744    -0.023613188119     1.348658408496
    C            0.511339794784    -0.136152097534    -0.462448951492
    C            1.507867150056     0.068360270577     0.676554776662
    C            0.008058844012    -1.574991834560    -0.557962469225
    H            1.016976337529     0.098660868274    -1.391431946997
    H            1.830306453075     1.103384725941     0.709594339523
    H            2.382959094903    -0.556828680165     0.528407618749
    H            1.082503620940    -0.187010433541     1.642161927466
    H           -0.706830151708    -1.666059019930    -1.368280242849
    H            0.835552419448    -2.249733810119    -0.754913053708
    H           -0.471323387749    -1.905109033189     0.358157210378

  Mulliken Charges: (a.u.)
   Center  Symbol    Alpha    Beta     Spin     Total
       1     H     0.41838  0.41838  0.00000  0.16325
       2     C     3.07882  3.07882  0.00000 -0.15764
       3     O     4.31533  4.31533  0.00000 -0.63065
       4     H     0.42241  0.42241  0.00000  0.15517
       5     H     0.42991  0.42991  0.00000  0.14018
       6     C     2.90997  2.90997  0.00000  0.18006
       7     C     3.25176  3.25176  0.00000 -0.50353
       8     C     3.25053  3.25053  0.00000 -0.50106
       9     H     0.41549  0.41549  0.00000  0.16903
      10     H     0.41171  0.41171  0.00000  0.17657
      11     H     0.41968  0.41968  0.00000  0.16064
      12     H     0.42202  0.42202  0.00000  0.15597
      13     H     0.41154  0.41154  0.00000  0.17692
      14     H     0.42030  0.42030  0.00000  0.15939
      15     H     0.42214  0.42214  0.00000  0.15572

   Total alpha = 21.00000, Total beta = 21.00000, Total charge =  0.00000
