  ==> Input File <==

--------------------------------------------------------------------------
set {
	reference rhf
	basis cc-pvtz
}

set_num_threads( 4 )
memory 2 gb

molecule MOL {
0 1

H	 -2.816458	 -0.841657	 -0.064679
N	 -1.878861	 -0.711874	 0.250184
C	 -1.341419	 0.551458	 -0.220231
H	 -1.333674	 -1.468530	 -0.105118
C	 0.082190	 0.731516	 0.254705
H	 -1.357065	 0.652078	 -1.304747
H	 -1.939897	 1.357530	 0.189797
O	 0.524915	 2.000614	 -0.120917
H	 0.126712	 0.625212	 1.337705
H	 0.715085	 -0.033519	 -0.189247
C	 1.850185	 2.266456	 0.198782
H	 2.077767	 3.268911	 -0.133898
H	 2.019901	 2.207774	 1.271838
H	 2.525591	 1.571526	 -0.294636

	symmetry c1
}
set optking {
	frozen_dihedral = ("
		8 5 3 6
	")
}

ee = optimize('scf')
oeprop('DIPOLE', 'QUADRUPOLE', 'MULLIKEN_CHARGES')
f=open( 'psi4out.xyz', 'w' )
f.write( "14  " )
f.write( str(ee) + "\n" )
f.write( MOL.save_string_xyz() )
f.close()
--------------------------------------------------------------------------

    Molecular point group: c1
  Charge       = 0
  Multiplicity = 1
  Basis Set: CC-PVTZ
  Basis Set:
  @DF-RHF Final Energy:  -248.22411193305530
    Total Energy =                       -248.2241119330552124
    Molecular point group: c1
  Basis Set: CC-PVTZ
  Basis Set:
  Basis Set: CC-PVTZ
  Basis Set:
  @DF-RHF Final Energy:  -248.22443294790219
    Total Energy =                       -248.2244329479023008
  Basis Set: CC-PVTZ
  Basis Set:
  Basis Set: CC-PVTZ
  Basis Set:
  @DF-RHF Final Energy:  -248.22450430543410
    Total Energy =                       -248.2245043054343228
  Basis Set: CC-PVTZ
  Basis Set:
  Basis Set: CC-PVTZ
  Basis Set:
  @DF-RHF Final Energy:  -248.22451639554754
    Total Energy =                       -248.2245163955477665
  Basis Set: CC-PVTZ
  Basis Set:
  Basis Set: CC-PVTZ
  Basis Set:
  @DF-RHF Final Energy:  -248.22452462210177
    Total Energy =                       -248.2245246221015691
  Basis Set: CC-PVTZ
  Basis Set:
  Basis Set: CC-PVTZ
  Basis Set:
  @DF-RHF Final Energy:  -248.22453065177950
    Total Energy =                       -248.2245306517795598
  Basis Set: CC-PVTZ
  Basis Set:
  Charge       = 0
  Multiplicity = 1
  Basis Set: CC-PVTZ
  Basis Set:

    Orbital Energies (a.u.)
    -----------------------

    Doubly Occupied:

       1A    -20.548542     2A    -15.532261     3A    -11.262153
       4A    -11.262046     5A    -11.239835     6A     -1.382930
       7A     -1.182437     8A     -1.000254     9A     -0.900145
      10A     -0.823259    11A     -0.686248    12A     -0.669564
      13A     -0.650931    14A     -0.623428    15A     -0.596035
      16A     -0.561234    17A     -0.516884    18A     -0.498889
      19A     -0.470852    20A     -0.417371    21A     -0.390606

  @DF-RHF Final Energy:  -248.22453660083002

   => Energetics <=

    Nuclear Repulsion Energy =            191.0814002770950140
    One-Electron Energy =                -716.1800668367811795
    Two-Electron Energy =                 276.8741299588561446
    DFT Exchange-Correlation Energy =       0.0000000000000000
    Empirical Dispersion Energy =           0.0000000000000000
    PCM Polarization Energy =               0.0000000000000000
    EFP Energy =                            0.0000000000000000
    Total Energy =                       -248.2245366008300493
    Molecular point group: c1
  Basis Set: CC-PVTZ
  Basis Set:

  -Total Gradient:
     Atom            X                  Y                   Z
    ------   -----------------  -----------------  -----------------
       1        0.000000979378     0.000005062528    -0.000007232419
       2        0.000000232099    -0.000000953812     0.000015796997
       3       -0.000396611922     0.001967307374     0.000449742489
       4        0.000003744475     0.000000240060     0.000000237169
       5        0.000538839646    -0.000932052907    -0.001321495931
       6        0.000234012454    -0.001474203683    -0.000132733110
       7        0.000001467175    -0.000017755543     0.000006707695
       8       -0.000387343314     0.000451446487     0.001000951806
       9       -0.000002713317    -0.000002080928    -0.000010812034
      10        0.000000509215     0.000001737429    -0.000001848246
      11        0.000009541621     0.000000478565    -0.000001660789
      12       -0.000000280251     0.000000218931     0.000000525727
      13       -0.000001162634     0.000000152845     0.000001062806
      14       -0.000001214623     0.000000402656     0.000000757841

  **** Optimization is complete! (in 7 steps) ****
    Final optimized geometry and variables:
    Molecular point group: c1

    Geometry (in Angstrom), charge = 0, multiplicity = 1:

    H           -2.701883392750    -1.740096792620     0.050687000588
    N           -1.716982525264    -1.680249812211     0.193998095497
    C           -1.195949978156    -0.413024545844    -0.293280507114
    H           -1.303463507056    -2.450219221780    -0.288759152577
    C            0.233021359891    -0.229376367998     0.174714129291
    H           -1.225583154814    -0.324749130844    -1.377362784870
    H           -1.796383719912     0.389133990299     0.115862259557
    O            0.672496681659     1.032641291034    -0.215288906755
    H            0.273543499370    -0.334688523476     1.256104791939
    H            0.872063314250    -1.002878757030    -0.253528602303
    C            1.977108400580     1.328095232476     0.157143071818
    H            2.203758506272     2.325662508962    -0.190344971033
    H            2.099541609422     1.297338357407     1.237571517147
    H            2.686088176622     0.633265558873    -0.288242453746

  Mulliken Charges: (a.u.)
   Center  Symbol    Alpha    Beta     Spin     Total
       1     H     0.42738  0.42738  0.00000  0.14523
       2     N     3.69377  3.69377  0.00000 -0.38753
       3     C     3.03147  3.03147  0.00000 -0.06294
       4     H     0.43024  0.43024  0.00000  0.13951
       5     C     2.95635  2.95635  0.00000  0.08731
       6     H     0.46348  0.46348  0.00000  0.07304
       7     H     0.45294  0.45294  0.00000  0.09412
       8     O     4.17356  4.17356  0.00000 -0.34711
       9     H     0.46931  0.46931  0.00000  0.06139
      10     H     0.47928  0.47928  0.00000  0.04144
      11     C     3.03227  3.03227  0.00000 -0.06453
      12     H     0.44718  0.44718  0.00000  0.10564
      13     H     0.47088  0.47088  0.00000  0.05824
      14     H     0.47191  0.47191  0.00000  0.05619

   Total alpha = 21.00000, Total beta = 21.00000, Total charge = -0.00000
