  ==> Input File <==

--------------------------------------------------------------------------
set {
	reference rhf
	basis 6-31G*
}

set_num_threads( 4 )
memory 2 gb

molecule MOL {
0 1

O	 -1.276010	 1.052711	 -0.768302
C	 -1.204840	 0.067374	 -0.106123
C	 -2.388195	 -0.672128	 0.458071
O	 -0.067104	 -0.527208	 0.221609
H	 -2.388023	 -1.694060	 0.097175
H	 -3.300579	 -0.174919	 0.164318
H	 -2.315377	 -0.706351	 1.539059
C	 1.170111	 0.034140	 -0.238951
C	 2.261382	 -0.896527	 0.259620
C	 1.315121	 1.455290	 0.282535
H	 1.149443	 0.041533	 -1.318778
H	 2.112122	 -1.900400	 -0.121441
H	 3.232834	 -0.544874	 -0.071973
H	 2.263471	 -0.939040	 1.343521
H	 2.260225	 1.877769	 -0.043509
H	 0.517304	 2.084582	 -0.090904
H	 1.292464	 1.465145	 1.367615

	symmetry c1
}
set optking {
	frozen_dihedral = ("
		11 8 4 2
	")
}

ee = optimize('scf')
oeprop('DIPOLE', 'QUADRUPOLE', 'MULLIKEN_CHARGES')
f=open( 'psi4out.xyz', 'w' )
f.write( "17  " )
f.write( str(ee) + "\n" )
f.write( MOL.save_string_xyz() )
f.close()
--------------------------------------------------------------------------

    Molecular point group: c1
  Charge       = 0
  Multiplicity = 1
  Basis Set: 6-31G*
  Basis Set:
  @DF-RHF Final Energy:  -344.91043827126748
    Total Energy =                       -344.9104382712674237
    Molecular point group: c1
  Basis Set: 6-31G*
  Basis Set:
  Basis Set: 6-31G*
  Basis Set:
  @DF-RHF Final Energy:  -344.91251636159177
    Total Energy =                       -344.9125163615913721
  Basis Set: 6-31G*
  Basis Set:
  Basis Set: 6-31G*
  Basis Set:
  @DF-RHF Final Energy:  -344.91268745111199
    Total Energy =                       -344.9126874511118785
  Basis Set: 6-31G*
  Basis Set:
  Basis Set: 6-31G*
  Basis Set:
  @DF-RHF Final Energy:  -344.91201922374370
    Total Energy =                       -344.9120192237436981
  Basis Set: 6-31G*
  Basis Set:
  Basis Set: 6-31G*
  Basis Set:
  @DF-RHF Final Energy:  -344.91273197783192
    Total Energy =                       -344.9127319778315268
  Basis Set: 6-31G*
  Basis Set:
  Basis Set: 6-31G*
  Basis Set:
  @DF-RHF Final Energy:  -344.91273371583191
    Total Energy =                       -344.9127337158321325
  Basis Set: 6-31G*
  Basis Set:
  Charge       = 0
  Multiplicity = 1
  Basis Set: 6-31G*
  Basis Set:

    Orbital Energies (a.u.)
    -----------------------

    Doubly Occupied:

       1A    -20.598780     2A    -20.542841     3A    -11.374531
       4A    -11.292557     5A    -11.232069     6A    -11.218989
       7A    -11.213862     8A     -1.464626     9A     -1.361730
      10A     -1.078796    11A     -1.004741    12A     -0.946957
      13A     -0.851084    14A     -0.759388    15A     -0.691498
      16A     -0.674313    17A     -0.658076    18A     -0.615121
      19A     -0.585279    20A     -0.578355    21A     -0.556242
      22A     -0.549622    23A     -0.539601    24A     -0.519100
      25A     -0.501170    26A     -0.483241    27A     -0.448085
      28A     -0.433369

  @DF-RHF Final Energy:  -344.91273401705178

   => Energetics <=

    Nuclear Repulsion Energy =            323.7626879121648926
    One-Electron Energy =               -1111.8027935610848544
    Two-Electron Energy =                 443.1273716318681295
    DFT Exchange-Correlation Energy =       0.0000000000000000
    Empirical Dispersion Energy =           0.0000000000000000
    PCM Polarization Energy =               0.0000000000000000
    EFP Energy =                            0.0000000000000000
    Total Energy =                       -344.9127340170518323
    Molecular point group: c1
  Basis Set: 6-31G*
  Basis Set:

  -Total Gradient:
     Atom            X                  Y                   Z
    ------   -----------------  -----------------  -----------------
       1        0.000000964656    -0.000026691158    -0.000003460273
       2        0.000078460918     0.002442390794     0.003636494106
       3        0.000006771307     0.000035681893     0.000042836358
       4        0.000379533812    -0.004551825791    -0.005333655924
       5       -0.000006078928    -0.000008373544    -0.000021052915
       6        0.000000508878    -0.000002967630    -0.000008703964
       7        0.000008034810    -0.000019332922    -0.000013353903
       8       -0.002525376920     0.006516435994     0.001724102424
       9       -0.000018607420    -0.000020348072    -0.000002243042
      10        0.000011983267     0.000018753363     0.000005355089
      11        0.002091313333    -0.004391113576    -0.000018063925
      12        0.000002679444    -0.000003610125    -0.000000538859
      13       -0.000005878182     0.000006887660    -0.000002253142
      14       -0.000003626209     0.000002594908    -0.000004715229
      15       -0.000015155055     0.000002409457    -0.000000660474
      16       -0.000001937459    -0.000000175548     0.000003067633
      17       -0.000003590250    -0.000000715704    -0.000003153959

  **** Optimization is complete! (in 7 steps) ****
    Final optimized geometry and variables:
    Molecular point group: c1

    Geometry (in Angstrom), charge = 0, multiplicity = 1:

    O           -1.299456667133     0.880963566870    -0.909166462043
    C           -1.190528764815    -0.036446988068    -0.160755359217
    C           -2.345123952620    -0.745890028237     0.495345450957
    O           -0.034852516351    -0.582739729096     0.186957580875
    H           -2.325103796286    -1.797548601924     0.234064229674
    H           -3.274622847244    -0.301192961460     0.172475536440
    H           -2.253477207795    -0.674041950019     1.573053594125
    C            1.201955292140     0.012406604935    -0.231986914425
    C            2.276090892532    -0.949771125072     0.252065959836
    C            1.387768992503     1.410732762400     0.336977123369
    H            1.211379795680     0.022222828209    -1.314307270916
    H            2.105827353442    -1.943358739859    -0.146199092606
    H            3.254633936503    -0.612370991034    -0.072991468690
    H            2.275438584759    -1.011236125746     1.335071599814
    H            2.371650799277     1.780736751482     0.066823817276
    H            0.648098977802     2.099715982504    -0.042048342278
    H            1.324612900464     1.382883347808     1.420722901620

  Mulliken Charges: (a.u.)
   Center  Symbol    Alpha    Beta     Spin     Total
       1     O     4.28538  4.28538  0.00000 -0.57076
       2     C     2.61566  2.61566  0.00000  0.76868
       3     C     3.28114  3.28114  0.00000 -0.56228
       4     O     4.31644  4.31644  0.00000 -0.63288
       5     H     0.40049  0.40049  0.00000  0.19902
       6     H     0.39750  0.39750  0.00000  0.20501
       7     H     0.40152  0.40152  0.00000  0.19696
       8     C     2.91963  2.91963  0.00000  0.16074
       9     C     3.24276  3.24276  0.00000 -0.48553
      10     C     3.25974  3.25974  0.00000 -0.51947
      11     H     0.40836  0.40836  0.00000  0.18329
      12     H     0.41121  0.41121  0.00000  0.17757
      13     H     0.41793  0.41793  0.00000  0.16413
      14     H     0.41455  0.41455  0.00000  0.17090
      15     H     0.41769  0.41769  0.00000  0.16463
      16     H     0.39193  0.39193  0.00000  0.21614
      17     H     0.41808  0.41808  0.00000  0.16384

   Total alpha = 28.00000, Total beta = 28.00000, Total charge = -0.00000
