  ==> Input File <==

--------------------------------------------------------------------------
set {
	reference rhf
	basis 6-31G*
}

set_num_threads( 4 )
memory 2 gb

molecule MOL {
0 1

H	 -3.197807	 0.428630	 -2.087725
C	 -2.510907	 -0.249780	 -1.620190
C	 -2.076860	 -0.007332	 -0.404944
H	 -2.194711	 -1.118140	 -2.166892
O	 -1.180634	 -0.819263	 0.215062
H	 -2.386836	 0.852653	 0.162097
C	 0.051604	 -1.018856	 -0.387932
C	 1.043764	 0.054862	 -0.001873
H	 -0.017620	 -1.041351	 -1.469781
H	 0.437898	 -1.966374	 -0.042284
F	 2.212596	 -0.199467	 -0.571921
F	 0.652529	 1.252447	 -0.405055
F	 1.230877	 0.110694	 1.300533

	symmetry c1
}
set optking {
	frozen_dihedral = ("
		6 3 5 7
	")
}

ee = optimize('scf')
oeprop('DIPOLE', 'QUADRUPOLE', 'MULLIKEN_CHARGES')
f=open( 'psi4out.xyz', 'w' )
f.write( "13  " )
f.write( str(ee) + "\n" )
f.write( MOL.save_string_xyz() )
f.close()
--------------------------------------------------------------------------

    Molecular point group: c1
  Charge       = 0
  Multiplicity = 1
  Basis Set: 6-31G*
  Basis Set:
  @DF-RHF Final Energy:  -527.53127848972110
    Total Energy =                       -527.5312784897212168
    Molecular point group: c1
  Basis Set: 6-31G*
  Basis Set:
  Basis Set: 6-31G*
  Basis Set:
  @DF-RHF Final Energy:  -527.53198008961681
    Total Energy =                       -527.5319800896166953
  Basis Set: 6-31G*
  Basis Set:
  Basis Set: 6-31G*
  Basis Set:
  @DF-RHF Final Energy:  -527.53256068426265
    Total Energy =                       -527.5325606842624211
  Basis Set: 6-31G*
  Basis Set:
  Basis Set: 6-31G*
  Basis Set:
  @DF-RHF Final Energy:  -527.53260917134958
    Total Energy =                       -527.5326091713494634
  Basis Set: 6-31G*
  Basis Set:
  Basis Set: 6-31G*
  Basis Set:
  @DF-RHF Final Energy:  -527.53261961400540
    Total Energy =                       -527.5326196140059665
  Basis Set: 6-31G*
  Basis Set:
  Basis Set: 6-31G*
  Basis Set:
  @DF-RHF Final Energy:  -527.53262346129520
    Total Energy =                       -527.5326234612950884
  Basis Set: 6-31G*
  Basis Set:
  Basis Set: 6-31G*
  Basis Set:
  @DF-RHF Final Energy:  -527.53262574786004
    Total Energy =                       -527.5326257478601519
  Basis Set: 6-31G*
  Basis Set:
  Charge       = 0
  Multiplicity = 1
  Basis Set: 6-31G*
  Basis Set:

    Orbital Energies (a.u.)
    -----------------------

    Doubly Occupied:

       1A    -26.341598     2A    -26.340090     3A    -26.337458
       4A    -20.600535     5A    -11.499439     6A    -11.314386
       7A    -11.299834     8A    -11.228308     9A     -1.738328
      10A     -1.636710    11A     -1.634671    12A     -1.428934
      13A     -1.079038    14A     -1.021124    15A     -0.927199
      16A     -0.834923    17A     -0.827997    18A     -0.825237
      19A     -0.764679    20A     -0.719655    21A     -0.711208
      22A     -0.699960    23A     -0.671830    24A     -0.657981
      25A     -0.654128    26A     -0.644708    27A     -0.639998
      28A     -0.590197    29A     -0.559395    30A     -0.532105
      31A     -0.477793    32A     -0.370556

  @DF-RHF Final Energy:  -527.53262652461331

   => Energetics <=

    Nuclear Repulsion Energy =            414.4376351166903873
    One-Electron Energy =               -1552.7205157288458395
    Two-Electron Energy =                 610.7502540875420891
    DFT Exchange-Correlation Energy =       0.0000000000000000
    Empirical Dispersion Energy =           0.0000000000000000
    PCM Polarization Energy =               0.0000000000000000
    EFP Energy =                            0.0000000000000000
    Total Energy =                       -527.5326265246133062
    Molecular point group: c1
  Basis Set: 6-31G*
  Basis Set:

  -Total Gradient:
     Atom            X                  Y                   Z
    ------   -----------------  -----------------  -----------------
       1        0.000005427751    -0.000003152933     0.000000749209
       2       -0.000026414258     0.000022259181    -0.000015709766
       3       -0.000247117329    -0.000165673569     0.000328560227
       4        0.000007371423    -0.000006313459     0.000005814255
       5       -0.000162348438    -0.000264446018    -0.000255149900
       6        0.000268260112     0.000195039128    -0.000170693292
       7        0.000161415411     0.000232304534     0.000102856922
       8        0.000032590457     0.000003298593     0.000000871045
       9        0.000001904593     0.000005128206     0.000004045068
      10        0.000005956760     0.000013724693     0.000002132337
      11        0.000004483842    -0.000008464916    -0.000015433030
      12       -0.000027485139    -0.000026005378     0.000005338598
      13       -0.000024045187     0.000002301934     0.000006618328

  **** Optimization is complete! (in 8 steps) ****
    Final optimized geometry and variables:
    Molecular point group: c1

    Geometry (in Angstrom), charge = 0, multiplicity = 1:

    H           -3.445205115193     0.415209772523    -1.906505410203
    C           -2.714547380286    -0.231090126997    -1.459275530765
    C           -2.175683781516     0.090207202598    -0.304525819271
    H           -2.453077860458    -1.130171877781    -1.987662457319
    O           -1.256282413450    -0.665985367575     0.364696286995
    H           -2.451365947044     0.975542019076     0.237466602912
    C           -0.021209525785    -0.915337870633    -0.226412725196
    C            0.992954344792     0.110584132212     0.223397931934
    H           -0.069562722388    -0.894453302767    -1.306211260844
    H            0.320111349585    -1.887547871724     0.098431432161
    F            2.161141585187    -0.134579692459    -0.351921224680
    F            0.627773011637     1.337047210734    -0.110359809039
    F            1.173441669764     0.089281594514     1.529268260059

  Mulliken Charges: (a.u.)
   Center  Symbol    Alpha    Beta     Spin     Total
       1     H     0.40337  0.40337  0.00000  0.19326
       2     C     3.22500  3.22500  0.00000 -0.44999
       3     C     2.90601  2.90601  0.00000  0.18798
       4     H     0.40678  0.40678  0.00000  0.18645
       5     O     4.31108  4.31108  0.00000 -0.62216
       6     H     0.39949  0.39949  0.00000  0.20101
       7     C     3.05442  3.05442  0.00000 -0.10883
       8     C     2.45606  2.45606  0.00000  1.08789
       9     H     0.40316  0.40316  0.00000  0.19368
      10     H     0.39490  0.39490  0.00000  0.21020
      11     F     4.68333  4.68333  0.00000 -0.36666
      12     F     4.67984  4.67984  0.00000 -0.35968
      13     F     4.67657  4.67657  0.00000 -0.35314

   Total alpha = 32.00000, Total beta = 32.00000, Total charge =  0.00000
