  ==> Input File <==

--------------------------------------------------------------------------
set {
	reference rhf
	basis 6-31G*
}

set_num_threads( 4 )
memory 2 gb

molecule MOL {
0 1

H	 2.257630	 1.834031	 -1.153331
N	 1.449140	 1.245334	 -1.210713
C	 1.267428	 0.496480	 0.024474
H	 1.599519	 0.621359	 -1.980749
C	 -0.016086	 -0.325158	 -0.029487
H	 1.200461	 1.212940	 0.837637
H	 2.109120	 -0.161270	 0.255341
C	 -1.282277	 0.529072	 0.046735
H	 -0.012495	 -0.908639	 -0.945788
H	 -0.015903	 -1.041248	 0.791956
C	 -2.563920	 -0.301775	 -0.006060
H	 -1.284084	 1.244622	 -0.773004
H	 -1.271387	 1.115393	 0.963286
H	 -2.621848	 -0.873522	 -0.927727
H	 -3.445135	 0.329952	 0.047812
H	 -2.609542	 -1.004582	 0.821105

	symmetry c1
}
set optking {
	frozen_dihedral = ("
		6 3 5 9
	")
}

ee = optimize('scf')
oeprop('DIPOLE', 'QUADRUPOLE', 'MULLIKEN_CHARGES')
f=open( 'psi4out.xyz', 'w' )
f.write( "16  " )
f.write( str(ee) + "\n" )
f.write( MOL.save_string_xyz() )
f.close()
--------------------------------------------------------------------------

    Molecular point group: c1
  Charge       = 0
  Multiplicity = 1
  Basis Set: 6-31G*
  Basis Set:
  @DF-RHF Final Energy:  -212.31639958977192
    Total Energy =                       -212.3163995897719474
    Molecular point group: c1
  Basis Set: 6-31G*
  Basis Set:
  Basis Set: 6-31G*
  Basis Set:
  @DF-RHF Final Energy:  -212.31653378226787
    Total Energy =                       -212.3165337822678680
  Basis Set: 6-31G*
  Basis Set:
  Basis Set: 6-31G*
  Basis Set:
  @DF-RHF Final Energy:  -212.31657535220353
    Total Energy =                       -212.3165753522034720
  Basis Set: 6-31G*
  Basis Set:
  Basis Set: 6-31G*
  Basis Set:
  @DF-RHF Final Energy:  -212.31657790674521
    Total Energy =                       -212.3165779067452945
  Basis Set: 6-31G*
  Basis Set:
  Basis Set: 6-31G*
  Basis Set:
  @DF-RHF Final Energy:  -212.31657968086327
    Total Energy =                       -212.3165796808634695
  Basis Set: 6-31G*
  Basis Set:
  Charge       = 0
  Multiplicity = 1
  Basis Set: 6-31G*
  Basis Set:

    Orbital Energies (a.u.)
    -----------------------

    Doubly Occupied:

       1A    -15.533489     2A    -11.240683     3A    -11.210219
       4A    -11.204842     5A    -11.202711     6A     -1.177441
       7A     -1.052529     8A     -0.957115     9A     -0.844979
      10A     -0.783709    11A     -0.664814    12A     -0.630836
      13A     -0.605608    14A     -0.573896    15A     -0.562746
      16A     -0.516536    17A     -0.500707    18A     -0.466408
      19A     -0.461635    20A     -0.459495    21A     -0.379601

  @DF-RHF Final Energy:  -212.31657973450604

   => Energetics <=

    Nuclear Repulsion Energy =            188.7182888188635275
    One-Electron Energy =                -660.0097356796736676
    Two-Electron Energy =                 258.9748671263040478
    DFT Exchange-Correlation Energy =       0.0000000000000000
    Empirical Dispersion Energy =           0.0000000000000000
    PCM Polarization Energy =               0.0000000000000000
    EFP Energy =                            0.0000000000000000
    Total Energy =                       -212.3165797345060923
    Molecular point group: c1
  Basis Set: 6-31G*
  Basis Set:

  -Total Gradient:
     Atom            X                  Y                   Z
    ------   -----------------  -----------------  -----------------
       1        0.000002375072    -0.000000501497    -0.000000183083
       2        0.000005196235    -0.000011022688     0.000007674593
       3        0.000605571372    -0.000977630458     0.001019338271
       4        0.000000496522     0.000000769455    -0.000003520521
       5        0.000714157270    -0.001155320599     0.000653595313
       6       -0.000621152520     0.001018357088    -0.000954408206
       7        0.000005236552     0.000005474158    -0.000005457805
       8        0.000008656179    -0.000012304594     0.000007337002
       9       -0.000713840918     0.001136972701    -0.000719880213
      10       -0.000005602803    -0.000002789924     0.000002313540
      11       -0.000006256633    -0.000004847516    -0.000000136848
      12        0.000002771143     0.000011803724    -0.000006298280
      13        0.000006669073    -0.000007035933    -0.000003795702
      14        0.000001863544    -0.000000326060     0.000004139438
      15       -0.000001695085    -0.000001677550    -0.000002913680
      16       -0.000004445000     0.000000079694     0.000002196183

  **** Optimization is complete! (in 6 steps) ****
    Final optimized geometry and variables:
    Molecular point group: c1

    Geometry (in Angstrom), charge = 0, multiplicity = 1:

    H            2.430601570618     1.518010567016    -0.915635578269
    N            1.643705435538     0.900663617279    -0.970291052378
    C            1.480135726661     0.158327190750     0.273318319873
    H            1.818628020088     0.273368791103    -1.732407187626
    C            0.189542543195    -0.659408872939     0.252179747213
    H            1.432002162747     0.885511583751     1.078272812467
    H            2.323397113602    -0.500953231621     0.487814459972
    C           -1.077503995623     0.195540663245     0.314857991233
    H            0.168391878399    -1.258468922300    -0.657742775594
    H            0.199817884635    -1.359973009101     1.084723906131
    C           -2.357352007675    -0.635629538227     0.231043780549
    H           -1.055173643382     0.921722018621    -0.490084795846
    H           -1.077633214054     0.762611688302     1.243893910494
    H           -2.406307009160    -1.187481597090    -0.703757661268
    H           -3.239611693887    -0.005275353685     0.287442974457
    H           -2.414663260561    -1.356851721052     1.042069345911

  Mulliken Charges: (a.u.)
   Center  Symbol    Alpha    Beta     Spin     Total
       1     H     0.33190  0.33190  0.00000  0.33620
       2     N     3.92076  3.92076  0.00000 -0.84151
       3     C     3.06644  3.06644  0.00000 -0.13288
       4     H     0.33519  0.33519  0.00000  0.32962
       5     C     3.15123  3.15123  0.00000 -0.30246
       6     H     0.42064  0.42064  0.00000  0.15872
       7     H     0.43123  0.43123  0.00000  0.13754
       8     C     3.15171  3.15171  0.00000 -0.30342
       9     H     0.42713  0.42713  0.00000  0.14573
      10     H     0.42391  0.42391  0.00000  0.15218
      11     C     3.23969  3.23969  0.00000 -0.47937
      12     H     0.40649  0.40649  0.00000  0.18701
      13     H     0.42652  0.42652  0.00000  0.14697
      14     H     0.42299  0.42299  0.00000  0.15401
      15     H     0.41995  0.41995  0.00000  0.16011
      16     H     0.42422  0.42422  0.00000  0.15155

   Total alpha = 21.00000, Total beta = 21.00000, Total charge = -0.00000
