  ==> Input File <==

--------------------------------------------------------------------------
set {
	reference rhf
	basis cc-pvtz
}

set_num_threads( 4 )
memory 2 gb

molecule MOL {
0 1

H	 -2.816458	 -0.841657	 -0.064679
N	 -1.878861	 -0.711874	 0.250184
C	 -1.341419	 0.551458	 -0.220231
H	 -1.333674	 -1.468530	 -0.105118
C	 0.158260	 0.460701	 -0.385678
H	 -1.771975	 0.880572	 -1.165139
H	 -1.555142	 1.316200	 0.518378
O	 0.444827	 -0.457590	 -1.396780
H	 0.561485	 1.438990	 -0.643619
H	 0.610575	 0.141581	 0.550539
C	 1.799685	 -0.684714	 -1.601706
H	 1.898909	 -1.403543	 -2.402222
H	 2.317423	 0.228775	 -1.886626
H	 2.275287	 -1.085527	 -0.709677

	symmetry c1
}
set optking {
	frozen_dihedral = ("
		6 3 2 4
	")
}

ee = optimize('scf')
oeprop('DIPOLE', 'QUADRUPOLE', 'MULLIKEN_CHARGES')
f=open( 'psi4out.xyz', 'w' )
f.write( "14  " )
f.write( str(ee) + "\n" )
f.write( MOL.save_string_xyz() )
f.close()
--------------------------------------------------------------------------

    Molecular point group: c1
  Charge       = 0
  Multiplicity = 1
  Basis Set: CC-PVTZ
  Basis Set:
  @DF-RHF Final Energy:  -248.22392234646463
    Total Energy =                       -248.2239223464647466
    Molecular point group: c1
  Basis Set: CC-PVTZ
  Basis Set:
  Basis Set: CC-PVTZ
  Basis Set:
  @DF-RHF Final Energy:  -248.22413355125818
    Total Energy =                       -248.2241335512579212
  Basis Set: CC-PVTZ
  Basis Set:
  Basis Set: CC-PVTZ
  Basis Set:
  @DF-RHF Final Energy:  -248.22416894349163
    Total Energy =                       -248.2241689434915770
  Basis Set: CC-PVTZ
  Basis Set:
  Charge       = 0
  Multiplicity = 1
  Basis Set: CC-PVTZ
  Basis Set:

    Orbital Energies (a.u.)
    -----------------------

    Doubly Occupied:

       1A    -20.553939     2A    -15.520518     3A    -11.268237
       4A    -11.266334     5A    -11.239761     6A     -1.387938
       7A     -1.173792     8A     -1.001988     9A     -0.910567
      10A     -0.818789    11A     -0.689751    12A     -0.672325
      13A     -0.652984    14A     -0.618824    15A     -0.595707
      16A     -0.549123    17A     -0.534328    18A     -0.501306
      19A     -0.474137    20A     -0.423288    21A     -0.379499

  @DF-RHF Final Energy:  -248.22417044287263

   => Energetics <=

    Nuclear Repulsion Energy =            194.7031931443685551
    One-Electron Energy =                -723.3884633141243512
    Two-Electron Energy =                 280.4610997268832193
    DFT Exchange-Correlation Energy =       0.0000000000000000
    Empirical Dispersion Energy =           0.0000000000000000
    PCM Polarization Energy =               0.0000000000000000
    EFP Energy =                            0.0000000000000000
    Total Energy =                       -248.2241704428725484
    Molecular point group: c1
  Basis Set: CC-PVTZ
  Basis Set:

  -Total Gradient:
     Atom            X                  Y                   Z
    ------   -----------------  -----------------  -----------------
       1       -0.000015067392     0.000009346249    -0.000030647602
       2       -0.003795139527     0.000396039708    -0.003130152426
       3        0.003950442416    -0.002282941101    -0.001874636181
       4        0.002427748086     0.000073748665     0.003058237318
       5       -0.000110341559     0.000027061922     0.000003653707
       6       -0.002512097605     0.001807447766     0.001948352086
       7       -0.000003866899    -0.000029070466     0.000031739445
       8        0.000020356838     0.000033401789     0.000037305759
       9        0.000024107452    -0.000018695387    -0.000025615641
      10        0.000011213286    -0.000019940561    -0.000019733173
      11       -0.000009920905     0.000012079054    -0.000003613924
      12        0.000007688978    -0.000004271533    -0.000000730952
      13        0.000000916382    -0.000003380607     0.000002557872
      14        0.000003960447    -0.000000825498     0.000003283710

  **** Optimization is complete! (in 4 steps) ****
    Final optimized geometry and variables:
    Molecular point group: c1

    Geometry (in Angstrom), charge = 0, multiplicity = 1:

    H           -2.704317487151    -0.617861915288     0.660995953834
    N           -1.748067069932    -0.519341249041     0.921023314538
    C           -1.185951408733     0.739390949274     0.462626954513
    H           -1.238356819217    -1.286938458387     0.540715382358
    C            0.312394774866     0.643368908613     0.293990729430
    H           -1.635447730596     1.091557858707    -0.463350591315
    H           -1.379537700364     1.506440324515     1.207131703039
    O            0.611452672407    -0.286274039677    -0.702087805309
    H            0.712079932436     1.620554499023     0.029871439165
    H            0.766911488619     0.339346860294     1.235623392090
    C            1.970144049705    -0.481459617004    -0.917265873855
    H            2.079800393719    -1.216998278506    -1.700898941350
    H            2.459160090326     0.438367011328    -1.230333172323
    H            2.466887865958    -0.846809485871    -0.021322264536

  Mulliken Charges: (a.u.)
   Center  Symbol    Alpha    Beta     Spin     Total
       1     H     0.42914  0.42914  0.00000  0.14172
       2     N     3.69705  3.69705  0.00000 -0.39410
       3     C     3.01284  3.01284  0.00000 -0.02568
       4     H     0.42303  0.42303  0.00000  0.15394
       5     C     2.97786  2.97786  0.00000  0.04428
       6     H     0.46413  0.46413  0.00000  0.07173
       7     H     0.46455  0.46455  0.00000  0.07089
       8     O     4.17858  4.17858  0.00000 -0.35716
       9     H     0.46641  0.46641  0.00000  0.06718
      10     H     0.46683  0.46683  0.00000  0.06634
      11     C     3.03265  3.03265  0.00000 -0.06530
      12     H     0.44695  0.44695  0.00000  0.10610
      13     H     0.46987  0.46987  0.00000  0.06027
      14     H     0.47011  0.47011  0.00000  0.05977

   Total alpha = 21.00000, Total beta = 21.00000, Total charge = -0.00000
