                              Psi4 1.0.54 Driver

  ==> Input File <==

--------------------------------------------------------------------------
set {
	reference rhf
	basis cc-pvtz
}

set_num_threads( 4 )
memory 2 gb

molecule MOL {
0 1

O	 -1.510770	 1.240811	 -0.054933
C	 -1.081510	 0.147522	 0.122720
C	 0.327029	 -0.064006	 0.641890
C	 -1.903028	 -1.084121	 -0.174656
C	 1.349460	 -0.017068	 -0.500215
H	 0.399029	 -1.014606	 1.159950
H	 0.538021	 0.726928	 1.350471
C	 1.631599	 -1.395893	 -1.085865
H	 0.991088	 0.641335	 -1.286289
H	 2.268041	 0.418277	 -0.124703
H	 2.364336	 -1.336019	 -1.881818
H	 0.731384	 -1.840642	 -1.496428
H	 2.018195	 -2.068902	 -0.328585
H	 -1.341891	 -1.779207	 -0.789259
H	 -2.820449	 -0.808163	 -0.671328
H	 -2.133314	 -1.593056	 0.755831

	symmetry c1
}
set optking {
	frozen_dihedral = ("
		9 5 3 2
	")
}

ee,wfn = optimize('scf', return_wfn=True)
oeprop( wfn, 'DIPOLE', 'QUADRUPOLE', 'MULLIKEN_CHARGES')
f=open( 'psi4out.xyz', 'w' )
f.write( "16  " )
f.write( str(ee) + "\n" )
f.write( MOL.save_string_xyz() )
f.close()
--------------------------------------------------------------------------

    Molecular point group: c1
  Charge       = 0
  Multiplicity = 1
  Basis Set: CC-PVTZ
  Basis Set:
  @DF-RHF Final Energy:  -270.12436585797013
    Total Energy =                       -270.1243658579700195
    Molecular point group: c1
  Basis Set: CC-PVTZ
  Basis Set:
  Basis Set: CC-PVTZ
  Basis Set:
  @DF-RHF Final Energy:  -270.12512108373016
    Total Energy =                       -270.1251210837300505
  Basis Set: CC-PVTZ
  Basis Set:
  Basis Set: CC-PVTZ
  Basis Set:
  @DF-RHF Final Energy:  -270.12343133110767
    Total Energy =                       -270.1234313311076676
  Basis Set: CC-PVTZ
  Basis Set:
  Basis Set: CC-PVTZ
  Basis Set:
  @DF-RHF Final Energy:  -270.12550421036985
    Total Energy =                       -270.1255042103697406
  Basis Set: CC-PVTZ
  Basis Set:
  @DF-RHF Final Energy:  -270.12524501078485
    Total Energy =                       -270.1252450107847380
  @DF-RHF Final Energy:  -270.12595965288966
    Total Energy =                       -270.1259596528895486
  @DF-RHF Final Energy:  -270.04561524114752
    Total Energy =                       -270.0456152411473454
  @DF-RHF Final Energy:  -270.12060826510049
    Total Energy =                       -270.1206082651005431
  @DF-RHF Final Energy:  -270.12693691104437
    Total Energy =                       -270.1269369110445950
  @DF-RHF Final Energy:  -270.11753572166447
    Total Energy =                       -270.1175357216643533
  @DF-RHF Final Energy:  -270.12705213765537
    Total Energy =                       -270.1270521376554825
  @DF-RHF Final Energy:  -270.12825417936989
    Total Energy =                       -270.1282541793699465
  @DF-RHF Final Energy:  -270.11831459336429
    Total Energy =                       -270.1183145933644596
  @DF-RHF Final Energy:  -270.12876636244062
    Total Energy =                       -270.1287663624401603
  @DF-RHF Final Energy:  -270.12890906353255
    Total Energy =                       -270.1289090635324897
  Basis Set: CC-PVTZ
  Basis Set:
  @DF-RHF Final Energy:  -270.12900232654113
    Total Energy =                       -270.1290023265413538
  Basis Set: CC-PVTZ
  Basis Set:
  Basis Set: CC-PVTZ
  Basis Set:
  @DF-RHF Final Energy:  -270.12899289251544
    Total Energy =                       -270.1289928925157255
  Basis Set: CC-PVTZ
  Basis Set:
  Basis Set: CC-PVTZ
  Basis Set:
  @DF-RHF Final Energy:  -270.12904145037135
    Total Energy =                       -270.1290414503714601
  Basis Set: CC-PVTZ
  Basis Set:
  Charge       = 0
  Multiplicity = 1
  Basis Set: CC-PVTZ
  Basis Set:

    Orbital Energies (a.u.)
    -----------------------

    Doubly Occupied:

       1A    -20.540156     2A    -11.322319     3A    -11.231039
       4A    -11.227529     5A    -11.216987     6A    -11.208079
       7A     -1.400613     8A     -1.076711     9A     -1.016430
      10A     -0.945935    11A     -0.826530    12A     -0.730196
      13A     -0.667304    14A     -0.639076    15A     -0.625338
      16A     -0.595360    17A     -0.581889    18A     -0.555431
      19A     -0.548391    20A     -0.504505    21A     -0.487693
      22A     -0.480920    23A     -0.475011    24A     -0.404652

  @DF-RHF Final Energy:  -270.12904327174886

   => Energetics <=

    Nuclear Repulsion Energy =            240.1789691528239530
    One-Electron Energy =                -841.9998383080296662
    Two-Electron Energy =                 331.6918258834567723
    DFT Exchange-Correlation Energy =       0.0000000000000000
    Empirical Dispersion Energy =           0.0000000000000000
    PCM Polarization Energy =               0.0000000000000000
    EFP Energy =                            0.0000000000000000
    Total Energy =                       -270.1290432717489693
    Molecular point group: c1
  Basis Set: CC-PVTZ
  Basis Set:

  -Total Gradient:
     Atom            X                  Y                   Z
    ------   -----------------  -----------------  -----------------
       1       -0.000013932122    -0.000035304470     0.000040767097
       2        0.002030986263     0.000639422134     0.001620529195
       3       -0.003490518041    -0.000649529332    -0.002841075523
       4       -0.000074785110    -0.000018560387     0.000038175977
       5        0.004358480858    -0.000899255015     0.003066876590
       6        0.000014939562    -0.000008195343     0.000001329151
       7        0.000000808375     0.000002066424     0.000005804210
       8        0.000012865844     0.000005989300     0.000009517203
       9       -0.002881857491     0.000948390491    -0.001931918932
      10       -0.000008826609    -0.000002146272     0.000000676748
      11       -0.000004827039     0.000001598639     0.000003950046
      12        0.000008005615    -0.000004326266    -0.000002273163
      13       -0.000003460501     0.000000030353    -0.000002635040
      14        0.000030176931     0.000010135298     0.000013970223
      15        0.000019145516     0.000001407631    -0.000012692642
      16        0.000002797949     0.000008276813    -0.000011001142

  **** Optimization is complete! (in 19 steps) ****
    Final optimized geometry and variables:
    Molecular point group: c1

    Geometry (in Angstrom), charge = 0, multiplicity = 1:

    O           -0.316158340155     1.478251892104     0.407012063968
    C           -0.451221700456     0.359183645637     0.779700897076
    C            0.387133320209    -0.789068759645     0.248163433560
    C           -1.475522306324    -0.000690372785     1.831899172581
    C            1.294596816460    -0.435405347669    -0.929799977708
    H           -0.273586652496    -1.617214568411     0.008451411560
    H            0.978461365856    -1.130617590230     1.095096019338
    C            0.614901485960    -0.638801460825    -2.282189778080
    H            1.580460812200     0.603872792987    -0.846763272240
    H            2.195191302135    -1.036244113871    -0.883319274107
    H            1.273971798266    -0.354690796636    -3.094108148508
    H           -0.281842067267    -0.034267236395    -2.360107280661
    H            0.334184197690    -1.676608369058    -2.431530556244
    H           -2.261590757387    -0.596067531652     1.379374473617
    H           -1.903196956051     0.897455731492     2.250142407027
    H           -1.028579228372    -0.599363590648     2.617085050921

  Mulliken Charges: (a.u.)
   Center  Symbol    Alpha    Beta     Spin     Total
       1     O     4.17240  4.17240  0.00000 -0.34481
       2     C     2.86085  2.86085  0.00000  0.27829
       3     C     3.11391  3.11391  0.00000 -0.22782
       4     C     3.15062  3.15062  0.00000 -0.30125
       5     C     3.08866  3.08866  0.00000 -0.17733
       6     H     0.44553  0.44553  0.00000  0.10893
       7     H     0.43803  0.43803  0.00000  0.12393
       8     C     3.14937  3.14937  0.00000 -0.29874
       9     H     0.44100  0.44100  0.00000  0.11800
      10     H     0.44803  0.44803  0.00000  0.10394
      11     H     0.44777  0.44777  0.00000  0.10447
      12     H     0.44992  0.44992  0.00000  0.10015
      13     H     0.45868  0.45868  0.00000  0.08265
      14     H     0.44885  0.44885  0.00000  0.10230
      15     H     0.43545  0.43545  0.00000  0.12911
      16     H     0.45091  0.45091  0.00000  0.09818

   Total alpha = 24.00000, Total beta = 24.00000, Total charge = -0.00000

*** Psi4 exiting successfully. Buy a developer a beer!
