  ==> Input File <==

--------------------------------------------------------------------------
set {
	reference rhf
	basis 6-31G*
}

set_num_threads( 1 )
memory 2 gb

molecule MOL {
0 1

H	 -2.499100	 -0.730091	 -0.745082
O	 -2.347518	 -0.290803	 0.079804
C	 -1.184022	 0.487508	 -0.006784
C	 0.062599	 -0.378592	 0.031606
H	 -1.176523	 1.099369	 -0.904519
H	 -1.187323	 1.153111	 0.844927
O	 1.171513	 0.459272	 -0.058250
H	 0.050699	 -1.089204	 -0.797170
H	 0.078739	 -0.954914	 0.954740
C	 1.653602	 0.912319	 1.167099
H	 1.971686	 0.085738	 1.799726
H	 2.504585	 1.548858	 0.968232
H	 0.900380	 1.486666	 1.702425

	symmetry c1
}
set optking {
	frozen_dihedral = ("
		8 4 3 5,
		1 2 3 5,
		4 7 10 13
	")
}

ee = energy('scf')
oeprop('DIPOLE', 'QUADRUPOLE', 'MULLIKEN_CHARGES')
f=open( 'psi4out.xyz', 'w' )
f.write( "13  " )
f.write( str(ee) + "\n" )
f.write( MOL.save_string_xyz() )
f.close()
--------------------------------------------------------------------------

    Molecular point group: c1

    Geometry (in Angstrom), charge = 0, multiplicity = 1:

       Center              X                  Y                   Z               Mass
    ------------   -----------------  -----------------  -----------------  -----------------
           H         -2.344262396117    -0.961107179452    -0.988348425454     1.007825032070
           O         -2.192680396117    -0.521819179452    -0.163462425454    15.994914619560
           C         -1.029184396117     0.256491820548    -0.250050425454    12.000000000000
           C          0.217436603883    -0.609608179452    -0.211660425454    12.000000000000
           H         -1.021685396117     0.868352820548    -1.147785425454     1.007825032070
           H         -1.032485396117     0.922094820548     0.601660574546     1.007825032070
           O          1.326350603883     0.228255820548    -0.301516425454    15.994914619560
           H          0.205536603883    -1.320220179452    -1.040436425454     1.007825032070
           H          0.233576603883    -1.185930179452     0.711473574546     1.007825032070
           C          1.808439603883     0.681302820548     0.923832574546    12.000000000000
           H          2.126523603883    -0.145278179452     1.556459574546     1.007825032070
           H          2.659422603883     1.317841820548     0.724965574546     1.007825032070
           H          1.055217603883     1.255649820548     1.459158574546     1.007825032070

  Charge       = 0
  Multiplicity = 1
  Basis Set: 6-31G*
  Basis Set:

    Orbital Energies (a.u.)
    -----------------------

    Doubly Occupied:

       1A    -20.561137     2A    -20.559511     3A    -11.270986
       4A    -11.270758     5A    -11.267985     6A     -1.389602
       7A     -1.364809     8A     -1.014433     9A     -0.924733
      10A     -0.837066    11A     -0.709868    12A     -0.678521
      13A     -0.654699    14A     -0.641239    15A     -0.592856
      16A     -0.574571    17A     -0.530596    18A     -0.512383
      19A     -0.469651    20A     -0.461133    21A     -0.404281

  @DF-RHF Final Energy:  -267.94662268869342

   => Energetics <=

    Nuclear Repulsion Energy =            192.8821658824560075
    One-Electron Energy =                -748.2758513346307154
    Two-Electron Energy =                 287.4470627634818243
    DFT Exchange-Correlation Energy =       0.0000000000000000
    Empirical Dispersion Energy =           0.0000000000000000
    PCM Polarization Energy =               0.0000000000000000
    EFP Energy =                            0.0000000000000000
    Total Energy =                       -267.9466226886929121

  Mulliken Charges: (a.u.)
   Center  Symbol    Alpha    Beta     Spin     Total
       1     H     0.28108  0.28108  0.00000  0.43783
       2     O     4.37184  4.37184  0.00000 -0.74368
       3     C     3.00402  3.00402  0.00000 -0.00804
       4     C     3.00886  3.00886  0.00000 -0.01771
       5     H     0.42181  0.42181  0.00000  0.15638
       6     H     0.41526  0.41526  0.00000  0.16948
       7     O     4.30507  4.30507  0.00000 -0.61014
       8     H     0.42084  0.42084  0.00000  0.15832
       9     H     0.42239  0.42239  0.00000  0.15522
      10     C     3.08320  3.08320  0.00000 -0.16639
      11     H     0.42618  0.42618  0.00000  0.14764
      12     H     0.41008  0.41008  0.00000  0.17985
      13     H     0.42938  0.42938  0.00000  0.14124

   Total alpha = 21.00000, Total beta = 21.00000, Total charge =  0.00000
