  ==> Input File <==

--------------------------------------------------------------------------
set {
	reference rhf
	basis 6-31G*
}

set_num_threads( 4 )
memory 2 gb

molecule MOL {
0 1

H	 -0.442650	 3.344560	 2.046343
O	 -0.364373	 3.497236	 1.115241
C	 -0.248506	 2.271243	 0.444045
C	 1.132049	 1.667840	 0.632828
H	 -1.004841	 1.562529	 0.769683
H	 -0.414696	 2.470733	 -0.605257
O	 1.171513	 0.459272	 -0.058250
H	 1.329411	 1.508977	 1.694803
H	 1.886568	 2.358490	 0.260958
C	 2.397842	 -0.198080	 -0.002151
H	 2.508049	 -0.905315	 -0.822092
H	 3.173794	 0.550865	 -0.078850
H	 2.517602	 -0.735921	 0.936026

	symmetry c1
}
set optking {
	frozen_dihedral = ("
		4 7 10 13
	")
}

ee = optimize('scf')
oeprop('DIPOLE', 'QUADRUPOLE', 'MULLIKEN_CHARGES')
f=open( 'psi4out.xyz', 'w' )
f.write( "13  " )
f.write( str(ee) + "\n" )
f.write( MOL.save_string_xyz() )
f.close()
--------------------------------------------------------------------------

    Molecular point group: c1
  Charge       = 0
  Multiplicity = 1
  Basis Set: 6-31G*
  Basis Set:
  @DF-RHF Final Energy:  -267.94846058659959
    Total Energy =                       -267.9484605865993672
    Molecular point group: c1
  Basis Set: 6-31G*
  Basis Set:
  Basis Set: 6-31G*
  Basis Set:
  @DF-RHF Final Energy:  -267.94947395577037
    Total Energy =                       -267.9494739557703724
  Basis Set: 6-31G*
  Basis Set:
  Basis Set: 6-31G*
  Basis Set:
  @DF-RHF Final Energy:  -267.94975294154847
    Total Energy =                       -267.9497529415483541
  Basis Set: 6-31G*
  Basis Set:
  Basis Set: 6-31G*
  Basis Set:
  @DF-RHF Final Energy:  -267.94975429375455
    Total Energy =                       -267.9497542937546655
  Basis Set: 6-31G*
  Basis Set:
  Charge       = 0
  Multiplicity = 1
  Basis Set: 6-31G*
  Basis Set:

    Orbital Energies (a.u.)
    -----------------------

    Doubly Occupied:

       1A    -20.561652     2A    -20.560091     3A    -11.270994
       4A    -11.270098     5A    -11.268855     6A     -1.387693
       7A     -1.364990     8A     -1.018584     9A     -0.913439
      10A     -0.841676    11A     -0.709530    12A     -0.673421
      13A     -0.659226    14A     -0.637984    15A     -0.595410
      16A     -0.569879    17A     -0.545862    18A     -0.489454
      19A     -0.481636    20A     -0.438320    21A     -0.420955

  @DF-RHF Final Energy:  -267.94975460027030

   => Energetics <=

    Nuclear Repulsion Energy =            190.1374128827976051
    One-Electron Energy =                -742.8148356753927146
    Two-Electron Energy =                 284.7276681923247565
    DFT Exchange-Correlation Energy =       0.0000000000000000
    Empirical Dispersion Energy =           0.0000000000000000
    PCM Polarization Energy =               0.0000000000000000
    EFP Energy =                            0.0000000000000000
    Total Energy =                       -267.9497546002702961
    Molecular point group: c1
  Basis Set: 6-31G*
  Basis Set:

  -Total Gradient:
     Atom            X                  Y                   Z
    ------   -----------------  -----------------  -----------------
       1       -0.000001190019     0.000004064380     0.000002170978
       2       -0.000005641344     0.000005613536     0.000008495608
       3        0.000004551876     0.000001161069     0.000002866703
       4        0.000608947733     0.000996983008    -0.001688223869
       5       -0.000004436404     0.000000482188    -0.000001628024
       6        0.000006335133    -0.000005350542     0.000001996093
       7       -0.001154351800    -0.002006935019     0.002085095147
       8       -0.000001760451    -0.000005560855    -0.000003760818
       9       -0.000000750827     0.000001244173    -0.000000327152
      10        0.001605346318     0.003056350420     0.000662053766
      11       -0.000000552167    -0.000002237425    -0.000000412529
      12        0.000001575602    -0.000000211423     0.000000520935
      13       -0.001058073649    -0.002045603511    -0.001068846838

  **** Optimization is complete! (in 5 steps) ****
    Final optimized geometry and variables:
    Molecular point group: c1

    Geometry (in Angstrom), charge = 0, multiplicity = 1:

    H           -1.281136166325     1.779844994771     1.595256194695
    O           -1.195850301181     1.933593434709     0.664950727393
    C           -1.066590380237     0.708719924446    -0.006169514520
    C            0.316528244723     0.114443518541     0.192477446182
    H           -1.820750670705    -0.004919259129     0.313410579344
    H           -1.225809571918     0.907269773412    -1.056736107333
    O            0.370185910376    -1.090379707887    -0.505269385232
    H            0.505144044257    -0.044920554370     1.256085666590
    H            1.068808596000     0.810843645088    -0.171738735324
    C            1.597813805015    -1.748369317426    -0.449216067888
    H            1.622437511026    -2.462785195629    -1.261391472881
    H            2.429987874124    -1.058769567032    -0.564635489303
    H            1.711177540439    -2.292709742806     0.485892723824

  Mulliken Charges: (a.u.)
   Center  Symbol    Alpha    Beta     Spin     Total
       1     H     0.28126  0.28126  0.00000  0.43749
       2     O     4.37091  4.37091  0.00000 -0.74182
       3     C     3.00474  3.00474  0.00000 -0.00948
       4     C     2.99651  2.99651  0.00000  0.00698
       5     H     0.42230  0.42230  0.00000  0.15539
       6     H     0.40845  0.40845  0.00000  0.18310
       7     O     4.30864  4.30864  0.00000 -0.61728
       8     H     0.43786  0.43786  0.00000  0.12427
       9     H     0.42282  0.42282  0.00000  0.15437
      10     C     3.07916  3.07916  0.00000 -0.15832
      11     H     0.41183  0.41183  0.00000  0.17634
      12     H     0.42839  0.42839  0.00000  0.14323
      13     H     0.42713  0.42713  0.00000  0.14574

   Total alpha = 21.00000, Total beta = 21.00000, Total charge =  0.00000
