                              Psi4 1.0.54 Driver

  ==> Input File <==

--------------------------------------------------------------------------
set {
	reference rhf
	basis cc-pvtz
}

set_num_threads( 4 )
memory 2 gb

molecule MOL {
0 1

H	 -4.230259	 0.539112	 0.036360
O	 -3.515113	 -0.019339	 -0.206321
C	 -2.302264	 0.528872	 0.237390
C	 -1.175688	 -0.398187	 -0.171891
H	 -2.148018	 1.514076	 -0.197759
H	 -2.310727	 0.646384	 1.319032
C	 0.196029	 0.106276	 0.266738
H	 -1.201873	 -0.515469	 -1.250677
H	 -1.365975	 -1.378728	 0.252664
C	 1.330220	 -0.826136	 -0.155230
H	 0.359542	 1.097229	 -0.145561
H	 0.212134	 0.218135	 1.348778
C	 2.719700	 -0.407669	 0.328325
H	 1.339388	 -0.911200	 -1.239363
H	 1.119001	 -1.821953	 0.224128
C	 2.792409	 -0.018311	 1.802934
H	 3.050695	 0.435530	 -0.270142
H	 3.424476	 -1.211724	 0.132820
H	 2.092703	 0.779827	 2.029754
H	 2.564472	 -0.852794	 2.455138
H	 3.785724	 0.332105	 2.059263

	symmetry c1
}
set optking {
	frozen_dihedral = ("
		16 13 10 14
	")
}

ee,wfn = optimize('scf', return_wfn=True)
oeprop( wfn, 'DIPOLE', 'QUADRUPOLE', 'MULLIKEN_CHARGES')
f=open( 'psi4out.xyz', 'w' )
f.write( "21  " )
f.write( str(ee) + "\n" )
f.write( MOL.save_string_xyz() )
f.close()
--------------------------------------------------------------------------

    Molecular point group: c1
  Charge       = 0
  Multiplicity = 1
  Basis Set: CC-PVTZ
  Basis Set:
  @DF-RHF Final Energy:  -310.33051859792755
    Total Energy =                       -310.3305185979278349
    Molecular point group: c1
  Basis Set: CC-PVTZ
  Basis Set:
  Basis Set: CC-PVTZ
  Basis Set:
  @DF-RHF Final Energy:  -310.33144256129884
    Total Energy =                       -310.3314425612991272
  Basis Set: CC-PVTZ
  Basis Set:
  Basis Set: CC-PVTZ
  Basis Set:
  @DF-RHF Final Energy:  -310.33193844036208
    Total Energy =                       -310.3319384403619665
  Basis Set: CC-PVTZ
  Basis Set:
  Basis Set: CC-PVTZ
  Basis Set:
  @DF-RHF Final Energy:  -310.33196522289836
    Total Energy =                       -310.3319652228983614
  Basis Set: CC-PVTZ
  Basis Set:
  Basis Set: CC-PVTZ
  Basis Set:
  @DF-RHF Final Energy:  -310.33197041416332
    Total Energy =                       -310.3319704141634929
  Basis Set: CC-PVTZ
  Basis Set:
  Charge       = 0
  Multiplicity = 1
  Basis Set: CC-PVTZ
  Basis Set:

    Orbital Energies (a.u.)
    -----------------------

    Doubly Occupied:

       1A    -20.545350     2A    -11.264895     3A    -11.213239
       4A    -11.212972     5A    -11.211418     6A    -11.208830
       7A    -11.206109     8A     -1.363209     9A     -1.087355
      10A     -1.033880    11A     -0.955001    12A     -0.878248
      13A     -0.808617    14A     -0.775736    15A     -0.695932
      16A     -0.663494    17A     -0.627127    18A     -0.603831
      19A     -0.587915    20A     -0.573377    21A     -0.536835
      22A     -0.522763    23A     -0.510616    24A     -0.487133
      25A     -0.481396    26A     -0.458234    27A     -0.456039
      28A     -0.444515    29A     -0.437330

  @DF-RHF Final Energy:  -310.33197125044984

   => Energetics <=

    Nuclear Repulsion Energy =            313.6120009887866331
    One-Electron Energy =               -1042.1851480646889740
    Two-Electron Energy =                 418.2411758254525580
    DFT Exchange-Correlation Energy =       0.0000000000000000
    Empirical Dispersion Energy =           0.0000000000000000
    PCM Polarization Energy =               0.0000000000000000
    EFP Energy =                            0.0000000000000000
    Total Energy =                       -310.3319712504498398
    Molecular point group: c1
  Basis Set: CC-PVTZ
  Basis Set:

  -Total Gradient:
     Atom            X                  Y                   Z
    ------   -----------------  -----------------  -----------------
       1        0.000038964576    -0.000005957857     0.000001222411
       2        0.000011950545    -0.000018918011    -0.000001343931
       3        0.000008582266     0.000033514242     0.000020621010
       4       -0.000031356845    -0.000011250351    -0.000005703568
       5        0.000003813878    -0.000007602483     0.000004923391
       6        0.000002961079    -0.000010732569    -0.000017545911
       7       -0.000004719930     0.000034482341     0.000000795798
       8        0.000002441757     0.000002224242     0.000014495332
       9       -0.000002152186    -0.000000805614    -0.000003102257
      10        0.000958986170    -0.003275270775     0.000251376986
      11       -0.000011341138     0.000023530406    -0.000011439063
      12       -0.000000026313     0.000017987635     0.000010567937
      13        0.000619471173    -0.002872417417     0.001043188735
      14       -0.000960087277     0.003527005613    -0.000479750957
      15        0.000003129946    -0.000006242386    -0.000006046081
      16       -0.000601614501     0.002574136979    -0.000797545853
      17        0.000001915381     0.000010499829    -0.000037260917
      18       -0.000039311514     0.000021031992     0.000000377800
      19        0.000034322006    -0.000043667553    -0.000001965003
      20       -0.000001227326     0.000010804220     0.000013874717
      21       -0.000034701752    -0.000002352486     0.000000259424

  **** Optimization is complete! (in 6 steps) ****
    Final optimized geometry and variables:
    Molecular point group: c1

    Geometry (in Angstrom), charge = 0, multiplicity = 1:

    H           -4.127894853216     0.820992402657    -0.553830588778
    O           -3.418892519694     0.236547940185    -0.748280560955
    C           -2.227719988719     0.718182686115    -0.184821305659
    C           -1.110380139931    -0.248988277748    -0.519578291777
    H           -1.992879417139     1.705460353561    -0.577222475755
    H           -2.327212647464     0.810063300938     0.894676767841
    C            0.238827108062     0.186002454195     0.044929880798
    H           -1.050635713643    -0.344626240619    -1.598949019250
    H           -1.376691600098    -1.228347159997    -0.134522933794
    C            1.356632580884    -0.805161664048    -0.280158626605
    H            0.499830724521     1.163991985042    -0.354630735116
    H            0.151983934609     0.307901025590     1.119897486200
    C            2.762134176247    -0.353814688235     0.129191732646
    H            1.352544529426    -0.959382048187    -1.355288966437
    H            1.128814160252    -1.762452375882     0.180747021347
    C            2.898521505970     0.140139870266     1.567526861567
    H            3.082325622701     0.441502216630    -0.539188125983
    H            3.449621456692    -1.177552795813    -0.033881230977
    H            2.335055429566     1.049150669870     1.735998672259
    H            2.548454148662    -0.603128735988     2.277463148527
    H            3.935853269124     0.352034584300     1.799942579681

  Mulliken Charges: (a.u.)
   Center  Symbol    Alpha    Beta     Spin     Total
       1     H     0.39765  0.39765  0.00000  0.20469
       2     O     4.19413  4.19413  0.00000 -0.38827
       3     C     2.96321  2.96321  0.00000  0.07359
       4     C     3.08443  3.08443  0.00000 -0.16886
       5     H     0.47509  0.47509  0.00000  0.04981
       6     H     0.47499  0.47499  0.00000  0.05002
       7     C     3.10524  3.10524  0.00000 -0.21048
       8     H     0.45038  0.45038  0.00000  0.09923
       9     H     0.45108  0.45108  0.00000  0.09783
      10     C     3.09420  3.09420  0.00000 -0.18841
      11     H     0.45479  0.45479  0.00000  0.09042
      12     H     0.45241  0.45241  0.00000  0.09519
      13     C     3.08924  3.08924  0.00000 -0.17849
      14     H     0.45019  0.45019  0.00000  0.09962
      15     H     0.45154  0.45154  0.00000  0.09691
      16     C     3.15587  3.15587  0.00000 -0.31173
      17     H     0.45466  0.45466  0.00000  0.09068
      18     H     0.44861  0.44861  0.00000  0.10278
      19     H     0.45251  0.45251  0.00000  0.09498
      20     H     0.45421  0.45421  0.00000  0.09158
      21     H     0.44555  0.44555  0.00000  0.10890

   Total alpha = 29.00000, Total beta = 29.00000, Total charge = -0.00000

*** Psi4 exiting successfully. Buy a developer a beer!
