  ==> Input File <==

--------------------------------------------------------------------------
set {
	reference rhf
	basis cc-pvtz
}

set_num_threads( 4 )
memory 2 gb

molecule MOL {
0 1

O	 -0.207832	 0.421413	 0.926788
C	 0.485107	 0.171416	 -0.000134
C	 1.606966	 -0.836201	 0.000174
O	 0.362348	 0.755078	 -1.179479
C	 2.988788	 -0.202529	 -0.000115
H	 1.465110	 -1.474645	 -0.864821
H	 1.465209	 -1.474077	 0.865596
H	 3.131767	 0.419673	 -0.873407
H	 3.750876	 -0.972315	 0.000098
H	 3.131883	 0.420264	 0.872742
C	 -0.657577	 1.732103	 -1.332656
C	 -0.593948	 2.247428	 -2.751416
H	 -0.497955	 2.524519	 -0.615060
H	 -1.615260	 1.279555	 -1.117322
H	 0.369523	 2.697288	 -2.955678
H	 -1.361418	 2.997310	 -2.902737
H	 -0.754206	 1.445272	 -3.460807

	symmetry c1
}
set optking {
	frozen_dihedral = ("
		4 2 3 6
	")
}

ee = optimize('scf')
oeprop('DIPOLE', 'QUADRUPOLE', 'MULLIKEN_CHARGES')
f=open( 'psi4out.xyz', 'w' )
f.write( "17  " )
f.write( str(ee) + "\n" )
f.write( MOL.save_string_xyz() )
f.close()
--------------------------------------------------------------------------

    Molecular point group: c1
  Charge       = 0
  Multiplicity = 1
  Basis Set: CC-PVTZ
  Basis Set:
  @DF-RHF Final Energy:  -345.03869131374569
    Total Energy =                       -345.0386913137458578
    Molecular point group: c1
  Basis Set: CC-PVTZ
  Basis Set:
  Basis Set: CC-PVTZ
  Basis Set:
  @DF-RHF Final Energy:  -345.03903956886842
    Total Energy =                       -345.0390395688683611
  Basis Set: CC-PVTZ
  Basis Set:
  Basis Set: CC-PVTZ
  Basis Set:
  @DF-RHF Final Energy:  -345.03819862786463
    Total Energy =                       -345.0381986278644035
  Basis Set: CC-PVTZ
  Basis Set:
  Basis Set: CC-PVTZ
  Basis Set:
  @DF-RHF Final Energy:  -345.03913485474624
    Total Energy =                       -345.0391348547462940
  Basis Set: CC-PVTZ
  Basis Set:
  Basis Set: CC-PVTZ
  Basis Set:
  @DF-RHF Final Energy:  -345.03913857271721
    Total Energy =                       -345.0391385727175475
  Basis Set: CC-PVTZ
  Basis Set:
  Charge       = 0
  Multiplicity = 1
  Basis Set: CC-PVTZ
  Basis Set:

    Orbital Energies (a.u.)
    -----------------------

    Doubly Occupied:

       1A    -20.594178     2A    -20.531577     3A    -11.362558
       4A    -11.282690     5A    -11.234752     6A    -11.224270
       7A    -11.220676     8A     -1.470154     9A     -1.363727
      10A     -1.073872    11A     -1.031651    12A     -0.908608
      13A     -0.856470    14A     -0.779483    15A     -0.695854
      16A     -0.683595    17A     -0.672267    18A     -0.619420
      19A     -0.597645    20A     -0.575379    21A     -0.553910
      22A     -0.542807    23A     -0.526868    24A     -0.507735
      25A     -0.506249    26A     -0.498385    27A     -0.455242
      28A     -0.434531

  @DF-RHF Final Energy:  -345.03913872410976

   => Energetics <=

    Nuclear Repulsion Energy =            317.3912441549051664
    One-Electron Energy =               -1099.2516576221059950
    Two-Electron Energy =                 436.8212747430909531
    DFT Exchange-Correlation Energy =       0.0000000000000000
    Empirical Dispersion Energy =           0.0000000000000000
    PCM Polarization Energy =               0.0000000000000000
    EFP Energy =                            0.0000000000000000
    Total Energy =                       -345.0391387241098755
    Molecular point group: c1
  Basis Set: CC-PVTZ
  Basis Set:

  -Total Gradient:
     Atom            X                  Y                   Z
    ------   -----------------  -----------------  -----------------
       1        0.000038459055    -0.000000456848    -0.000045502511
       2       -0.000051028306    -0.000053183873     0.000077441390
       3        0.000052857705     0.000037833750    -0.000018955762
       4        0.000033867597     0.000086621874    -0.000004985731
       5       -0.000024669740    -0.000003438857    -0.000007522369
       6       -0.000017530676    -0.000036014712     0.000025945042
       7       -0.000000963894     0.000004874935    -0.000006439522
       8        0.000005557962     0.000006689396    -0.000009549346
       9       -0.000010342133    -0.000002393434     0.000001926473
      10        0.000000224675    -0.000001936301     0.000007784450
      11       -0.000077561325    -0.000105863536    -0.000041517310
      12        0.000020550470     0.000031767518     0.000008667915
      13        0.000023159766     0.000005164567     0.000011361133
      14        0.000001968422     0.000026167277     0.000001692852
      15        0.000003812113     0.000004996194    -0.000014401695
      16        0.000002950382     0.000002385050    -0.000000064142
      17       -0.000001312073    -0.000003212998     0.000014119136

  **** Optimization is complete! (in 6 steps) ****
    Final optimized geometry and variables:
    Molecular point group: c1

    Geometry (in Angstrom), charge = 0, multiplicity = 1:

    O           -0.780493556224    -0.225079830358     1.550080141502
    C           -0.086007239965    -0.473771818783     0.623426147481
    C            1.036979081392    -1.478773583340     0.640389201788
    O           -0.202721606795     0.118953253914    -0.552394319146
    C            2.410057061314    -0.803956980102     0.611868341409
    H            0.928732038423    -2.127529130022    -0.220178497348
    H            0.922561598285    -2.070750793640     1.536219998435
    H            2.539960843914    -0.220640989165    -0.290009915776
    H            3.191758593435    -1.552004005480     0.646852574154
    H            2.536891919539    -0.148184270115     1.464989956097
    C           -1.208438325921     1.111878294647    -0.697316567625
    C           -1.138877438868     1.637669112771    -2.111961441248
    H           -1.036734200117     1.895996627765     0.026592174512
    H           -2.172091407244     0.671269523569    -0.484395550770
    H           -0.169826342248     2.076598372046    -2.313874963558
    H           -1.896406210654     2.398896248108    -2.256464148857
    H           -1.310617362564     0.843465892779    -2.827582023602

  Mulliken Charges: (a.u.)
   Center  Symbol    Alpha    Beta     Spin     Total
       1     O     4.20013  4.20013  0.00000 -0.40025
       2     C     2.80535  2.80535  0.00000  0.38929
       3     C     3.08360  3.08360  0.00000 -0.16721
       4     O     4.15485  4.15485  0.00000 -0.30969
       5     C     3.15128  3.15128  0.00000 -0.30256
       6     H     0.44712  0.44712  0.00000  0.10576
       7     H     0.43740  0.43740  0.00000  0.12520
       8     H     0.44719  0.44719  0.00000  0.10562
       9     H     0.44752  0.44752  0.00000  0.10496
      10     H     0.44839  0.44839  0.00000  0.10322
      11     C     2.97932  2.97932  0.00000  0.04137
      12     C     3.13344  3.13344  0.00000 -0.26688
      13     H     0.45450  0.45450  0.00000  0.09100
      14     H     0.45280  0.45280  0.00000  0.09440
      15     H     0.45156  0.45156  0.00000  0.09687
      16     H     0.45415  0.45415  0.00000  0.09169
      17     H     0.45140  0.45140  0.00000  0.09721

   Total alpha = 28.00000, Total beta = 28.00000, Total charge = -0.00000
