  ==> Input File <==

--------------------------------------------------------------------------
set {
	reference rhf
	basis cc-pvtz
}

set_num_threads( 4 )
memory 2 gb

molecule MOL {
0 1

H	 3.889604	 0.356866	 -0.089510
N	 3.091268	 -0.241216	 -0.065538
C	 1.860978	 0.530248	 0.016256
H	 3.192566	 -0.835836	 0.730398
C	 0.644130	 -0.381765	 -0.031064
H	 1.835721	 1.204666	 -0.833114
H	 1.808789	 1.151975	 0.911067
C	 -0.678115	 0.376691	 0.025731
H	 0.693998	 -0.977147	 -0.936845
H	 0.693309	 -1.082142	 0.800523
C	 -1.897548	 -0.518512	 -0.176248
H	 -0.678596	 1.155709	 -0.733272
H	 -0.764460	 0.885766	 0.982945
C	 -3.217008	 0.244436	 -0.125174
H	 -1.812990	 -1.028418	 -1.131831
H	 -1.901513	 -1.295591	 0.583294
H	 -3.258415	 1.006753	 -0.896146
H	 -4.061063	 -0.419654	 -0.272013
H	 -3.347358	 0.737797	 0.832396

	symmetry c1
}
set optking {
	frozen_dihedral = ("
		12 8 5 9
	")
}

ee = optimize('scf')
oeprop('DIPOLE', 'QUADRUPOLE', 'MULLIKEN_CHARGES')
f=open( 'psi4out.xyz', 'w' )
f.write( "19  " )
f.write( str(ee) + "\n" )
f.write( MOL.save_string_xyz() )
f.close()
--------------------------------------------------------------------------

    Molecular point group: c1
  Charge       = 0
  Multiplicity = 1
  Basis Set: CC-PVTZ
  Basis Set:
  @DF-RHF Final Energy:  -251.44800863864586
    Total Energy =                       -251.4480086386460016
    Molecular point group: c1
  Basis Set: CC-PVTZ
  Basis Set:
  Basis Set: CC-PVTZ
  Basis Set:
  @DF-RHF Final Energy:  -251.44802545191206
    Total Energy =                       -251.4480254519120308
  Basis Set: CC-PVTZ
  Basis Set:
  Basis Set: CC-PVTZ
  Basis Set:
  @DF-RHF Final Energy:  -251.44803237502225
    Total Energy =                       -251.4480323750221942
  Basis Set: CC-PVTZ
  Basis Set:
  Charge       = 0
  Multiplicity = 1
  Basis Set: CC-PVTZ
  Basis Set:

    Orbital Energies (a.u.)
    -----------------------

    Doubly Occupied:

       1A    -15.526438     2A    -11.238018     3A    -11.211923
       4A    -11.210459     5A    -11.207654     6A    -11.205461
       7A     -1.178214     8A     -1.074267     9A     -0.999634
      10A     -0.901028    11A     -0.813548    12A     -0.789746
      13A     -0.665676    14A     -0.643011    15A     -0.618613
      16A     -0.588900    17A     -0.566384    18A     -0.549746
      19A     -0.529549    20A     -0.499937    21A     -0.480115
      22A     -0.465431    23A     -0.460738    24A     -0.451572
      25A     -0.383795

  @DF-RHF Final Energy:  -251.44803270467071

   => Energetics <=

    Nuclear Repulsion Energy =            246.0550492180079800
    One-Electron Energy =                -826.4864532091528417
    Two-Electron Energy =                 328.9833712864740960
    DFT Exchange-Correlation Energy =       0.0000000000000000
    Empirical Dispersion Energy =           0.0000000000000000
    PCM Polarization Energy =               0.0000000000000000
    EFP Energy =                            0.0000000000000000
    Total Energy =                       -251.4480327046707657
    Molecular point group: c1
  Basis Set: CC-PVTZ
  Basis Set:

  -Total Gradient:
     Atom            X                  Y                   Z
    ------   -----------------  -----------------  -----------------
       1        0.000005023044     0.000001760913    -0.000001718007
       2       -0.000005476434    -0.000004729757    -0.000014849968
       3       -0.000001577085     0.000012871286     0.000008182714
       4       -0.000007369559     0.000002008769     0.000001485704
       5        0.000673286360     0.001191943345    -0.000442564065
       6        0.000005125553     0.000003542768    -0.000002235726
       7       -0.000011287031    -0.000011190250    -0.000004835518
       8       -0.000636783902    -0.001062150819    -0.000731712510
       9       -0.000451339816    -0.000822602847     0.000528773415
      10       -0.000001194600    -0.000018419765    -0.000002671712
      11        0.000000582455     0.000001265864    -0.000057281005
      12        0.000401619105     0.000680088910     0.000700140781
      13        0.000016314338     0.000015938359     0.000002118444
      14        0.000005215521     0.000002244016     0.000020908505
      15       -0.000002976231    -0.000005324900    -0.000005067299
      16        0.000011884096     0.000015133882    -0.000003309641
      17        0.000002447477    -0.000008291460    -0.000002105269
      18       -0.000001299368    -0.000001877137     0.000007307233
      19       -0.000002193925     0.000007788824    -0.000000566076

  **** Optimization is complete! (in 4 steps) ****
    Final optimized geometry and variables:
    Molecular point group: c1

    Geometry (in Angstrom), charge = 0, multiplicity = 1:

    H            3.890907414115     0.346585225907    -0.006907124151
    N            3.091045916746    -0.249746734743     0.009615144067
    C            1.861132592876     0.524517450187     0.064101654116
    H            3.178256857013    -0.836982003953     0.812660151506
    C            0.643742340929    -0.385257132075     0.003628347415
    H            1.851288330228     1.191853399368    -0.791094715150
    H            1.794612393130     1.153914394685     0.952716765936
    C           -0.679215105968     0.372895695506     0.056405386038
    H            0.697227581525    -0.983530885429    -0.900095248536
    H            0.685254970739    -1.088305682281     0.833589063076
    C           -1.899391801929    -0.523369006073    -0.132220855493
    H           -0.681301088858     1.150897043513    -0.703828734048
    H           -0.760488505707     0.889091606835     1.010391432664
    C           -3.219434434842     0.236354285106    -0.055978753630
    H           -1.828446614707    -1.027321743480    -1.091949575186
    H           -1.889774534064    -1.304921882430     0.622741954081
    H           -3.273812322399     1.003775111321    -0.821066687850
    H           -4.064232763870    -0.428566108206    -0.194737772158
    H           -3.336398121839     0.722861333814     0.906786021072

  Mulliken Charges: (a.u.)
   Center  Symbol    Alpha    Beta     Spin     Total
       1     H     0.43024  0.43024  0.00000  0.13951
       2     N     3.68908  3.68908  0.00000 -0.37817
       3     C     3.02711  3.02711  0.00000 -0.05422
       4     H     0.43096  0.43096  0.00000  0.13808
       5     C     3.08136  3.08136  0.00000 -0.16271
       6     H     0.45689  0.45689  0.00000  0.08622
       7     H     0.46859  0.46859  0.00000  0.06281
       8     C     3.09346  3.09346  0.00000 -0.18691
       9     H     0.44935  0.44935  0.00000  0.10129
      10     H     0.46010  0.46010  0.00000  0.07979
      11     C     3.08313  3.08313  0.00000 -0.16627
      12     H     0.45547  0.45547  0.00000  0.08906
      13     H     0.45647  0.45647  0.00000  0.08705
      14     C     3.14984  3.14984  0.00000 -0.29967
      15     H     0.45365  0.45365  0.00000  0.09271
      16     H     0.45491  0.45491  0.00000  0.09017
      17     H     0.45521  0.45521  0.00000  0.08958
      18     H     0.44854  0.44854  0.00000  0.10292
      19     H     0.45563  0.45563  0.00000  0.08874

   Total alpha = 25.00000, Total beta = 25.00000, Total charge = -0.00000
