                              Psi4 1.0.54 Driver

  ==> Input File <==

--------------------------------------------------------------------------
set {
	reference rhf
	basis cc-pvtz
}

set_num_threads( 4 )
memory 2 gb

molecule MOL {
0 1

H	 -2.701032	 0.721578	 -1.341281
O	 -3.458596	 0.315260	 -0.960865
C	 -3.176635	 -0.080824	 0.355601
C	 -1.763371	 0.265266	 0.799691
H	 -3.321825	 -1.153438	 0.379502
H	 -3.895468	 0.357385	 1.043382
C	 -0.673390	 -0.426948	 -0.013392
H	 -1.631049	 1.344913	 0.747560
H	 -1.664587	 -0.001624	 1.849167
C	 0.737842	 -0.043159	 0.423759
H	 -0.806103	 -0.190518	 -1.063345
H	 -0.797221	 -1.503753	 0.074146
C	 1.824000	 -0.743224	 -0.390623
H	 0.850588	 1.033777	 0.343840
H	 0.868587	 -0.286314	 1.476203
C	 3.255957	 -0.453067	 0.062319
H	 1.718250	 -0.470599	 -1.438164
H	 1.658105	 -1.815850	 -0.339904
C	 3.707029	 0.992337	 -0.133857
H	 3.928201	 -1.104096	 -0.488158
H	 3.362667	 -0.724561	 1.109374
H	 3.605811	 1.294044	 -1.171549
H	 4.748333	 1.111029	 0.143343
H	 3.129882	 1.683078	 0.468956

	symmetry c1
}
set optking {
	frozen_dihedral = ("
		1 2 3 5
	")
}

ee,wfn = optimize('scf', return_wfn=True)
oeprop( wfn, 'DIPOLE', 'QUADRUPOLE', 'MULLIKEN_CHARGES')
f=open( 'psi4out.xyz', 'w' )
f.write( "24  " )
f.write( str(ee) + "\n" )
f.write( MOL.save_string_xyz() )
f.close()
--------------------------------------------------------------------------

    Molecular point group: c1
  Charge       = 0
  Multiplicity = 1
  Basis Set: CC-PVTZ
  Basis Set:
  @DF-RHF Final Energy:  -349.37688485916965
    Total Energy =                       -349.3768848591696496
    Molecular point group: c1
  Basis Set: CC-PVTZ
  Basis Set:
  Basis Set: CC-PVTZ
  Basis Set:
  @DF-RHF Final Energy:  -349.37699175950621
    Total Energy =                       -349.3769917595060406
  Basis Set: CC-PVTZ
  Basis Set:
  Basis Set: CC-PVTZ
  Basis Set:
  @DF-RHF Final Energy:  -349.37757241166668
    Total Energy =                       -349.3775724116669608
  Basis Set: CC-PVTZ
  Basis Set:
  Basis Set: CC-PVTZ
  Basis Set:
  @DF-RHF Final Energy:  -349.37758555723030
    Total Energy =                       -349.3775855572297928
  Basis Set: CC-PVTZ
  Basis Set:
  Basis Set: CC-PVTZ
  Basis Set:
  @DF-RHF Final Energy:  -349.37759312919161
    Total Energy =                       -349.3775931291916095
  Basis Set: CC-PVTZ
  Basis Set:
  Charge       = 0
  Multiplicity = 1
  Basis Set: CC-PVTZ
  Basis Set:

    Orbital Energies (a.u.)
    -----------------------

    Doubly Occupied:

       1A    -20.542097     2A    -11.264247     3A    -11.221640
       4A    -11.220369     5A    -11.216725     6A    -11.216179
       7A    -11.214941     8A    -11.208721     9A     -1.360622
      10A     -1.096220    11A     -1.053985    12A     -0.990591
      13A     -0.921101    14A     -0.857030    15A     -0.805857
      16A     -0.782393    17A     -0.667014    18A     -0.660586
      19A     -0.635737    20A     -0.626306    21A     -0.607575
      22A     -0.590684    23A     -0.561786    24A     -0.540644
      25A     -0.527131    26A     -0.514895    27A     -0.497218
      28A     -0.480839    29A     -0.478518    30A     -0.465156
      31A     -0.458278    32A     -0.443360    33A     -0.429123

  @DF-RHF Final Energy:  -349.37759291800222

   => Energetics <=

    Nuclear Repulsion Energy =            384.9332405216359234
    One-Electron Energy =               -1236.3065265148657090
    Two-Electron Energy =                 501.9956930752278481
    DFT Exchange-Correlation Energy =       0.0000000000000000
    Empirical Dispersion Energy =           0.0000000000000000
    PCM Polarization Energy =               0.0000000000000000
    EFP Energy =                            0.0000000000000000
    Total Energy =                       -349.3775929180018807
    Molecular point group: c1
  Basis Set: CC-PVTZ
  Basis Set:

  -Total Gradient:
     Atom            X                  Y                   Z
    ------   -----------------  -----------------  -----------------
       1        0.000045318684    -0.000193661462    -0.000065966111
       2        0.000070078296     0.000060528496     0.000171104524
       3       -0.000263167028     0.000147067193     0.000039782992
       4       -0.000032900522     0.000047954722    -0.000068630588
       5        0.000103154761     0.000030799620    -0.000162555395
       6        0.000042767507    -0.000088992120     0.000049438177
       7       -0.000034273402     0.000016523116     0.000023672685
       8        0.000036460315     0.000021426475     0.000002630265
       9        0.000002570384    -0.000013397152     0.000016338506
      10       -0.000015474350    -0.000029507177     0.000008973019
      11       -0.000009191839    -0.000001937386     0.000000888433
      12       -0.000008296516    -0.000035444429    -0.000014346463
      13        0.000000270482     0.000071825137    -0.000024003594
      14       -0.000044090418    -0.000037636492    -0.000008276524
      15        0.000022156935     0.000018392551     0.000038771458
      16       -0.000041326996     0.000005991984     0.000067450701
      17       -0.000012738520     0.000018188803    -0.000030160304
      18        0.000006239380    -0.000022048708    -0.000028112760
      19        0.000037337723    -0.000001458036    -0.000026995916
      20        0.000034300676    -0.000035620330    -0.000013987552
      21        0.000010096038     0.000007963784     0.000056419227
      22       -0.000010967447     0.000019840343    -0.000036373550
      23        0.000033414105    -0.000007064088    -0.000011868860
      24        0.000028261752     0.000000265155     0.000015807630

  **** Optimization is complete! (in 6 steps) ****
    Final optimized geometry and variables:
    Molecular point group: c1

    Geometry (in Angstrom), charge = 0, multiplicity = 1:

    H           -2.894050137155     0.809935906260    -1.111980671019
    O           -3.588469550834     0.391038511944    -0.640793522073
    C           -3.141493948550    -0.056247097868     0.614372961514
    C           -1.691823744870     0.291256999953     0.914702563719
    H           -3.275844926116    -1.132870928409     0.659093373019
    H           -3.780860736998     0.382301007893     1.372161850190
    C           -0.674473806467    -0.412951692650     0.017936245249
    H           -1.565754286715     1.369856105800     0.844553005913
    H           -1.495066483064     0.028740754973     1.950149897276
    C            0.770285839890    -0.050021632135     0.352516465346
    H           -0.864283708974    -0.175420380294    -1.025833167323
    H           -0.808430722188    -1.487661270942     0.107975660225
    C            1.785867711727    -0.759313744379    -0.541195381365
    H            0.890974588265     1.025764818624     0.271834391421
    H            0.970673121739    -0.302352186496     1.391390428355
    C            3.250129102925    -0.495289660826    -0.185634399570
    H            1.613156449905    -0.475482161067    -1.576987499682
    H            1.606689847377    -1.829648378944    -0.487769646721
    C            3.712001190284     0.942991792851    -0.407679181461
    H            3.871600098967    -1.155448209376    -0.782819208437
    H            3.423012081818    -0.773473497994     0.850748161052
    H            3.542642448755     1.252173738328    -1.434272323081
    H            4.772393566869     1.041292091831    -0.205272494466
    H            3.192519368980     1.640855140005     0.237933022498

  Mulliken Charges: (a.u.)
   Center  Symbol    Alpha    Beta     Spin     Total
       1     H     0.39112  0.39112  0.00000  0.21777
       2     O     4.20953  4.20953  0.00000 -0.41906
       3     C     2.95404  2.95404  0.00000  0.09192
       4     C     3.11344  3.11344  0.00000 -0.22689
       5     H     0.47374  0.47374  0.00000  0.05252
       6     H     0.46232  0.46232  0.00000  0.07535
       7     C     3.09090  3.09090  0.00000 -0.18180
       8     H     0.45068  0.45068  0.00000  0.09864
       9     H     0.45106  0.45106  0.00000  0.09789
      10     C     3.09161  3.09161  0.00000 -0.18322
      11     H     0.45684  0.45684  0.00000  0.08633
      12     H     0.45061  0.45061  0.00000  0.09877
      13     C     3.09528  3.09528  0.00000 -0.19056
      14     H     0.45228  0.45228  0.00000  0.09543
      15     H     0.45363  0.45363  0.00000  0.09273
      16     C     3.09048  3.09048  0.00000 -0.18097
      17     H     0.45378  0.45378  0.00000  0.09244
      18     H     0.44885  0.44885  0.00000  0.10230
      19     C     3.15256  3.15256  0.00000 -0.30511
      20     H     0.44797  0.44797  0.00000  0.10406
      21     H     0.45453  0.45453  0.00000  0.09095
      22     H     0.45486  0.45486  0.00000  0.09028
      23     H     0.44592  0.44592  0.00000  0.10816
      24     H     0.45396  0.45396  0.00000  0.09209

   Total alpha = 33.00000, Total beta = 33.00000, Total charge = -0.00000

*** Psi4 exiting successfully. Buy a developer a beer!
