  ==> Input File <==

--------------------------------------------------------------------------
set {
	reference rhf
	basis 6-31G*
}

set_num_threads( 4 )
memory 2 gb

molecule MOL {
0 1

H	 3.006239	 -0.854462	 1.463803
O	 2.091166	 -1.086716	 1.536643
C	 1.324582	 -0.281817	 0.769259
C	 1.860684	 0.738297	 -0.006154
C	 -0.041682	 -0.502579	 0.773572
H	 2.924212	 0.908419	 -0.008082
C	 1.031055	 1.536234	 -0.776012
H	 -0.457072	 -1.290192	 1.372063
C	 -0.865228	 0.300799	 0.000000
H	 1.457493	 2.322572	 -1.372000
C	 -0.335524	 1.322712	 -0.777740
C	 -2.333960	 0.069074	 0.000000
H	 -0.981789	 1.941307	 -1.374973
O	 -2.847347	 -1.003763	 0.000000
H	 -2.943845	 0.977528	 0.000000

	symmetry c1
}
set optking {
	frozen_dihedral = ("
		11 9 12 14
	")
}

ee = optimize('scf')
oeprop('DIPOLE', 'QUADRUPOLE', 'MULLIKEN_CHARGES')
f=open( 'psi4out.xyz', 'w' )
f.write( "15  " )
f.write( str(ee) + "\n" )
f.write( MOL.save_string_xyz() )
f.close()
--------------------------------------------------------------------------

    Molecular point group: c1
  Charge       = 0
  Multiplicity = 1
  Basis Set: 6-31G*
  Basis Set:
  @DF-RHF Final Energy:  -418.28110816557887
    Total Energy =                       -418.2811081655788712
    Molecular point group: c1
  Basis Set: 6-31G*
  Basis Set:
  Basis Set: 6-31G*
  Basis Set:
  @DF-RHF Final Energy:  -418.27929953557589
    Total Energy =                       -418.2792995355754329
  Basis Set: 6-31G*
  Basis Set:
  Basis Set: 6-31G*
  Basis Set:
  @DF-RHF Final Energy:  -418.28157274747508
    Total Energy =                       -418.2815727474746836
  Basis Set: 6-31G*
  Basis Set:
  Basis Set: 6-31G*
  Basis Set:
  @DF-RHF Final Energy:  -418.28170615440553
    Total Energy =                       -418.2817061544051285
  Basis Set: 6-31G*
  Basis Set:
  Basis Set: 6-31G*
  Basis Set:
  @DF-RHF Final Energy:  -418.28170754172424
    Total Energy =                       -418.2817075417239039
  Basis Set: 6-31G*
  Basis Set:
  Charge       = 0
  Multiplicity = 1
  Basis Set: 6-31G*
  Basis Set:

    Orbital Energies (a.u.)
    -----------------------

    Doubly Occupied:

       1A    -20.601804     2A    -20.567519     3A    -11.333855
       4A    -11.312766     5A    -11.253637     6A    -11.252812
       7A    -11.247114     8A    -11.244411     9A    -11.239468
      10A     -1.421569    11A     -1.407404    12A     -1.168871
      13A     -1.048129    14A     -1.026070    15A     -0.899530
      16A     -0.844532    17A     -0.814612    18A     -0.736441
      19A     -0.701440    20A     -0.683919    21A     -0.644112
      22A     -0.637914    23A     -0.612829    24A     -0.600788
      25A     -0.577576    26A     -0.546194    27A     -0.537752
      28A     -0.513682    29A     -0.487661    30A     -0.423790
      31A     -0.353091    32A     -0.324861

  @DF-RHF Final Energy:  -418.28170794178089

   => Energetics <=

    Nuclear Repulsion Energy =            403.0003708356010179
    One-Electron Energy =               -1368.4318562733167255
    Two-Electron Energy =                 547.1497774959351545
    DFT Exchange-Correlation Energy =       0.0000000000000000
    Empirical Dispersion Energy =           0.0000000000000000
    PCM Polarization Energy =               0.0000000000000000
    EFP Energy =                            0.0000000000000000
    Total Energy =                       -418.2817079417806099
    Molecular point group: c1
  Basis Set: 6-31G*
  Basis Set:

  -Total Gradient:
     Atom            X                  Y                   Z
    ------   -----------------  -----------------  -----------------
       1       -0.000003748002     0.000018227167     0.000015989830
       2        0.000001518591    -0.000018448268    -0.000039580721
       3       -0.000012140672     0.000010500663     0.000024279864
       4       -0.000006622628     0.000022508834     0.000006764270
       5        0.000020858342     0.000004092233     0.000022294434
       6        0.000002544348    -0.000006079701    -0.000005316326
       7        0.000036050073    -0.000027288431    -0.000007359559
       8       -0.000002168907     0.000004747473    -0.000001003526
       9       -0.000973376640     0.004818583862     0.002639537201
      10        0.000001995897    -0.000002291439     0.000002106282
      11        0.000711200358    -0.003386880905    -0.003771668708
      12       -0.000015686477    -0.001214243897     0.007483243752
      13       -0.000001125673    -0.000006497839    -0.000006609300
      14        0.000241848755    -0.000206775523    -0.006360630002
      15       -0.000001147372    -0.000010154221    -0.000002047493

  **** Optimization is complete! (in 6 steps) ****
    Final optimized geometry and variables:
    Molecular point group: c1

    Geometry (in Angstrom), charge = 0, multiplicity = 1:

    H            3.017754769499    -0.951958045918     1.228643068054
    O            2.099811563915    -1.163588509051     1.325018507569
    C            1.334193634348    -0.352881281445     0.563412897418
    C            1.871141341428     0.656542875424    -0.223145995061
    C           -0.034836611227    -0.565106038896     0.579783859404
    H            2.936306919908     0.814633577079    -0.241871076257
    C            1.037506585413     1.457861509729    -0.985955353678
    H           -0.442121406716    -1.366215579128     1.166470124011
    C           -0.862309491997     0.260095122080    -0.163394537243
    H            1.463971546026     2.229583945913    -1.600749948040
    C           -0.332197157861     1.270311264555    -0.956864845378
    C           -2.328135489568    -0.008022678574    -0.210915388901
    H           -0.979654190593     1.898784737158    -1.542531814824
    O           -2.805135209087    -1.096690120614    -0.193714513007
    H           -2.962757119706     0.875138433767    -0.329791075734

  Mulliken Charges: (a.u.)
   Center  Symbol    Alpha    Beta     Spin     Total
       1     H     0.27048  0.27048  0.00000  0.45903
       2     O     4.37594  4.37594  0.00000 -0.75188
       3     C     2.79445  2.79445  0.00000  0.41110
       4     C     3.13696  3.13696  0.00000 -0.27391
       5     C     3.11505  3.11505  0.00000 -0.23010
       6     H     0.39958  0.39958  0.00000  0.20085
       7     C     3.09251  3.09251  0.00000 -0.18502
       8     H     0.37522  0.37522  0.00000  0.24955
       9     C     3.03500  3.03500  0.00000 -0.06999
      10     H     0.39332  0.39332  0.00000  0.21336
      11     C     3.11699  3.11699  0.00000 -0.23398
      12     C     2.84342  2.84342  0.00000  0.31315
      13     H     0.39412  0.39412  0.00000  0.21176
      14     O     4.23392  4.23392  0.00000 -0.46785
      15     H     0.42304  0.42304  0.00000  0.15393

   Total alpha = 32.00000, Total beta = 32.00000, Total charge = -0.00000
