  ==> Input File <==

--------------------------------------------------------------------------
set {
	reference rhf
	basis 6-31G*
}

set_num_threads( 1 )
memory 2 gb

molecule MOL {
0 1

H	 -2.172150	 0.880146	 0.502514
C	 -2.018062	 -0.000025	 -0.114509
O	 -0.774054	 0.001095	 -0.743181
H	 -2.760490	 0.003458	 -0.901350
H	 -2.173624	 -0.884374	 0.496163
C	 -0.517189	 -0.916453	 -1.791350
C	 0.917318	 -0.597708	 -2.206805
C	 -0.607970	 -2.362776	 -1.294260
C	 -1.466309	 -0.687060	 -2.971886
H	 1.588290	 -0.733336	 -1.366071
H	 0.991015	 0.433498	 -2.533237
H	 1.241976	 -1.242196	 -3.017294
H	 0.012642	 -2.497059	 -0.414579
H	 -0.263162	 -3.046857	 -2.062857
H	 -1.624140	 -2.645527	 -1.041267
H	 -1.448395	 0.355656	 -3.271010
H	 -1.162882	 -1.290840	 -3.820953
H	 -2.489579	 -0.955849	 -2.732509

	symmetry c1
}
set optking {
	frozen_dihedral = ("
		2 3 6 7
	")
}

ee = energy('scf')
oeprop('DIPOLE', 'QUADRUPOLE', 'MULLIKEN_CHARGES')
f=open( 'psi4out.xyz', 'w' )
f.write( "18  " )
f.write( str(ee) + "\n" )
f.write( MOL.save_string_xyz() )
f.close()
--------------------------------------------------------------------------

    Molecular point group: c1

    Geometry (in Angstrom), charge = 0, multiplicity = 1:

       Center              X                  Y                   Z               Mass
    ------------   -----------------  -----------------  -----------------  -----------------
           H         -1.411233198346     1.634668377261     2.009550488720     1.007825032070
           C         -1.257145198346     0.754497377261     1.392527488720    12.000000000000
           O         -0.013137198346     0.755617377261     0.763855488720    15.994914619560
           H         -1.999573198346     0.757980377261     0.605686488720     1.007825032070
           H         -1.412707198346    -0.129851622739     2.003199488720     1.007825032070
           C          0.243727801654    -0.161930622739    -0.284313511280    12.000000000000
           C          1.678234801654     0.156814377261    -0.699768511280    12.000000000000
           C          0.152946801654    -1.608253622739     0.212776488720    12.000000000000
           C         -0.705392198346     0.067462377261    -1.464849511280    12.000000000000
           H          2.349206801654     0.021186377261     0.140965488720     1.007825032070
           H          1.751931801654     1.188020377261    -1.026200511280     1.007825032070
           H          2.002892801654    -0.487673622739    -1.510257511280     1.007825032070
           H          0.773558801654    -1.742536622739     1.092457488720     1.007825032070
           H          0.497754801654    -2.292334622739    -0.555820511280     1.007825032070
           H         -0.863223198346    -1.891004622739     0.465769488720     1.007825032070
           H         -0.687478198346     1.110178377261    -1.763973511280     1.007825032070
           H         -0.401965198346    -0.536317622739    -2.313916511280     1.007825032070
           H         -1.728662198346    -0.201326622739    -1.225472511280     1.007825032070

  Charge       = 0
  Multiplicity = 1
  Basis Set: 6-31G*
  Basis Set:

    Orbital Energies (a.u.)
    -----------------------

    Doubly Occupied:

       1A    -20.544798     2A    -11.282346     3A    -11.260604
       4A    -11.209077     5A    -11.208761     6A    -11.203419
       7A     -1.369412     8A     -1.072860     9A     -0.946543
      10A     -0.940139    11A     -0.911708    12A     -0.752159
      13A     -0.654064    14A     -0.645546    15A     -0.639634
      16A     -0.593500    17A     -0.576272    18A     -0.549791
      19A     -0.533687    20A     -0.525190    21A     -0.514851
      22A     -0.489200    23A     -0.486452    24A     -0.436179
      25A     -0.403006

  @DF-RHF Final Energy:  -271.17242349057670

   => Energetics <=

    Nuclear Repulsion Energy =            272.4662177365450475
    One-Electron Energy =                -907.7784962927122479
    Two-Electron Energy =                 364.1398550655899271
    DFT Exchange-Correlation Energy =       0.0000000000000000
    Empirical Dispersion Energy =           0.0000000000000000
    PCM Polarization Energy =               0.0000000000000000
    EFP Energy =                            0.0000000000000000
    Total Energy =                       -271.1724234905773301

  Mulliken Charges: (a.u.)
   Center  Symbol    Alpha    Beta     Spin     Total
       1     H     0.41280  0.41280  0.00000  0.17440
       2     C     3.07796  3.07796  0.00000 -0.15592
       3     O     4.32012  4.32012  0.00000 -0.64023
       4     H     0.43118  0.43118  0.00000  0.13764
       5     H     0.42905  0.42905  0.00000  0.14190
       6     C     2.84254  2.84254  0.00000  0.31493
       7     C     3.23271  3.23271  0.00000 -0.46542
       8     C     3.24694  3.24694  0.00000 -0.49388
       9     C     3.24906  3.24906  0.00000 -0.49812
      10     H     0.41385  0.41385  0.00000  0.17230
      11     H     0.41401  0.41401  0.00000  0.17198
      12     H     0.42519  0.42519  0.00000  0.14961
      13     H     0.41311  0.41311  0.00000  0.17378
      14     H     0.41981  0.41981  0.00000  0.16039
      15     H     0.42034  0.42034  0.00000  0.15933
      16     H     0.41291  0.41291  0.00000  0.17418
      17     H     0.41894  0.41894  0.00000  0.16212
      18     H     0.41949  0.41949  0.00000  0.16102

   Total alpha = 25.00000, Total beta = 25.00000, Total charge = -0.00000
