  ==> Input File <==

--------------------------------------------------------------------------
set {
	reference rhf
	basis 6-31G*
}

set_num_threads( 4 )
memory 2 gb

molecule MOL {
0 1

O	 3.225979	 0.970355	 -0.599647
C	 2.701189	 0.057885	 -0.047330
C	 1.245376	 -0.013843	 0.345420
O	 3.347903	 -1.046386	 0.304773
C	 0.455112	 1.231400	 -0.050772
H	 0.838542	 -0.913825	 -0.103701
H	 1.208210	 -0.175333	 1.419774
C	 -0.998893	 1.219485	 0.433193
H	 0.482531	 1.345121	 -1.130325
H	 0.957290	 2.103070	 0.354729
C	 -1.251368	 0.393712	 1.697893
H	 -1.617642	 0.824151	 -0.369045
H	 -1.334948	 2.242380	 0.596780
C	 -2.732092	 0.323264	 2.076696
H	 -0.870193	 -0.615313	 1.548255
H	 -0.694441	 0.809734	 2.534392
C	 -2.995776	 -0.495071	 3.341975
H	 -3.295181	 -0.104771	 1.249078
H	 -3.116563	 1.332462	 2.215982
C	 -4.477219	 -0.563671	 3.711192
H	 -2.611301	 -1.503548	 3.204879
H	 -2.437200	 -0.066167	 4.171321
H	 -4.631864	 -1.150014	 4.611688
H	 -5.058830	 -1.020340	 2.915341
H	 -4.883432	 0.428191	 3.888602
C	 4.728119	 -1.109107	 -0.004993
H	 4.882018	 -1.033965	 -1.071845
H	 5.068212	 -2.067527	 0.355250
H	 5.265056	 -0.311663	 0.488280

	symmetry c1
}
set optking {
	frozen_dihedral = ("
		11 8 5 9
	")
}

ee = optimize('scf')
oeprop('DIPOLE', 'QUADRUPOLE', 'MULLIKEN_CHARGES')
f=open( 'psi4out.xyz', 'w' )
f.write( "29  " )
f.write( str(ee) + "\n" )
f.write( MOL.save_string_xyz() )
f.close()
--------------------------------------------------------------------------

    Molecular point group: c1
  Charge       = 0
  Multiplicity = 1
  Basis Set: 6-31G*
  Basis Set:
  @DF-RHF Final Energy:  -501.03722351377326
    Total Energy =                       -501.0372235137726875
    Molecular point group: c1
  Basis Set: 6-31G*
  Basis Set:
  Basis Set: 6-31G*
  Basis Set:
  @DF-RHF Final Energy:  -501.03793437286174
    Total Energy =                       -501.0379343728623098
  Basis Set: 6-31G*
  Basis Set:
  Basis Set: 6-31G*
  Basis Set:
  @DF-RHF Final Energy:  -501.03928103210058
    Total Energy =                       -501.0392810321001207
  Basis Set: 6-31G*
  Basis Set:
  Basis Set: 6-31G*
  Basis Set:
  @DF-RHF Final Energy:  -501.03933918135181
    Total Energy =                       -501.0393391813522612
  Basis Set: 6-31G*
  Basis Set:
  @DF-RHF Final Energy:  -501.03938624685509
    Total Energy =                       -501.0393862468556563
  Basis Set: 6-31G*
  Basis Set:
  @DF-RHF Final Energy:  -501.03938468365857
    Total Energy =                       -501.0393846836586818
  Basis Set: 6-31G*
  Basis Set:
  Basis Set: 6-31G*
  Basis Set:
  @DF-RHF Final Energy:  -501.03939100309003
    Total Energy =                       -501.0393910030909410
  Basis Set: 6-31G*
  Basis Set:
  Basis Set: 6-31G*
  Basis Set:
  @DF-RHF Final Energy:  -501.03939402757317
    Total Energy =                       -501.0393940275735076
  Basis Set: 6-31G*
  Basis Set:
  Charge       = 0
  Multiplicity = 1
  Basis Set: 6-31G*
  Basis Set:

    Orbital Energies (a.u.)
    -----------------------

    Doubly Occupied:

       1A    -20.603118     2A    -20.545050     3A    -11.371670
       4A    -11.280506     5A    -11.234424     6A    -11.219351
       7A    -11.217787     8A    -11.216753     9A    -11.216205
      10A    -11.214761    11A    -11.209315    12A     -1.468858
      13A     -1.362304    14A     -1.097247    15A     -1.066242
      16A     -1.018593    17A     -0.976948    18A     -0.928463
      19A     -0.864284    20A     -0.798979    21A     -0.791199
      22A     -0.759722    23A     -0.699208    24A     -0.683104
      25A     -0.670812    26A     -0.655685    27A     -0.629837
      28A     -0.603238    29A     -0.592091    30A     -0.580095
      31A     -0.566744    32A     -0.552853    33A     -0.531029
      34A     -0.526144    35A     -0.518852    36A     -0.512289
      37A     -0.499173    38A     -0.479303    39A     -0.467996
      40A     -0.460718    41A     -0.458098    42A     -0.453209
      43A     -0.439746    44A     -0.436850

  @DF-RHF Final Energy:  -501.03939333436517

   => Energetics <=

    Nuclear Repulsion Energy =            612.5292180681432228
    One-Electron Energy =               -1896.1795194678295502
    Two-Electron Energy =                 782.6109080653216097
    DFT Exchange-Correlation Energy =       0.0000000000000000
    Empirical Dispersion Energy =           0.0000000000000000
    PCM Polarization Energy =               0.0000000000000000
    EFP Energy =                            0.0000000000000000
    Total Energy =                       -501.0393933343646040
    Molecular point group: c1
  Basis Set: 6-31G*
  Basis Set:

  -Total Gradient:
     Atom            X                  Y                   Z
    ------   -----------------  -----------------  -----------------
       1       -0.000000572379     0.000025096922    -0.000006524011
       2       -0.000000541959     0.000059562969     0.000040781646
       3       -0.000019355825    -0.000138777742    -0.000007212516
       4       -0.000062745137    -0.000024821864    -0.000024700806
       5       -0.000423419898     0.005894321184    -0.000392966445
       6       -0.000005028891    -0.000015931244     0.000026847744
       7        0.000040737279    -0.000037395524     0.000014915513
       8        0.000630463144     0.004224158672     0.003433540990
       9        0.000232369583    -0.006140443565    -0.000436991234
      10       -0.000013742429     0.000081252039    -0.000133905663
      11       -0.000425196001    -0.003839292189    -0.002461895392
      12       -0.000137015726    -0.000024288962     0.000044444037
      13        0.000150872122    -0.000044906566    -0.000033773370
      14       -0.000004276347     0.000046153522    -0.000031832373
      15        0.000009764704    -0.000027372138    -0.000013661457
      16        0.000019086938    -0.000004336281     0.000051673826
      17        0.000033706075    -0.000037123580    -0.000025986232
      18       -0.000028574498    -0.000010518593    -0.000015733308
      19        0.000001155793    -0.000010442192    -0.000007288900
      20        0.000000137988     0.000007234503    -0.000026291418
      21       -0.000005488643    -0.000018357979     0.000018311371
      22        0.000006442685     0.000007284827    -0.000022217900
      23        0.000011741357     0.000000742820    -0.000003707412
      24       -0.000002043888     0.000003124583     0.000002066424
      25        0.000000207941     0.000001675690     0.000001665702
      26       -0.000003494317     0.000024626343     0.000012818149
      27       -0.000005776806    -0.000000743930     0.000000467064
      28       -0.000006635283     0.000000024712     0.000000346175
      29        0.000007222417    -0.000000506442    -0.000003190194

  **** Optimization is complete! (in 9 steps) ****
    Final optimized geometry and variables:
    Molecular point group: c1

    Geometry (in Angstrom), charge = 0, multiplicity = 1:

    O            2.873565676087     0.911186576252    -1.706507118050
    C            2.422759434791     0.002930887550    -1.085954267737
    C            1.004916089240    -0.101048679563    -0.577130242614
    O            3.131173518699    -1.068089093485    -0.749702828951
    C            0.152867196464     1.112955292598    -0.952958781992
    H            0.587240648142    -1.020061757761    -0.978982925750
    H            1.063671285865    -0.246335256830     0.496221800549
    C           -1.330913341899     1.015652160998    -0.537541765829
    H            0.205262795326     1.200728149833    -2.032016862058
    H            0.609096528891     2.003412338149    -0.536164004396
    C           -1.643215784472     0.215153790253     0.731277070273
    H           -1.890689726972     0.563297451238    -1.354016147706
    H           -1.724245160024     2.022900831882    -0.433000956195
    C           -3.129994396009     0.251217939059     1.091149296725
    H           -1.337930889870    -0.819526430483     0.600924402154
    H           -1.065799430498     0.602855898812     1.569752237499
    C           -3.470655864885    -0.565029147085     2.339267971898
    H           -3.713002614654    -0.120500853755     0.249875037459
    H           -3.439449202595     1.283876070303     1.242357971495
    C           -4.956632128451    -0.521701981351     2.693807495774
    H           -3.166268530926    -1.598628632715     2.188212795845
    H           -2.888363106713    -0.195806692174     3.180847015860
    H           -5.166753586968    -1.109600107868     3.581962693663
    H           -5.564507470694    -0.916364516044     1.884510614802
    H           -5.284329449178     0.496110969658     2.885801131428
    C            4.484705901303    -1.099146279560    -1.164044161804
    H            4.553516571185    -1.056606740750    -2.241544069589
    H            4.883243335884    -2.033535270486    -0.800584203538
    H            5.031233269386    -0.268891648932    -0.740336689165

  Mulliken Charges: (a.u.)
   Center  Symbol    Alpha    Beta     Spin     Total
       1     O     4.28606  4.28606  0.00000 -0.57212
       2     C     2.60432  2.60432  0.00000  0.79137
       3     C     3.21274  3.21274  0.00000 -0.42548
       4     O     4.30754  4.30754  0.00000 -0.61509
       5     C     3.15369  3.15369  0.00000 -0.30739
       6     H     0.40115  0.40115  0.00000  0.19771
       7     H     0.39844  0.39844  0.00000  0.20312
       8     C     3.15609  3.15609  0.00000 -0.31219
       9     H     0.40932  0.40932  0.00000  0.18136
      10     H     0.41097  0.41097  0.00000  0.17806
      11     C     3.15786  3.15786  0.00000 -0.31573
      12     H     0.42221  0.42221  0.00000  0.15558
      13     H     0.41785  0.41785  0.00000  0.16430
      14     C     3.15014  3.15014  0.00000 -0.30028
      15     H     0.42214  0.42214  0.00000  0.15572
      16     H     0.42372  0.42372  0.00000  0.15257
      17     C     3.15139  3.15139  0.00000 -0.30278
      18     H     0.42375  0.42375  0.00000  0.15250
      19     H     0.42318  0.42318  0.00000  0.15363
      20     C     3.23935  3.23935  0.00000 -0.47870
      21     H     0.42333  0.42333  0.00000  0.15333
      22     H     0.42306  0.42306  0.00000  0.15387
      23     H     0.41922  0.41922  0.00000  0.16157
      24     H     0.42171  0.42171  0.00000  0.15659
      25     H     0.42155  0.42155  0.00000  0.15691
      26     C     3.09234  3.09234  0.00000 -0.18468
      27     H     0.40918  0.40918  0.00000  0.18165
      28     H     0.40854  0.40854  0.00000  0.18291
      29     H     0.40916  0.40916  0.00000  0.18168

   Total alpha = 44.00000, Total beta = 44.00000, Total charge = -0.00000
