                              Psi4 1.0.54 Driver

  ==> Input File <==

--------------------------------------------------------------------------
set {
	reference rhf
	basis cc-pvtz
}

set_num_threads( 4 )
memory 2 gb

molecule MOL {
0 1

H	 -3.436473	 1.252944	 -1.023892
O	 -3.458596	 0.315260	 -0.960865
C	 -3.176635	 -0.080824	 0.355601
C	 -1.763371	 0.265266	 0.799691
H	 -3.321825	 -1.153438	 0.379502
H	 -3.895468	 0.357385	 1.043382
C	 -0.673390	 -0.426948	 -0.013392
H	 -1.631049	 1.344913	 0.747560
H	 -1.664587	 -0.001624	 1.849167
C	 -0.472169	 -1.889696	 0.373714
H	 0.259371	 0.112924	 0.106646
H	 -0.927037	 -0.365373	 -1.069033
C	 0.616580	 -2.578014	 -0.447195
H	 -0.229817	 -1.944088	 1.430689
H	 -1.408757	 -2.428852	 0.247340
C	 0.800678	 -4.067568	 -0.151926
H	 1.561955	 -2.063273	 -0.291771
H	 0.380445	 -2.463201	 -1.501557
C	 1.324983	 -4.380922	 1.247380
H	 1.491583	 -4.478843	 -0.881501
H	 -0.143745	 -4.582981	 -0.306312
H	 2.266538	 -3.873752	 1.432661
H	 1.495715	 -5.445051	 1.364521
H	 0.628382	 -4.077011	 2.019384

	symmetry c1
}
set optking {
	frozen_dihedral = ("
		11 7 4 3
	")
}

ee,wfn = optimize('scf', return_wfn=True)
oeprop( wfn, 'DIPOLE', 'QUADRUPOLE', 'MULLIKEN_CHARGES')
f=open( 'psi4out.xyz', 'w' )
f.write( "24  " )
f.write( str(ee) + "\n" )
f.write( MOL.save_string_xyz() )
f.close()
--------------------------------------------------------------------------

    Molecular point group: c1
  Charge       = 0
  Multiplicity = 1
  Basis Set: CC-PVTZ
  Basis Set:
  @DF-RHF Final Energy:  -349.37847525008300
    Total Energy =                       -349.3784752500831132
    Molecular point group: c1
  Basis Set: CC-PVTZ
  Basis Set:
  Basis Set: CC-PVTZ
  Basis Set:
  @DF-RHF Final Energy:  -349.37866217957327
    Total Energy =                       -349.3786621795732117
  Basis Set: CC-PVTZ
  Basis Set:
  Basis Set: CC-PVTZ
  Basis Set:
  @DF-RHF Final Energy:  -349.37868994416880
    Total Energy =                       -349.3786899441689684
  Basis Set: CC-PVTZ
  Basis Set:
  Charge       = 0
  Multiplicity = 1
  Basis Set: CC-PVTZ
  Basis Set:

    Orbital Energies (a.u.)
    -----------------------

    Doubly Occupied:

       1A    -20.546584     2A    -11.265207     3A    -11.215513
       4A    -11.211117     5A    -11.209283     6A    -11.208806
       7A    -11.208385     8A    -11.204563     9A     -1.364497
      10A     -1.088884    11A     -1.048034    12A     -0.984370
      13A     -0.915630    14A     -0.858387    15A     -0.796336
      16A     -0.775048    17A     -0.681006    18A     -0.650205
      19A     -0.633928    20A     -0.615972    21A     -0.604023
      22A     -0.577350    23A     -0.557571    24A     -0.538384
      25A     -0.526776    26A     -0.513675    27A     -0.490314
      28A     -0.482294    29A     -0.468919    30A     -0.458908
      31A     -0.452210    32A     -0.438017    33A     -0.427553

  @DF-RHF Final Energy:  -349.37869035919255

   => Energetics <=

    Nuclear Repulsion Energy =            389.6901555237419643
    One-Electron Energy =               -1246.1021933983074632
    Two-Electron Energy =                 507.0333475153725544
    DFT Exchange-Correlation Energy =       0.0000000000000000
    Empirical Dispersion Energy =           0.0000000000000000
    PCM Polarization Energy =               0.0000000000000000
    EFP Energy =                            0.0000000000000000
    Total Energy =                       -349.3786903591929445
    Molecular point group: c1
  Basis Set: CC-PVTZ
  Basis Set:

  -Total Gradient:
     Atom            X                  Y                   Z
    ------   -----------------  -----------------  -----------------
       1       -0.000004987882    -0.000049533495     0.000003483671
       2        0.000047586089     0.000034779137    -0.000003592826
       3        0.000005001811     0.000854365523    -0.000676372030
       4       -0.000126445343    -0.001020244220     0.000737696587
       5        0.000006586523     0.000028350205    -0.000006150008
       6        0.000009137922    -0.000007864099    -0.000001605822
       7        0.000385390837    -0.000670555294     0.001136633799
       8       -0.000004029547    -0.000012150727    -0.000009567854
       9       -0.000004504829    -0.000007166421    -0.000011002193
      10        0.000028356196    -0.000009114085     0.000024342199
      11       -0.000318130978     0.000824892677    -0.001180926918
      12       -0.000014215500     0.000010639453     0.000000724781
      13       -0.000042211141     0.000025479614    -0.000017221333
      14       -0.000005282424    -0.000006849236     0.000024660314
      15        0.000017563305     0.000019543351    -0.000009104982
      16        0.000040955955    -0.000010507140    -0.000010354789
      17       -0.000002153101    -0.000006686875    -0.000011602910
      18       -0.000003584898     0.000003146131    -0.000001123586
      19       -0.000014766267     0.000000988368     0.000001339030
      20        0.000007113833    -0.000010413549     0.000007471617
      21        0.000009090741    -0.000000473798    -0.000003783396
      22       -0.000003859141    -0.000006440653    -0.000007806188
      23       -0.000007344402     0.000000255279     0.000004758023
      24       -0.000005267759     0.000015559849     0.000009104813

  **** Optimization is complete! (in 4 steps) ****
    Final optimized geometry and variables:
    Molecular point group: c1

    Geometry (in Angstrom), charge = 0, multiplicity = 1:

    H           -2.502231808494     2.826842009506    -1.191375571132
    O           -2.570798623966     1.893597532353    -1.101490627803
    C           -2.301940580130     1.520859871415     0.224209442934
    C           -0.878174726187     1.843495186172     0.659021359725
    H           -2.488570523742     0.456792812584     0.274134909846
    H           -3.004437881505     2.000222939006     0.901316807019
    C            0.213395753918     1.132088286165    -0.144643264167
    H           -0.738751756251     2.919519492726     0.576996073120
    H           -0.778456745238     1.607257019944     1.715410719799
    C            0.423144548761    -0.331530952155     0.239018043973
    H            1.148410258065     1.670129782049    -0.017962476771
    H           -0.029624245061     1.198736081456    -1.199655816823
    C            1.516352441152    -1.005876097209    -0.587985987721
    H            0.669079823866    -0.386217869868     1.295214587679
    H           -0.504257394673    -0.883116756173     0.110705271664
    C            1.717606490913    -2.494243074391    -0.297723455446
    H            2.457252039320    -0.481922314115    -0.434484454371
    H            1.274220704865    -0.890316912919    -1.640663538417
    C            2.245049931236    -2.806715690385     1.100620988230
    H            2.413340450460    -2.895051156946    -1.028564059266
    H            0.779265566593    -3.019749849747    -0.454500431328
    H            3.180619378452    -2.289368681809     1.288319972780
    H            2.428106270320    -3.869212447919     1.213918177540
    H            1.544767528623    -2.513807227416     1.873548284107

  Mulliken Charges: (a.u.)
   Center  Symbol    Alpha    Beta     Spin     Total
       1     H     0.39475  0.39475  0.00000  0.21050
       2     O     4.20377  4.20377  0.00000 -0.40754
       3     C     2.97584  2.97584  0.00000  0.04833
       4     C     3.11085  3.11085  0.00000 -0.22170
       5     H     0.45777  0.45777  0.00000  0.08446
       6     H     0.45989  0.45989  0.00000  0.08022
       7     C     3.09381  3.09381  0.00000 -0.18761
       8     H     0.45203  0.45203  0.00000  0.09593
       9     H     0.45377  0.45377  0.00000  0.09246
      10     C     3.09420  3.09420  0.00000 -0.18839
      11     H     0.44911  0.44911  0.00000  0.10179
      12     H     0.44774  0.44774  0.00000  0.10452
      13     C     3.09474  3.09474  0.00000 -0.18948
      14     H     0.45375  0.45375  0.00000  0.09250
      15     H     0.45372  0.45372  0.00000  0.09257
      16     C     3.08993  3.08993  0.00000 -0.17986
      17     H     0.45437  0.45437  0.00000  0.09126
      18     H     0.44807  0.44807  0.00000  0.10386
      19     C     3.15259  3.15259  0.00000 -0.30518
      20     H     0.44874  0.44874  0.00000  0.10252
      21     H     0.45458  0.45458  0.00000  0.09084
      22     H     0.45522  0.45522  0.00000  0.08955
      23     H     0.44656  0.44656  0.00000  0.10689
      24     H     0.45421  0.45421  0.00000  0.09157

   Total alpha = 33.00000, Total beta = 33.00000, Total charge =  0.00000

*** Psi4 exiting successfully. Buy a developer a beer!
