  ==> Input File <==

--------------------------------------------------------------------------
set {
	reference rhf
	basis cc-pvtz
}

set_num_threads( 4 )
memory 2 gb

molecule MOL {
0 1

O	 0.749630	 1.305591	 -0.000460
C	 0.576499	 0.134701	 -0.003900
C	 -0.765656	 -0.550508	 -0.002152
O	 1.564816	 -0.744612	 -0.000631
C	 -1.945526	 0.411052	 0.000603
H	 -0.794329	 -1.203792	 -0.868145
H	 -0.791555	 -1.205429	 0.862701
C	 -1.992350	 1.265913	 -1.261120
H	 -1.886370	 1.046690	 0.875736
H	 -2.865367	 -0.152419	 0.099456
H	 -1.093542	 1.864649	 -1.365861
H	 -2.838165	 1.942327	 -1.238265
H	 -2.084650	 0.651856	 -2.150919
C	 2.884339	 -0.237801	 0.002883
H	 3.064150	 0.362814	 -0.876312
H	 3.533055	 -1.098529	 0.004958
H	 3.059365	 0.363432	 0.882614

	symmetry c1
}
set optking {
	frozen_dihedral = ("
		9 5 3 6
	")
}

ee = optimize('scf')
oeprop('DIPOLE', 'QUADRUPOLE', 'MULLIKEN_CHARGES')
f=open( 'psi4out.xyz', 'w' )
f.write( "17  " )
f.write( str(ee) + "\n" )
f.write( MOL.save_string_xyz() )
f.close()
--------------------------------------------------------------------------

    Molecular point group: c1
  Charge       = 0
  Multiplicity = 1
  Basis Set: CC-PVTZ
  Basis Set:
  @DF-RHF Final Energy:  -345.03305163252224
    Total Energy =                       -345.0330516325223016
    Molecular point group: c1
  Basis Set: CC-PVTZ
  Basis Set:
  Basis Set: CC-PVTZ
  Basis Set:
  @DF-RHF Final Energy:  -345.03424018012242
    Total Energy =                       -345.0342401801214010
  Basis Set: CC-PVTZ
  Basis Set:
  Basis Set: CC-PVTZ
  Basis Set:
  @DF-RHF Final Energy:  -345.03427048993569
    Total Energy =                       -345.0342704899352384
  Basis Set: CC-PVTZ
  Basis Set:
  Basis Set: CC-PVTZ
  Basis Set:
  @DF-RHF Final Energy:  -345.03437686531970
    Total Energy =                       -345.0343768653204961
  Basis Set: CC-PVTZ
  Basis Set:
  @DF-RHF Final Energy:  -345.03448921759832
    Total Energy =                       -345.0344892175979226
  @DF-RHF Final Energy:  -345.03455433900166
    Total Energy =                       -345.0345543390015450
  @DF-RHF Final Energy:  -345.03460612577481
    Total Energy =                       -345.0346061257745305
  @DF-RHF Final Energy:  -345.03464489499544
    Total Energy =                       -345.0346448949952674
  @DF-RHF Final Energy:  -345.03467139674729
    Total Energy =                       -345.0346713967471715
  Basis Set: CC-PVTZ
  Basis Set:
  @DF-RHF Final Energy:  -345.03468589422272
    Total Energy =                       -345.0346858942227186
  Basis Set: CC-PVTZ
  Basis Set:
  Basis Set: CC-PVTZ
  Basis Set:
  @DF-RHF Final Energy:  -345.03468777168609
    Total Energy =                       -345.0346877716859240
  Basis Set: CC-PVTZ
  Basis Set:
  Basis Set: CC-PVTZ
  Basis Set:
  @DF-RHF Final Energy:  -345.03468888276223
    Total Energy =                       -345.0346888827625662
  Basis Set: CC-PVTZ
  Basis Set:
  Charge       = 0
  Multiplicity = 1
  Basis Set: CC-PVTZ
  Basis Set:

    Orbital Energies (a.u.)
    -----------------------

    Doubly Occupied:

       1A    -20.597671     2A    -20.534431     3A    -11.365640
       4A    -11.279161     5A    -11.234469     6A    -11.221241
       7A    -11.206386     8A     -1.473344     9A     -1.366549
      10A     -1.080260    11A     -1.000634    12A     -0.939726
      13A     -0.830508    14A     -0.768252    15A     -0.702772
      16A     -0.685060    17A     -0.675315    18A     -0.622672
      19A     -0.615333    20A     -0.568923    21A     -0.564743
      22A     -0.536472    23A     -0.525410    24A     -0.490210
      25A     -0.485069    26A     -0.482212    27A     -0.460783
      28A     -0.439638

  @DF-RHF Final Energy:  -345.03468928738982

   => Energetics <=

    Nuclear Repulsion Energy =            318.5791996998826789
    One-Electron Energy =               -1101.7220140485724187
    Two-Electron Energy =                 438.1081250612993472
    DFT Exchange-Correlation Energy =       0.0000000000000000
    Empirical Dispersion Energy =           0.0000000000000000
    PCM Polarization Energy =               0.0000000000000000
    EFP Energy =                            0.0000000000000000
    Total Energy =                       -345.0346892873903926
    Molecular point group: c1
  Basis Set: CC-PVTZ
  Basis Set:

  -Total Gradient:
     Atom            X                  Y                   Z
    ------   -----------------  -----------------  -----------------
       1       -0.000004476933     0.000003815453     0.000000152240
       2        0.000004970797    -0.000007038174    -0.000004760794
       3        0.000640754678     0.000715795090    -0.000623435851
       4       -0.000007499186     0.000002075970     0.000003286047
       5        0.000592851337     0.000666127684    -0.000575532708
       6       -0.000620244533    -0.000694902568     0.000604912467
       7       -0.000000180882     0.000000095425    -0.000001445278
       8        0.000002308636    -0.000000368519     0.000001353718
       9       -0.000610955553    -0.000685248452     0.000593994078
      10        0.000000360614    -0.000000333343     0.000000407457
      11       -0.000000042265     0.000000036498     0.000000318094
      12       -0.000000076753    -0.000000517423     0.000000728463
      13        0.000000305459    -0.000000267228     0.000000479833
      14        0.000003649824     0.000001526364    -0.000000467263
      15        0.000000340179    -0.000000052380     0.000000144276
      16       -0.000001148037    -0.000000351026     0.000000044129
      17       -0.000000917376    -0.000000393369    -0.000000178911

  **** Optimization is complete! (in 13 steps) ****
    Final optimized geometry and variables:
    Molecular point group: c1

    Geometry (in Angstrom), charge = 0, multiplicity = 1:

    O            0.592870567017     1.040158175123     0.535985770996
    C            0.394307626133    -0.095237211716     0.264727631021
    C           -0.961096161029    -0.754286545628     0.206415423765
    O            1.363144452547    -0.957951417579     0.009280166401
    C           -2.133726942657     0.216420113436     0.121260024663
    H           -0.968740573121    -1.460643317552    -0.614746740177
    H           -1.034572725428    -1.352053027226     1.110604183853
    C           -2.201971275591     0.992301025572    -1.190353285253
    H           -2.089550873810     0.903143093777     0.957262886093
    H           -3.045440764431    -0.359756482444     0.241944366103
    H           -1.328259452587     1.616264963524    -1.324667149072
    H           -3.074254551657     1.634967712842    -1.208723219180
    H           -2.272466142640     0.318131974775    -2.038382371357
    C            2.692242325196    -0.483024403451     0.086840321269
    H            2.853845241066     0.314458574560    -0.623030737249
    H            3.323025958467    -1.324703387389    -0.148702447750
    H            2.910037831199    -0.120103868240     1.080372946203

  Mulliken Charges: (a.u.)
   Center  Symbol    Alpha    Beta     Spin     Total
       1     O     4.19973  4.19973  0.00000 -0.39946
       2     C     2.80539  2.80539  0.00000  0.38921
       3     C     3.10346  3.10346  0.00000 -0.20691
       4     O     4.14591  4.14591  0.00000 -0.29181
       5     C     3.08340  3.08340  0.00000 -0.16680
       6     H     0.43813  0.43813  0.00000  0.12374
       7     H     0.43642  0.43642  0.00000  0.12717
       8     C     3.15360  3.15360  0.00000 -0.30721
       9     H     0.44632  0.44632  0.00000  0.10735
      10     H     0.44822  0.44822  0.00000  0.10356
      11     H     0.44399  0.44399  0.00000  0.11201
      12     H     0.44786  0.44786  0.00000  0.10429
      13     H     0.45756  0.45756  0.00000  0.08487
      14     C     3.03622  3.03622  0.00000 -0.07245
      15     H     0.45418  0.45418  0.00000  0.09165
      16     H     0.44520  0.44520  0.00000  0.10960
      17     H     0.45441  0.45441  0.00000  0.09119

   Total alpha = 28.00000, Total beta = 28.00000, Total charge = -0.00000
