  ==> Input File <==

--------------------------------------------------------------------------
set {
	reference rhf
	basis 6-31G*
}

set_num_threads( 1 )
memory 2 gb

molecule MOL {
0 1

H	 -0.442650	 3.344560	 2.046343
O	 -0.364373	 3.497236	 1.115241
C	 -0.248506	 2.271243	 0.444045
C	 1.132049	 1.667840	 0.632828
H	 -1.004841	 1.562529	 0.769683
H	 -0.414696	 2.470733	 -0.605257
O	 1.171513	 0.459272	 -0.058250
H	 1.329411	 1.508977	 1.694803
H	 1.886568	 2.358490	 0.260958
C	 2.397842	 -0.198080	 -0.002151
H	 2.508049	 -0.905315	 -0.822092
H	 3.173794	 0.550865	 -0.078850
H	 2.517602	 -0.735921	 0.936026

	symmetry c1
}
set optking {
	frozen_dihedral = ("
		8 4 3 5,
		1 2 3 5,
		10 7 4 8
	")
}

ee = energy('scf')
oeprop('DIPOLE', 'QUADRUPOLE', 'MULLIKEN_CHARGES')
f=open( 'psi4out.xyz', 'w' )
f.write( "13  " )
f.write( str(ee) + "\n" )
f.write( MOL.save_string_xyz() )
f.close()
--------------------------------------------------------------------------

    Molecular point group: c1

    Geometry (in Angstrom), charge = 0, multiplicity = 1:

       Center              X                  Y                   Z               Mass
    ------------   -----------------  -----------------  -----------------  -----------------
           H         -1.256756099996     1.787602188187     1.598788112028     1.007825032070
           O         -1.178479099996     1.940278188187     0.667686112028    15.994914619560
           C         -1.062612099996     0.714285188187    -0.003509887972    12.000000000000
           C          0.317942900004     0.110882188187     0.185273112028    12.000000000000
           H         -1.818947099996     0.005571188187     0.322128112028     1.007825032070
           H         -1.228802099996     0.913775188187    -1.052811887972     1.007825032070
           O          0.357406900004    -1.097685811813    -0.505804887972    15.994914619560
           H          0.515304900004    -0.047980811813     1.247248112028     1.007825032070
           H          1.072461900004     0.801532188187    -0.186596887972     1.007825032070
           C          1.583735900004    -1.755037811813    -0.449705887972    12.000000000000
           H          1.693942900004    -2.462272811813    -1.269646887972     1.007825032070
           H          2.359687900004    -1.006092811813    -0.526404887972     1.007825032070
           H          1.703495900004    -2.292878811813     0.488471112028     1.007825032070

  Charge       = 0
  Multiplicity = 1
  Basis Set: 6-31G*
  Basis Set:

    Orbital Energies (a.u.)
    -----------------------

    Doubly Occupied:

       1A    -20.560874     2A    -20.560341     3A    -11.271661
       4A    -11.270393     5A    -11.269160     6A     -1.388527
       7A     -1.365341     8A     -1.018150     9A     -0.913284
      10A     -0.842858    11A     -0.710162    12A     -0.673540
      13A     -0.657867    14A     -0.641060    15A     -0.595150
      16A     -0.570598    17A     -0.546077    18A     -0.489974
      19A     -0.480152    20A     -0.438803    21A     -0.420646

  @DF-RHF Final Energy:  -267.94846057961831

   => Energetics <=

    Nuclear Repulsion Energy =            190.3135156967390174
    One-Electron Energy =                -743.1547380727733980
    Two-Electron Energy =                 284.8927617964168348
    DFT Exchange-Correlation Energy =       0.0000000000000000
    Empirical Dispersion Energy =           0.0000000000000000
    PCM Polarization Energy =               0.0000000000000000
    EFP Energy =                            0.0000000000000000
    Total Energy =                       -267.9484605796175174

  Mulliken Charges: (a.u.)
   Center  Symbol    Alpha    Beta     Spin     Total
       1     H     0.28122  0.28122  0.00000  0.43756
       2     O     4.37085  4.37085  0.00000 -0.74171
       3     C     3.00468  3.00468  0.00000 -0.00937
       4     C     2.99727  2.99727  0.00000  0.00547
       5     H     0.42206  0.42206  0.00000  0.15589
       6     H     0.40835  0.40835  0.00000  0.18330
       7     O     4.30878  4.30878  0.00000 -0.61756
       8     H     0.43754  0.43754  0.00000  0.12491
       9     H     0.42262  0.42262  0.00000  0.15476
      10     C     3.07800  3.07800  0.00000 -0.15599
      11     H     0.41213  0.41213  0.00000  0.17574
      12     H     0.42934  0.42934  0.00000  0.14133
      13     H     0.42717  0.42717  0.00000  0.14566

   Total alpha = 21.00000, Total beta = 21.00000, Total charge = -0.00000
