  ==> Input File <==

--------------------------------------------------------------------------
set {
	reference rhf
	basis 6-31G*
}

set_num_threads( 4 )
memory 2 gb

molecule MOL {
0 1

H	 -2.273092	 1.173159	 0.000295
O	 -1.438904	 1.618192	 0.000114
C	 -0.409536	 0.736003	 0.000030
C	 0.819990	 1.215304	 -0.423921
C	 -0.563073	 -0.588834	 0.402739
H	 0.894412	 2.243543	 -0.725874
C	 1.915761	 0.373838	 -0.450941
C	 0.555605	 -1.412332	 0.365336
C	 -1.905446	 -1.109903	 0.864830
H	 2.866925	 0.751867	 -0.780903
C	 1.789198	 -0.948094	 -0.055399
H	 0.453522	 -2.438541	 0.673262
H	 -2.662070	 -1.031107	 0.086849
H	 -1.836651	 -2.155267	 1.137699
H	 -2.270877	 -0.574148	 1.738571
H	 2.637191	 -1.608221	 -0.073845

	symmetry c1
}
set optking {
	frozen_dihedral = ("
		4 3 2 1
	")
}

ee = optimize('scf')
oeprop('DIPOLE', 'QUADRUPOLE', 'MULLIKEN_CHARGES')
f=open( 'psi4out.xyz', 'w' )
f.write( "16  " )
f.write( str(ee) + "\n" )
f.write( MOL.save_string_xyz() )
f.close()
--------------------------------------------------------------------------

    Molecular point group: c1
  Charge       = 0
  Multiplicity = 1
  Basis Set: 6-31G*
  Basis Set:
  @DF-RHF Final Energy:  -344.59336196603380
    Total Energy =                       -344.5933619660341947
    Molecular point group: c1
  Basis Set: 6-31G*
  Basis Set:
  Basis Set: 6-31G*
  Basis Set:
  @DF-RHF Final Energy:  -344.59342327349862
    Total Energy =                       -344.5934232734985585
  Basis Set: 6-31G*
  Basis Set:
  Basis Set: 6-31G*
  Basis Set:
  @DF-RHF Final Energy:  -344.59343603232514
    Total Energy =                       -344.5934360323251440
  Basis Set: 6-31G*
  Basis Set:
  Basis Set: 6-31G*
  Basis Set:
  @DF-RHF Final Energy:  -344.59343724504862
    Total Energy =                       -344.5934372450483920
  Basis Set: 6-31G*
  Basis Set:
  Charge       = 0
  Multiplicity = 1
  Basis Set: 6-31G*
  Basis Set:

    Orbital Energies (a.u.)
    -----------------------

    Doubly Occupied:

       1A    -20.586269     2A    -11.291359     3A    -11.235073
       4A    -11.233033     5A    -11.230961     6A    -11.229639
       7A    -11.220011     8A    -11.219673     9A     -1.404340
      10A     -1.148719    11A     -1.048314    12A     -1.004009
      13A     -0.940881    14A     -0.824786    15A     -0.818520
      16A     -0.729430    17A     -0.675592    18A     -0.643855
      19A     -0.610814    20A     -0.598520    21A     -0.574444
      22A     -0.568520    23A     -0.554501    24A     -0.547665
      25A     -0.502482    26A     -0.482905    27A     -0.471911
      28A     -0.329206    29A     -0.305766

  @DF-RHF Final Energy:  -344.59343736273928

   => Energetics <=

    Nuclear Repulsion Energy =            350.1240453263596351
    One-Electron Energy =               -1161.3725681126666132
    Two-Electron Energy =                 466.6550854235680390
    DFT Exchange-Correlation Energy =       0.0000000000000000
    Empirical Dispersion Energy =           0.0000000000000000
    PCM Polarization Energy =               0.0000000000000000
    EFP Energy =                            0.0000000000000000
    Total Energy =                       -344.5934373627388823
    Molecular point group: c1
  Basis Set: 6-31G*
  Basis Set:

  -Total Gradient:
     Atom            X                  Y                   Z
    ------   -----------------  -----------------  -----------------
       1       -0.000004652788     0.000019969445    -0.001019184203
       2       -0.000089103984    -0.000088504054     0.000952141756
       3        0.000255408496     0.000216812400     0.000765904644
       4       -0.000153488953    -0.000180169479    -0.000707089108
       5       -0.000014526004     0.000025995993    -0.000003944556
       6        0.000000748037     0.000000792509     0.000008646642
       7       -0.000007558787     0.000020937166    -0.000002392524
       8        0.000028313182    -0.000007127786    -0.000030241529
       9        0.000003665865     0.000003441993     0.000016381624
      10        0.000002152293    -0.000005400545     0.000001026428
      11       -0.000015679164    -0.000013303111     0.000026945199
      12       -0.000001407148     0.000004471251     0.000003447790
      13       -0.000004068875    -0.000001363283    -0.000009698231
      14       -0.000000558794     0.000005782592     0.000000133971
      15       -0.000003905720    -0.000004838207     0.000003888382
      16        0.000004662346     0.000002503111    -0.000005966288

  **** Optimization is complete! (in 5 steps) ****
    Final optimized geometry and variables:
    Molecular point group: c1

    Geometry (in Angstrom), charge = 0, multiplicity = 1:

    H           -2.284156264875     1.157289467545    -0.081150969779
    O           -1.451118765278     1.605310132599    -0.077876381457
    C           -0.419543513729     0.722529392095    -0.098099145873
    C            0.809580314509     1.203406329877    -0.518786983658
    C           -0.574538803409    -0.604199128603     0.298171383984
    H            0.884312212007     2.232387321767    -0.818117519959
    C            1.906989622035     0.362624224308    -0.544302996719
    C            0.542090232807    -1.429315862635     0.254258924537
    C           -1.916504091208    -1.119865173934     0.765426164282
    H            2.859235042119     0.741979687788    -0.869528243614
    C            1.777505888176    -0.961679546838    -0.159773405592
    H            0.439269671421    -2.457143743718     0.556414614209
    H           -2.663181608418    -1.094795682756    -0.026928923094
    H           -1.838822342461    -2.148802180672     1.093250379937
    H           -2.300709815186    -0.538602451782     1.599438580912
    H            2.625448224949    -1.621929366005    -0.180439918548

  Mulliken Charges: (a.u.)
   Center  Symbol    Alpha    Beta     Spin     Total
       1     H     0.26747  0.26747  0.00000  0.46506
       2     O     4.38262  4.38262  0.00000 -0.76524
       3     C     2.81944  2.81944  0.00000  0.36113
       4     C     3.11838  3.11838  0.00000 -0.23675
       5     C     3.00571  3.00571  0.00000 -0.01141
       6     H     0.39219  0.39219  0.00000  0.21563
       7     C     3.09611  3.09611  0.00000 -0.19223
       8     C     3.10733  3.10733  0.00000 -0.21466
       9     C     3.27227  3.27227  0.00000 -0.54455
      10     H     0.39895  0.39895  0.00000  0.20210
      11     C     3.10785  3.10785  0.00000 -0.21570
      12     H     0.40162  0.40162  0.00000  0.19675
      13     H     0.41634  0.41634  0.00000  0.16733
      14     H     0.40508  0.40508  0.00000  0.18984
      15     H     0.40763  0.40763  0.00000  0.18474
      16     H     0.40101  0.40101  0.00000  0.19798

   Total alpha = 29.00000, Total beta = 29.00000, Total charge =  0.00000
