  ==> Input File <==

--------------------------------------------------------------------------
set {
	reference rhf
	basis 6-31G*
}

set_num_threads( 1 )
memory 2 gb

molecule MOL {
0 1

H	 -4.236494	 0.538104	 0.039757
O	 -3.517110	 -0.026191	 -0.205115
C	 -2.306886	 0.532354	 0.237577
C	 -1.177863	 -0.397191	 -0.171080
H	 -2.156308	 1.517575	 -0.201710
H	 -2.315015	 0.655684	 1.319734
C	 0.198102	 0.111031	 0.262842
H	 -1.208843	 -0.518759	 -1.250427
H	 -1.368741	 -1.376554	 0.258909
C	 1.331804	 -0.827780	 -0.158768
H	 0.361943	 1.100838	 -0.156218
H	 0.217265	 0.229072	 1.345532
C	 2.723619	 -0.410569	 0.329459
H	 1.342964	 -0.912588	 -1.244120
H	 1.116806	 -1.824343	 0.220779
C	 3.286454	 -1.274052	 1.459923
H	 2.673049	 0.620406	 0.670958
H	 3.416191	 -0.417673	 -0.509862
H	 2.608316	 -1.295785	 2.308861
H	 3.454304	 -2.298455	 1.144326
H	 4.237106	 -0.881559	 1.807721

	symmetry c1
}
set optking {
	frozen_dihedral = ("
		2 3 4 8,
		8 4 7 10,
		4 7 10 14,
		1 2 3 5
	")
}

ee = energy('scf')
oeprop('DIPOLE', 'QUADRUPOLE', 'MULLIKEN_CHARGES')
f=open( 'psi4out.xyz', 'w' )
f.write( "21  " )
f.write( str(ee) + "\n" )
f.write( MOL.save_string_xyz() )
f.close()
--------------------------------------------------------------------------

    Molecular point group: c1

    Geometry (in Angstrom), charge = 0, multiplicity = 1:

       Center              X                  Y                   Z               Mass
    ------------   -----------------  -----------------  -----------------  -----------------
           H         -4.242499070416     0.856557311836    -0.215255414813     1.007825032070
           O         -3.523115070416     0.292262311836    -0.460127414813    15.994914619560
           C         -2.312891070416     0.850807311836    -0.017435414813    12.000000000000
           C         -1.183868070416    -0.078737688164    -0.426092414813    12.000000000000
           H         -2.162313070416     1.836028311836    -0.456722414813     1.007825032070
           H         -2.321020070416     0.974137311836     1.064721585187     1.007825032070
           C          0.192096929584     0.429484311836     0.007829585187    12.000000000000
           H         -1.214848070416    -0.200305688164    -1.505439414813     1.007825032070
           H         -1.374746070416    -1.058100688164     0.003896585187     1.007825032070
           C          1.325798929584    -0.509326688164    -0.413780414813    12.000000000000
           H          0.355937929584     1.419291311836    -0.411230414813     1.007825032070
           H          0.211259929584     0.547525311836     1.090519585187     1.007825032070
           C          2.717613929584    -0.092115688164     0.074446585187    12.000000000000
           H          1.336958929584    -0.594134688164    -1.499132414813     1.007825032070
           H          1.110800929584    -1.505889688164    -0.034233414813     1.007825032070
           C          3.280448929584    -0.955598688164     1.204910585187    12.000000000000
           H          2.667043929584     0.938859311836     0.415945585187     1.007825032070
           H          3.410185929584    -0.099219688164    -0.764874414813     1.007825032070
           H          2.602310929584    -0.977331688164     2.053848585187     1.007825032070
           H          3.448298929584    -1.980001688164     0.889313585187     1.007825032070
           H          4.231100929584    -0.563105688164     1.552708585187     1.007825032070

  Charge       = 0
  Multiplicity = 1
  Basis Set: 6-31G*
  Basis Set:

    Orbital Energies (a.u.)
    -----------------------

    Doubly Occupied:

       1A    -20.551877     2A    -11.267137     3A    -11.216737
       4A    -11.213658     5A    -11.212172     6A    -11.210503
       7A    -11.208635     8A     -1.358702     9A     -1.085691
      10A     -1.033745    11A     -0.955911    12A     -0.870921
      13A     -0.804125    14A     -0.786740    15A     -0.692481
      16A     -0.661620    17A     -0.622262    18A     -0.605567
      19A     -0.586045    20A     -0.563684    21A     -0.542320
      22A     -0.522441    23A     -0.507339    24A     -0.486978
      25A     -0.478442    26A     -0.461024    27A     -0.453589
      28A     -0.443035    29A     -0.434017

  @DF-RHF Final Energy:  -310.20887136467348

   => Energetics <=

    Nuclear Repulsion Energy =            310.3585251922277735
    One-Electron Energy =               -1035.4602529483372564
    Two-Electron Energy =                 414.8928563914378174
    DFT Exchange-Correlation Energy =       0.0000000000000000
    Empirical Dispersion Energy =           0.0000000000000000
    PCM Polarization Energy =               0.0000000000000000
    EFP Energy =                            0.0000000000000000
    Total Energy =                       -310.2088713646717224

  Mulliken Charges: (a.u.)
   Center  Symbol    Alpha    Beta     Spin     Total
       1     H     0.28118  0.28118  0.00000  0.43765
       2     O     4.37172  4.37172  0.00000 -0.74345
       3     C     2.98981  2.98981  0.00000  0.02038
       4     C     3.15989  3.15989  0.00000 -0.31978
       5     H     0.43293  0.43293  0.00000  0.13414
       6     H     0.43289  0.43289  0.00000  0.13421
       7     C     3.16195  3.16195  0.00000 -0.32390
       8     H     0.41469  0.41469  0.00000  0.17063
       9     H     0.41455  0.41455  0.00000  0.17090
      10     C     3.15389  3.15389  0.00000 -0.30777
      11     H     0.42271  0.42271  0.00000  0.15458
      12     H     0.42361  0.42361  0.00000  0.15278
      13     C     3.15484  3.15484  0.00000 -0.30969
      14     H     0.42005  0.42005  0.00000  0.15990
      15     H     0.42036  0.42036  0.00000  0.15928
      16     C     3.24004  3.24004  0.00000 -0.48007
      17     H     0.42141  0.42141  0.00000  0.15718
      18     H     0.42018  0.42018  0.00000  0.15963
      19     H     0.42235  0.42235  0.00000  0.15530
      20     H     0.42059  0.42059  0.00000  0.15882
      21     H     0.42036  0.42036  0.00000  0.15928

   Total alpha = 29.00000, Total beta = 29.00000, Total charge = -0.00000
