                              Psi4 1.0.54 Driver

  ==> Input File <==

--------------------------------------------------------------------------
set {
	reference rhf
	basis cc-pvtz
}

set_num_threads( 4 )
memory 2 gb

molecule MOL {
0 1

H	 1.364746	 0.067629	 1.625988
C	 0.776521	 -0.484975	 0.925167
C	 0.771634	 -1.865075	 0.919320
C	 0.000000	 0.179985	 0.000046
H	 1.368704	 -2.400834	 1.630646
C	 -0.000002	 -2.552036	 -0.000008
N	 0.000000	 1.644631	 0.000076
C	 -0.776520	 -0.484937	 -0.925103
H	 -0.000000	 -3.625035	 -0.000032
C	 -0.771636	 -1.865038	 -0.919311
O	 1.050559	 2.194174	 -0.000073
O	 -1.050559	 2.194174	 -0.000074
H	 -1.364752	 0.067696	 -1.625896
H	 -1.368703	 -2.400767	 -1.630661

	symmetry c1
}
set optking {
	frozen_dihedral = ("
		2 4 7 11
	")
}

ee,wfn = optimize('scf', return_wfn=True)
oeprop( wfn, 'DIPOLE', 'QUADRUPOLE', 'MULLIKEN_CHARGES')
f=open( 'psi4out.xyz', 'w' )
f.write( "14  " )
f.write( str(ee) + "\n" )
f.write( MOL.save_string_xyz() )
f.close()
--------------------------------------------------------------------------

    Molecular point group: c1
  Charge       = 0
  Multiplicity = 1
  Basis Set: CC-PVTZ
  Basis Set:
  @DF-RHF Final Energy:  -434.32486762504357
    Total Energy =                       -434.3248676250436802
    Molecular point group: c1
  Basis Set: CC-PVTZ
  Basis Set:
  Basis Set: CC-PVTZ
  Basis Set:
  @DF-RHF Final Energy:  -434.31829181266863
    Total Energy =                       -434.3182918126686900
  Basis Set: CC-PVTZ
  Basis Set:
  Basis Set: CC-PVTZ
  Basis Set:
  @DF-RHF Final Energy:  -434.32409161792850
    Total Energy =                       -434.3240916179285023
  Basis Set: CC-PVTZ
  Basis Set:
  Basis Set: CC-PVTZ
  Basis Set:
  @DF-RHF Final Energy:  -434.32519978415786
    Total Energy =                       -434.3251997841575758
  Basis Set: CC-PVTZ
  Basis Set:
  Basis Set: CC-PVTZ
  Basis Set:
  @DF-RHF Final Energy:  -434.32519079795196
    Total Energy =                       -434.3251907979516773
  Basis Set: CC-PVTZ
  Basis Set:
  Basis Set: CC-PVTZ
  Basis Set:
  @DF-RHF Final Energy:  -434.32533053615657
    Total Energy =                       -434.3253305361567982
  Basis Set: CC-PVTZ
  Basis Set:
  Charge       = 0
  Multiplicity = 1
  Basis Set: CC-PVTZ
  Basis Set:

    Orbital Energies (a.u.)
    -----------------------

    Doubly Occupied:

       1A    -20.595200     2A    -20.595125     3A    -15.847552
       4A    -11.305255     5A    -11.268005     6A    -11.267709
       7A    -11.261993     8A    -11.259718     9A    -11.259346
      10A     -1.643000    11A     -1.425973    12A     -1.206094
      13A     -1.096798    14A     -1.056451    15A     -0.959485
      16A     -0.872119    17A     -0.830151    18A     -0.786954
      19A     -0.740367    20A     -0.736376    21A     -0.715966
      22A     -0.655347    23A     -0.651249    24A     -0.626229
      25A     -0.559529    26A     -0.547937    27A     -0.533298
      28A     -0.497207    29A     -0.488988    30A     -0.457195
      31A     -0.374140    32A     -0.370314

  @DF-RHF Final Energy:  -434.32533088831116

   => Energetics <=

    Nuclear Repulsion Energy =            417.9054430765240227
    One-Electron Energy =               -1419.4794032792365215
    Two-Electron Energy =                 567.2486293144011142
    DFT Exchange-Correlation Energy =       0.0000000000000000
    Empirical Dispersion Energy =           0.0000000000000000
    PCM Polarization Energy =               0.0000000000000000
    EFP Energy =                            0.0000000000000000
    Total Energy =                       -434.3253308883113277
    Molecular point group: c1
  Basis Set: CC-PVTZ
  Basis Set:

  -Total Gradient:
     Atom            X                  Y                   Z
    ------   -----------------  -----------------  -----------------
       1       -0.000006098142    -0.000003794297     0.000000917371
       2       -0.003721513072    -0.000076542496     0.002891656384
       3       -0.000005305977     0.000010957501     0.000021991087
       4        0.005503598946     0.000084226380    -0.006233054178
       5       -0.000003494701    -0.000001785427     0.000002642917
       6        0.000006998249    -0.000002764680    -0.000025632039
       7       -0.001928961204    -0.000070785880     0.008742221699
       8        0.000040450629     0.000029912157    -0.000019527963
       9        0.000002877831     0.000000122401     0.000000244632
      10       -0.000017462499    -0.000014033005     0.000039474704
      11        0.000146018456     0.000015650462    -0.005428238804
      12       -0.000009860838     0.000026514025     0.000004300876
      13       -0.000003524838    -0.000002529800     0.000001987758
      14       -0.000003722834     0.000004852660     0.000001015555

  **** Optimization is complete! (in 7 steps) ****
    Final optimized geometry and variables:
    Molecular point group: c1

    Geometry (in Angstrom), charge = 0, multiplicity = 1:

    H            1.365265702901     0.073472994949     1.630117418148
    C            0.770471494636    -0.480096907459     0.932555788170
    C            0.733439489621    -1.860395234692     0.951952879443
    C            0.026515888141     0.179069574633    -0.018327040421
    H            1.299195637084    -2.396668753852     1.688145244459
    C           -0.029501268087    -2.546121549427     0.024982140719
    N            0.015195391558     1.640982053663    -0.005087703355
    C           -0.768240478590    -0.477602277825    -0.929398118799
    H           -0.048094677805    -3.618650448757     0.038682207131
    C           -0.774232474393    -1.858121986991    -0.915683661561
    O            1.064372378466     2.190985406467     0.042627754651
    O           -1.039446341566     2.176829664706    -0.078999319310
    H           -1.360273151336     0.077575291552    -1.627641876171
    H           -1.368120734699    -2.393513351416    -1.630059866937

  Mulliken Charges: (a.u.)
   Center  Symbol    Alpha    Beta     Spin     Total
       1     H     0.40789  0.40789  0.00000  0.18423
       2     C     3.08678  3.08678  0.00000 -0.17355
       3     C     3.06871  3.06871  0.00000 -0.13743
       4     C     2.93754  2.93754  0.00000  0.12493
       5     H     0.41722  0.41722  0.00000  0.16556
       6     C     3.07032  3.07032  0.00000 -0.14064
       7     N     3.27733  3.27733  0.00000  0.44534
       8     C     3.08539  3.08539  0.00000 -0.17078
       9     H     0.41754  0.41754  0.00000  0.16492
      10     C     3.06803  3.06803  0.00000 -0.13605
      11     O     4.16906  4.16906  0.00000 -0.33811
      12     O     4.16887  4.16887  0.00000 -0.33775
      13     H     0.40814  0.40814  0.00000  0.18371
      14     H     0.41719  0.41719  0.00000  0.16563

   Total alpha = 32.00000, Total beta = 32.00000, Total charge = -0.00000

*** Psi4 exiting successfully. Buy a developer a beer!
