  ==> Input File <==

--------------------------------------------------------------------------
set {
	reference rhf
	basis 6-31G*
}

set_num_threads( 4 )
memory 2 gb

molecule MOL {
0 1

H	 2.591676	 2.013956	 0.335017
O	 3.341076	 1.666752	 -0.126416
C	 3.569581	 0.339145	 0.272707
C	 2.539767	 -0.640285	 -0.279495
H	 4.553106	 0.084646	 -0.100901
H	 3.608576	 0.269204	 1.359154
C	 1.910177	 -0.200634	 -1.603576
H	 3.017740	 -1.608190	 -0.406257
H	 1.758325	 -0.767767	 0.467809
C	 0.842278	 -1.177494	 -2.103729
H	 2.689714	 -0.100049	 -2.353623
H	 1.462789	 0.785957	 -1.481827
C	 0.119154	 -0.741252	 -3.383231
H	 1.296396	 -2.153980	 -2.262155
H	 0.101377	 -1.312090	 -1.318457
C	 0.997935	 -0.694890	 -4.636257
H	 -0.703862	 -1.430003	 -3.562347
H	 -0.334423	 0.235919	 -3.224352
C	 0.210728	 -0.357522	 -5.904296
H	 1.489884	 -1.657895	 -4.765563
H	 1.791217	 0.037984	 -4.510152
C	 1.086653	 -0.304291	 -7.155530
H	 -0.576258	 -1.095078	 -6.046258
H	 -0.289404	 0.599862	 -5.773264
H	 1.575731	 -1.258062	 -7.332586
H	 0.499870	 -0.065125	 -8.037074
H	 1.862067	 0.450670	 -7.059975

	symmetry c1
}
set optking {
	frozen_dihedral = ("
		8 4 3 2
	")
}

ee = optimize('scf')
oeprop('DIPOLE', 'QUADRUPOLE', 'MULLIKEN_CHARGES')
f=open( 'psi4out.xyz', 'w' )
f.write( "27  " )
f.write( str(ee) + "\n" )
f.write( MOL.save_string_xyz() )
f.close()
--------------------------------------------------------------------------

    Molecular point group: c1
  Charge       = 0
  Multiplicity = 1
  Basis Set: 6-31G*
  Basis Set:
  @DF-RHF Final Energy:  -388.27703905232130
    Total Energy =                       -388.2770390523212427
    Molecular point group: c1
  Basis Set: 6-31G*
  Basis Set:
  Basis Set: 6-31G*
  Basis Set:
  @DF-RHF Final Energy:  -388.27780088616993
    Total Energy =                       -388.2778008861694161
  Basis Set: 6-31G*
  Basis Set:
  Basis Set: 6-31G*
  Basis Set:
  @DF-RHF Final Energy:  -388.27813327968005
    Total Energy =                       -388.2781332796794231
  Basis Set: 6-31G*
  Basis Set:
  Basis Set: 6-31G*
  Basis Set:
  @DF-RHF Final Energy:  -388.27814100779847
    Total Energy =                       -388.2781410077980127
  Basis Set: 6-31G*
  Basis Set:
  Basis Set: 6-31G*
  Basis Set:
  @DF-RHF Final Energy:  -388.27814610235652
    Total Energy =                       -388.2781461023562315
  Basis Set: 6-31G*
  Basis Set:
  Basis Set: 6-31G*
  Basis Set:
  @DF-RHF Final Energy:  -388.27814949294708
    Total Energy =                       -388.2781494929473638
  Basis Set: 6-31G*
  Basis Set:
  Charge       = 0
  Multiplicity = 1
  Basis Set: 6-31G*
  Basis Set:

    Orbital Energies (a.u.)
    -----------------------

    Doubly Occupied:

       1A    -20.554208     2A    -11.267927     3A    -11.216346
       4A    -11.212326     5A    -11.212306     6A    -11.211268
       7A    -11.210667     8A    -11.209554     9A    -11.206003
      10A     -1.360138    11A     -1.090245    12A     -1.056981
      13A     -1.007729    14A     -0.944654    15A     -0.884551
      16A     -0.818637    17A     -0.798889    18A     -0.773341
      19A     -0.684205    20A     -0.647236    21A     -0.639958
      22A     -0.613170    23A     -0.602762    24A     -0.584448
      25A     -0.569240    26A     -0.557179    27A     -0.538819
      28A     -0.520229    29A     -0.501745    30A     -0.492817
      31A     -0.476997    32A     -0.466725    33A     -0.463753
      34A     -0.455929    35A     -0.452813    36A     -0.439308
      37A     -0.421626

  @DF-RHF Final Energy:  -388.27814904079963

   => Energetics <=

    Nuclear Repulsion Energy =            460.4648113894116364
    One-Electron Energy =               -1439.1564691455014326
    Two-Electron Energy =                 590.4135087152903907
    DFT Exchange-Correlation Energy =       0.0000000000000000
    Empirical Dispersion Energy =           0.0000000000000000
    PCM Polarization Energy =               0.0000000000000000
    EFP Energy =                            0.0000000000000000
    Total Energy =                       -388.2781490407994625
    Molecular point group: c1
  Basis Set: 6-31G*
  Basis Set:

  -Total Gradient:
     Atom            X                  Y                   Z
    ------   -----------------  -----------------  -----------------
       1        0.000017026267     0.000033160584    -0.000002808061
       2        0.002437998949    -0.000878758205    -0.004126626498
       3       -0.003107100675     0.001556195830     0.004393449311
       4       -0.000774596101    -0.001879628982     0.005378608567
       5        0.000016840297    -0.000057123147     0.000029926319
       6       -0.000025347241    -0.000090175364    -0.000001673491
       7       -0.000014526720     0.000014457491     0.000019364101
       8        0.001406260040     0.001378786550    -0.005710572609
       9       -0.000018526971    -0.000024923967     0.000060461202
      10        0.000036109146    -0.000038325519     0.000006210427
      11        0.000013466762    -0.000019160645    -0.000000501638
      12       -0.000004289100    -0.000034641618    -0.000023460300
      13        0.000000756317     0.000064877024     0.000025910741
      14        0.000003610465    -0.000008030997    -0.000021758100
      15        0.000025550712    -0.000011566746     0.000017559086
      16       -0.000005477478    -0.000019825164    -0.000020901601
      17        0.000009649182     0.000009260091     0.000016843477
      18       -0.000008625870     0.000007026477    -0.000016527664
      19        0.000005894724     0.000004257194    -0.000001617815
      20        0.000002355831     0.000000481295    -0.000007203493
      21       -0.000019311414    -0.000005633775    -0.000019554985
      22       -0.000000878992    -0.000002292399     0.000000742032
      23        0.000002284333     0.000001000523     0.000001928499
      24        0.000000548170     0.000000132868     0.000001415285
      25        0.000000943883    -0.000000319403     0.000000367484
      26        0.000000164652    -0.000000504622     0.000001174303
      27       -0.000000779170     0.000001274625    -0.000000754584

  **** Optimization is complete! (in 7 steps) ****
    Final optimized geometry and variables:
    Molecular point group: c1

    Geometry (in Angstrom), charge = 0, multiplicity = 1:

    H            1.061092763335     2.257378833976     3.023196676451
    O            1.798479915299     1.861910834727     2.579060589631
    C            1.930432422748     0.521290693385     2.977498919121
    C            0.800482205145    -0.400846774774     2.495000567076
    H            2.865486126664     0.198109758370     2.537945807015
    H            2.043222785334     0.448009104888     4.056947528507
    C            0.200027738094     0.013777560960     1.147123974075
    H            1.220692606791    -1.396060662441     2.368310511057
    H            0.011285148157    -0.471320009189     3.240690847604
    C           -0.823094089372    -1.003214872336     0.633584934300
    H            1.003518313250     0.137999117651     0.427512502021
    H           -0.275009404410     0.986233272475     1.236345896657
    C           -1.550152107270    -0.587097898337    -0.650519907697
    H           -0.332643690284    -1.962168413838     0.472737022691
    H           -1.567572145058    -1.172604888245     1.409548417855
    C           -0.658922061131    -0.492871691738    -1.891884472984
    H           -2.342454211675    -1.307199423761    -0.845283549073
    H           -2.044435195433     0.369625011939    -0.488944042759
    C           -1.443342525021    -0.173015841398    -3.166151163335
    H           -0.128539766880    -1.434949572681    -2.025140101135
    H            0.102951358737     0.268791918574    -1.747200775918
    C           -0.555195760901    -0.074239183222    -4.405969625357
    H           -2.200517938680    -0.938012164547    -3.325014423633
    H           -1.980338295738     0.763763216470    -3.032183304675
    H           -0.028787577476    -1.007366780787    -4.586392188797
    H           -1.139839826292     0.151993791773    -5.292438125679
    H            0.190239909272     0.707893353744    -4.292993186428

  Mulliken Charges: (a.u.)
   Center  Symbol    Alpha    Beta     Spin     Total
       1     H     0.28319  0.28319  0.00000  0.43361
       2     O     4.36770  4.36770  0.00000 -0.73539
       3     C     2.99392  2.99392  0.00000  0.01216
       4     C     3.18032  3.18032  0.00000 -0.36063
       5     H     0.41591  0.41591  0.00000  0.16818
       6     H     0.42762  0.42762  0.00000  0.14476
       7     C     3.14597  3.14597  0.00000 -0.29193
       8     H     0.41974  0.41974  0.00000  0.16052
       9     H     0.42384  0.42384  0.00000  0.15233
      10     C     3.15400  3.15400  0.00000 -0.30799
      11     H     0.41604  0.41604  0.00000  0.16792
      12     H     0.42404  0.42404  0.00000  0.15191
      13     C     3.15262  3.15262  0.00000 -0.30523
      14     H     0.42479  0.42479  0.00000  0.15042
      15     H     0.42406  0.42406  0.00000  0.15187
      16     C     3.15304  3.15304  0.00000 -0.30607
      17     H     0.42277  0.42277  0.00000  0.15446
      18     H     0.42445  0.42445  0.00000  0.15111
      19     C     3.15105  3.15105  0.00000 -0.30210
      20     H     0.42527  0.42527  0.00000  0.14946
      21     H     0.41993  0.41993  0.00000  0.16013
      22     C     3.23915  3.23915  0.00000 -0.47829
      23     H     0.42382  0.42382  0.00000  0.15236
      24     H     0.42328  0.42328  0.00000  0.15345
      25     H     0.42221  0.42221  0.00000  0.15559
      26     H     0.41993  0.41993  0.00000  0.16013
      27     H     0.42136  0.42136  0.00000  0.15727

   Total alpha = 37.00000, Total beta = 37.00000, Total charge = -0.00000
