                              Psi4 1.0.54 Driver

  ==> Input File <==

--------------------------------------------------------------------------
set {
	reference rhf
	basis cc-pvtz
}

set_num_threads( 4 )
memory 2 gb

molecule MOL {
0 1

O	 -0.097455	 0.544315	 0.960811
C	 0.485107	 0.171416	 -0.000134
C	 1.606966	 -0.836201	 0.000174
O	 0.221947	 0.598745	 -1.222722
C	 2.988788	 -0.202529	 -0.000115
H	 1.465110	 -1.474645	 -0.864821
H	 1.465209	 -1.474077	 0.865596
H	 3.131767	 0.419673	 -0.873407
H	 3.750876	 -0.972315	 0.000098
H	 3.131883	 0.420264	 0.872742
C	 -0.816178	 1.555505	 -1.381452
C	 -0.921481	 1.882728	 -2.852616
H	 -0.580329	 2.432751	 -0.795652
H	 -1.738976	 1.141848	 -0.999803
H	 0.008370	 2.295107	 -3.223686
H	 -1.706941	 2.612580	 -3.009466
H	 -1.156937	 0.996890	 -3.429003

	symmetry c1
}
set optking {
	frozen_dihedral = ("
		4 2 3 6
	")
}

ee,wfn = optimize('scf', return_wfn=True)
oeprop( wfn, 'DIPOLE', 'QUADRUPOLE', 'MULLIKEN_CHARGES')
f=open( 'psi4out.xyz', 'w' )
f.write( "17  " )
f.write( str(ee) + "\n" )
f.write( MOL.save_string_xyz() )
f.close()
--------------------------------------------------------------------------

    Molecular point group: c1
  Charge       = 0
  Multiplicity = 1
  Basis Set: CC-PVTZ
  Basis Set:
  @DF-RHF Final Energy:  -345.03847748986271
    Total Energy =                       -345.0384774898628280
    Molecular point group: c1
  Basis Set: CC-PVTZ
  Basis Set:
  Basis Set: CC-PVTZ
  Basis Set:
  @DF-RHF Final Energy:  -345.03882265591147
    Total Energy =                       -345.0388226559114173
  Basis Set: CC-PVTZ
  Basis Set:
  Basis Set: CC-PVTZ
  Basis Set:
  @DF-RHF Final Energy:  -345.03245261538103
    Total Energy =                       -345.0324526153809188
  Basis Set: CC-PVTZ
  Basis Set:
  Basis Set: CC-PVTZ
  Basis Set:
  @DF-RHF Final Energy:  -345.03853179211796
    Total Energy =                       -345.0385317921184196
  Basis Set: CC-PVTZ
  Basis Set:
  Basis Set: CC-PVTZ
  Basis Set:
  @DF-RHF Final Energy:  -345.03910211185280
    Total Energy =                       -345.0391021118526851
  Basis Set: CC-PVTZ
  Basis Set:
  Basis Set: CC-PVTZ
  Basis Set:
  @DF-RHF Final Energy:  -345.03910819320186
    Total Energy =                       -345.0391081932017414
  Basis Set: CC-PVTZ
  Basis Set:
  Basis Set: CC-PVTZ
  Basis Set:
  @DF-RHF Final Energy:  -345.03911007574919
    Total Energy =                       -345.0391100757491927
  Basis Set: CC-PVTZ
  Basis Set:
  Charge       = 0
  Multiplicity = 1
  Basis Set: CC-PVTZ
  Basis Set:

    Orbital Energies (a.u.)
    -----------------------

    Doubly Occupied:

       1A    -20.594524     2A    -20.531112     3A    -11.362485
       4A    -11.282636     5A    -11.234495     6A    -11.224718
       7A    -11.220635     8A     -1.470180     9A     -1.363619
      10A     -1.073617    11A     -1.032075    12A     -0.908983
      13A     -0.855355    14A     -0.779412    15A     -0.696355
      16A     -0.684716    17A     -0.671173    18A     -0.617474
      19A     -0.600692    20A     -0.575470    21A     -0.554176
      22A     -0.541350    23A     -0.527173    24A     -0.507829
      25A     -0.505626    26A     -0.498242    27A     -0.455081
      28A     -0.434596

  @DF-RHF Final Energy:  -345.03911035086270

   => Energetics <=

    Nuclear Repulsion Energy =            317.1348796837764326
    One-Electron Energy =               -1098.7403780805964288
    Two-Electron Energy =                 436.5663880459570692
    DFT Exchange-Correlation Energy =       0.0000000000000000
    Empirical Dispersion Energy =           0.0000000000000000
    PCM Polarization Energy =               0.0000000000000000
    EFP Energy =                            0.0000000000000000
    Total Energy =                       -345.0391103508628703
    Molecular point group: c1
  Basis Set: CC-PVTZ
  Basis Set:

  -Total Gradient:
     Atom            X                  Y                   Z
    ------   -----------------  -----------------  -----------------
       1        0.000038678207    -0.000030449137     0.000013945209
       2        0.000098967811     0.000250728738    -0.000114503499
       3       -0.000140381199    -0.000173733562     0.000212202083
       4       -0.000068385989    -0.000169473270     0.000054571616
       5        0.000000317971    -0.000005398918    -0.000001419571
       6        0.000089258049     0.000117181544    -0.000149205736
       7       -0.000006652103     0.000006523654    -0.000012628319
       8        0.000000089875     0.000000088873     0.000000467586
       9       -0.000004680733     0.000002401757    -0.000000412039
      10       -0.000007202224    -0.000005513058    -0.000001361387
      11       -0.000009368405     0.000035507159    -0.000009794211
      12        0.000004880898    -0.000010571137     0.000006227723
      13       -0.000000702032    -0.000011165003    -0.000003721377
      14        0.000003931305    -0.000006176097     0.000000234609
      15        0.000001655544     0.000000178058     0.000002493044
      16       -0.000000554963     0.000000494222     0.000003324941
      17        0.000000147989    -0.000000623824    -0.000000420671

  **** Optimization is complete! (in 8 steps) ****
    Final optimized geometry and variables:
    Molecular point group: c1

    Geometry (in Angstrom), charge = 0, multiplicity = 1:

    O           -0.288500331966     0.176277109220     1.681961881827
    C            0.128671705993    -0.306552565240     0.683926679863
    C            1.301010486602    -1.251059746311     0.618561607168
    O           -0.372167548551    -0.052291461337    -0.512317001946
    C            2.587982044232    -0.510323341914     0.245323760829
    H            1.093053796671    -2.019874840469    -0.113908296869
    H            1.400260823549    -1.709814231651     1.591379860693
    H            2.503486289688    -0.049686401533    -0.730740750467
    H            3.421050089828    -1.201077321934     0.220812721538
    H            2.812581390558     0.261922850018     0.970666833337
    C           -1.455972933142     0.862682509199    -0.595948618460
    C           -1.846075201265     0.985491414721    -2.050302666237
    H           -1.147081324663     1.813826428527    -0.185744970618
    H           -2.275043104516     0.494206522529     0.005196921794
    H           -1.018127252732     1.354656747454    -2.642485528135
    H           -2.673656711934     1.677944701943    -2.149383161679
    H           -2.151963632572     0.026818603983    -2.449978851206

  Mulliken Charges: (a.u.)
   Center  Symbol    Alpha    Beta     Spin     Total
       1     O     4.20196  4.20196  0.00000 -0.40392
       2     C     2.80386  2.80386  0.00000  0.39229
       3     C     3.08325  3.08325  0.00000 -0.16650
       4     O     4.15474  4.15474  0.00000 -0.30949
       5     C     3.15152  3.15152  0.00000 -0.30305
       6     H     0.44602  0.44602  0.00000  0.10795
       7     H     0.43861  0.43861  0.00000  0.12277
       8     H     0.44870  0.44870  0.00000  0.10260
       9     H     0.44756  0.44756  0.00000  0.10487
      10     H     0.44656  0.44656  0.00000  0.10688
      11     C     2.97954  2.97954  0.00000  0.04092
      12     C     3.13327  3.13327  0.00000 -0.26654
      13     H     0.45445  0.45445  0.00000  0.09110
      14     H     0.45272  0.45272  0.00000  0.09456
      15     H     0.45163  0.45163  0.00000  0.09674
      16     H     0.45426  0.45426  0.00000  0.09148
      17     H     0.45133  0.45133  0.00000  0.09735

   Total alpha = 28.00000, Total beta = 28.00000, Total charge = -0.00000

*** Psi4 exiting successfully. Buy a developer a beer!
