  ==> Input File <==

--------------------------------------------------------------------------
set {
	reference rhf
	basis 6-31G*
}

set_num_threads( 4 )
memory 2 gb

molecule MOL {
0 1

O	 -1.058565	 2.355791	 1.285384
C	 -1.118979	 1.876311	 0.194108
C	 0.109202	 1.263966	 -0.456209
C	 -2.417608	 1.824104	 -0.579334
C	 0.379448	 -0.143569	 0.099626
H	 0.953535	 1.908156	 -0.236155
H	 -0.011030	 1.220438	 -1.534947
C	 1.631333	 -0.777471	 -0.511575
H	 0.476419	 -0.068834	 1.176843
H	 -0.478460	 -0.785323	 -0.095034
C	 2.915987	 -0.544314	 0.291766
H	 1.766672	 -0.399098	 -1.523130
H	 1.471257	 -1.849544	 -0.605828
C	 3.373361	 0.914346	 0.347591
H	 3.708709	 -1.142521	 -0.150311
H	 2.780642	 -0.921148	 1.303579
H	 3.506512	 1.320010	 -0.651625
H	 4.322697	 0.999599	 0.867103
H	 2.660624	 1.545032	 0.868198
H	 -2.343557	 2.455923	 -1.460576
H	 -3.232629	 2.168582	 0.041841
H	 -2.618586	 0.814354	 -0.925479

	symmetry c1
}
set optking {
	frozen_dihedral = ("
		3 5 8 12
	")
}

ee = optimize('scf')
oeprop('DIPOLE', 'QUADRUPOLE', 'MULLIKEN_CHARGES')
f=open( 'psi4out.xyz', 'w' )
f.write( "22  " )
f.write( str(ee) + "\n" )
f.write( MOL.save_string_xyz() )
f.close()
--------------------------------------------------------------------------

    Molecular point group: c1
  Charge       = 0
  Multiplicity = 1
  Basis Set: 6-31G*
  Basis Set:
  @DF-RHF Final Energy:  -348.09269014880778
    Total Energy =                       -348.0926901488077760
    Molecular point group: c1
  Basis Set: 6-31G*
  Basis Set:
  Basis Set: 6-31G*
  Basis Set:
  @DF-RHF Final Energy:  -348.09356896986202
    Total Energy =                       -348.0935689698625310
  Basis Set: 6-31G*
  Basis Set:
  Basis Set: 6-31G*
  Basis Set:
  @DF-RHF Final Energy:  -348.09307540080755
    Total Energy =                       -348.0930754008074928
  Basis Set: 6-31G*
  Basis Set:
  Basis Set: 6-31G*
  Basis Set:
  @DF-RHF Final Energy:  -348.09372472285111
    Total Energy =                       -348.0937247228512206
  Basis Set: 6-31G*
  Basis Set:
  @DF-RHF Final Energy:  -348.09373556876074
    Total Energy =                       -348.0937355687605077
  @DF-RHF Final Energy:  -348.09377893846994
    Total Energy =                       -348.0937789384698249
  Basis Set: 6-31G*
  Basis Set:
  @DF-RHF Final Energy:  -348.09378765554328
    Total Energy =                       -348.0937876555431103
  Basis Set: 6-31G*
  Basis Set:
  Basis Set: 6-31G*
  Basis Set:
  @DF-RHF Final Energy:  -348.09378431649645
    Total Energy =                       -348.0937843164964534
  Basis Set: 6-31G*
  Basis Set:
  Basis Set: 6-31G*
  Basis Set:
  @DF-RHF Final Energy:  -348.09378651656112
    Total Energy =                       -348.0937865165611242
  Basis Set: 6-31G*
  Basis Set:
  Charge       = 0
  Multiplicity = 1
  Basis Set: 6-31G*
  Basis Set:

    Orbital Energies (a.u.)
    -----------------------

    Doubly Occupied:

       1A    -20.547281     2A    -11.324191     3A    -11.229985
       4A    -11.228174     5A    -11.228092     6A    -11.222332
       7A    -11.219549     8A    -11.210257     9A     -1.392958
      10A     -1.093388    11A     -1.041861    12A     -0.997978
      13A     -0.942034    14A     -0.856486    15A     -0.783558
      16A     -0.733962    17A     -0.657753    18A     -0.649139
      19A     -0.626804    20A     -0.611351    21A     -0.598609
      22A     -0.582514    23A     -0.557979    24A     -0.549756
      25A     -0.531241    26A     -0.521377    27A     -0.501660
      28A     -0.486983    29A     -0.467047    30A     -0.463903
      31A     -0.453636    32A     -0.395760

  @DF-RHF Final Energy:  -348.09379035083032

   => Energetics <=

    Nuclear Repulsion Energy =            379.1544554242385630
    One-Electron Energy =               -1223.0812958141348190
    Two-Electron Energy =                 495.8330500390659381
    DFT Exchange-Correlation Energy =       0.0000000000000000
    Empirical Dispersion Energy =           0.0000000000000000
    PCM Polarization Energy =               0.0000000000000000
    EFP Energy =                            0.0000000000000000
    Total Energy =                       -348.0937903508303179
    Molecular point group: c1
  Basis Set: 6-31G*
  Basis Set:

  -Total Gradient:
     Atom            X                  Y                   Z
    ------   -----------------  -----------------  -----------------
       1        0.000001914503     0.000002960596    -0.000016153345
       2        0.000009255947    -0.000005966697     0.000039331745
       3        0.000066000145     0.000065989262     0.000063245317
       4        0.000000421659    -0.000006099636    -0.000008784653
       5       -0.000078002842    -0.000069132280    -0.000086637917
       6       -0.000012275029    -0.000014105348    -0.000032165501
       7       -0.000023798902     0.000001273391     0.000004856280
       8        0.000083915563     0.000101711748     0.000088938105
       9       -0.000019994159    -0.000009753396     0.000011541358
      10        0.000010402011     0.000001526681    -0.000022263035
      11        0.000024412557    -0.000009452258    -0.000022562835
      12       -0.000056044312    -0.000076548502    -0.000037636704
      13        0.000011164319     0.000001763155    -0.000006325850
      14       -0.000019257195     0.000006764913     0.000002469538
      15        0.000001403448    -0.000008256736     0.000017625935
      16       -0.000015396041     0.000015745213     0.000002632992
      17       -0.000004305059     0.000001428729    -0.000000144626
      18        0.000004902106     0.000003194509    -0.000013162992
      19        0.000014904555    -0.000008956225     0.000015266306
      20       -0.000000167766     0.000003329915     0.000000167192
      21        0.000000552378     0.000000475818     0.000000117366
      22       -0.000000007883     0.000002107149    -0.000000354680

  **** Optimization is complete! (in 10 steps) ****
    Final optimized geometry and variables:
    Molecular point group: c1

    Geometry (in Angstrom), charge = 0, multiplicity = 1:

    O           -1.525720754632     1.545372101105     1.157634712967
    C           -1.617333693182     1.029179951994     0.085308595204
    C           -0.400449339337     0.422057391479    -0.591245499474
    C           -2.941678948252     0.932870654462    -0.638881711302
    C           -0.095304070466    -0.970664500534    -0.010703101210
    H            0.432196847382     1.093434614660    -0.427659285733
    H           -0.561111817688     0.340580924605    -1.662550456346
    C            1.166120254482    -1.636966445996    -0.593398699147
    H           -0.008867355315    -0.889410639888     1.068593920776
    H           -0.951832228658    -1.613161369567    -0.199879177960
    C            2.457737645284    -1.428736975731     0.208627694014
    H            1.316003188988    -1.302804111682    -1.618424921246
    H            0.992356428907    -2.707879403693    -0.653279752005
    C            2.942387087106     0.016759454914     0.328867102314
    H            3.240390451599    -2.021442899929    -0.258824957479
    H            2.321283251859    -1.841765928697     1.205703381594
    H            3.056279793860     0.478146600015    -0.648492550971
    H            3.908184051080     0.052864071270     0.823211490639
    H            2.259707569725     0.626528812433     0.910640810001
    H           -2.910211065706     1.540481354982    -1.539469224037
    H           -3.739983780639     1.281354498732     0.001465537334
    H           -3.137020516740    -0.089479315283    -0.949300468523

  Mulliken Charges: (a.u.)
   Center  Symbol    Alpha    Beta     Spin     Total
       1     O     4.26274  4.26274  0.00000 -0.52549
       2     C     2.73803  2.73803  0.00000  0.52395
       3     C     3.20150  3.20150  0.00000 -0.40301
       4     C     3.28949  3.28949  0.00000 -0.57898
       5     C     3.16675  3.16675  0.00000 -0.33351
       6     H     0.39790  0.39790  0.00000  0.20420
       7     H     0.41709  0.41709  0.00000  0.16582
       8     C     3.15527  3.15527  0.00000 -0.31055
       9     H     0.40493  0.40493  0.00000  0.19014
      10     H     0.41879  0.41879  0.00000  0.16241
      11     C     3.15154  3.15154  0.00000 -0.30307
      12     H     0.42239  0.42239  0.00000  0.15523
      13     H     0.41775  0.41775  0.00000  0.16451
      14     C     3.24495  3.24495  0.00000 -0.48990
      15     H     0.42081  0.42081  0.00000  0.15838
      16     H     0.42101  0.42101  0.00000  0.15798
      17     H     0.42334  0.42334  0.00000  0.15333
      18     H     0.41755  0.41755  0.00000  0.16489
      19     H     0.41442  0.41442  0.00000  0.17116
      20     H     0.40686  0.40686  0.00000  0.18629
      21     H     0.39713  0.39713  0.00000  0.20574
      22     H     0.40976  0.40976  0.00000  0.18047

   Total alpha = 32.00000, Total beta = 32.00000, Total charge =  0.00000
