  ==> Input File <==

--------------------------------------------------------------------------
set {
	reference rhf
	basis 6-31G*
}

set_num_threads( 4 )
memory 2 gb

molecule MOL {
0 1

O	 -0.130041	 1.650597	 -3.870740
C	 -0.621500	 1.398273	 -2.812802
C	 -0.183291	 0.178018	 -2.022070
C	 -1.674338	 2.290139	 -2.193542
C	 1.143478	 0.444852	 -1.292943
H	 -0.052790	 -0.638892	 -2.723448
H	 -0.948816	 -0.109161	 -1.306860
C	 1.631333	 -0.777471	 -0.511575
H	 1.879643	 0.745741	 -2.029769
H	 1.023177	 1.283012	 -0.608281
C	 2.915987	 -0.544314	 0.291766
H	 1.784363	 -1.605486	 -1.201284
H	 0.846570	 -1.092055	 0.173285
C	 3.373361	 0.914346	 0.347591
H	 3.708709	 -1.142521	 -0.150311
H	 2.780642	 -0.921148	 1.303579
H	 3.506512	 1.320010	 -0.651625
H	 4.322697	 0.999599	 0.867103
H	 2.660624	 1.545032	 0.868198
H	 -2.620064	 1.757065	 -2.141587
H	 -1.798551	 3.184351	 -2.788302
H	 -1.401677	 2.557994	 -1.176825

	symmetry c1
}
set optking {
	frozen_dihedral = ("
		12 8 11 15
	")
}

ee = optimize('scf')
oeprop('DIPOLE', 'QUADRUPOLE', 'MULLIKEN_CHARGES')
f=open( 'psi4out.xyz', 'w' )
f.write( "22  " )
f.write( str(ee) + "\n" )
f.write( MOL.save_string_xyz() )
f.close()
--------------------------------------------------------------------------

    Molecular point group: c1
  Charge       = 0
  Multiplicity = 1
  Basis Set: 6-31G*
  Basis Set:
  @DF-RHF Final Energy:  -348.08839995619275
    Total Energy =                       -348.0883999561925748
    Molecular point group: c1
  Basis Set: 6-31G*
  Basis Set:
  Basis Set: 6-31G*
  Basis Set:
  @DF-RHF Final Energy:  -348.08883948266930
    Total Energy =                       -348.0888394826690728
  Basis Set: 6-31G*
  Basis Set:
  Basis Set: 6-31G*
  Basis Set:
  @DF-RHF Final Energy:  -348.09054672365352
    Total Energy =                       -348.0905467236535742
  Basis Set: 6-31G*
  Basis Set:
  Basis Set: 6-31G*
  Basis Set:
  @DF-RHF Final Energy:  -348.09063125154864
    Total Energy =                       -348.0906312515485865
  Basis Set: 6-31G*
  Basis Set:
  @DF-RHF Final Energy:  -348.09067805044901
    Total Energy =                       -348.0906780504491280
  @DF-RHF Final Energy:  -348.09069051078609
    Total Energy =                       -348.0906905107861462
  Basis Set: 6-31G*
  Basis Set:
  @DF-RHF Final Energy:  -348.09068163512569
    Total Energy =                       -348.0906816351257476
  Basis Set: 6-31G*
  Basis Set:
  Basis Set: 6-31G*
  Basis Set:
  @DF-RHF Final Energy:  -348.09068689788825
    Total Energy =                       -348.0906868978884745
  Basis Set: 6-31G*
  Basis Set:
  Basis Set: 6-31G*
  Basis Set:
  @DF-RHF Final Energy:  -348.09069097363039
    Total Energy =                       -348.0906909736308990
  Basis Set: 6-31G*
  Basis Set:
  Charge       = 0
  Multiplicity = 1
  Basis Set: 6-31G*
  Basis Set:

    Orbital Energies (a.u.)
    -----------------------

    Doubly Occupied:

       1A    -20.547155     2A    -11.324267     3A    -11.229396
       4A    -11.228751     5A    -11.228068     6A    -11.222869
       7A    -11.220866     8A    -11.212684     9A     -1.392905
      10A     -1.093445    11A     -1.042161    12A     -0.999147
      13A     -0.937743    14A     -0.863416    15A     -0.779189
      16A     -0.733063    17A     -0.664410    18A     -0.646134
      19A     -0.628683    20A     -0.614249    21A     -0.592026
      22A     -0.588491    23A     -0.558150    24A     -0.543715
      25A     -0.530322    26A     -0.525954    27A     -0.503082
      28A     -0.485484    29A     -0.468909    30A     -0.462033
      31A     -0.454167    32A     -0.395970

  @DF-RHF Final Energy:  -348.09069169601628

   => Energetics <=

    Nuclear Repulsion Energy =            373.9215901869325762
    One-Electron Energy =               -1212.5907613483382192
    Two-Electron Energy =                 490.5784794653887957
    DFT Exchange-Correlation Energy =       0.0000000000000000
    Empirical Dispersion Energy =           0.0000000000000000
    PCM Polarization Energy =               0.0000000000000000
    EFP Energy =                            0.0000000000000000
    Total Energy =                       -348.0906916960168473
    Molecular point group: c1
  Basis Set: 6-31G*
  Basis Set:

  -Total Gradient:
     Atom            X                  Y                   Z
    ------   -----------------  -----------------  -----------------
       1        0.000044988267     0.000041778570     0.000034577227
       2       -0.000148001619    -0.000083525343    -0.000058927237
       3       -0.000010939343     0.000017029093    -0.000024663701
       4       -0.000010055426    -0.000004645368    -0.000025610897
       5       -0.000036451011     0.000085334766     0.000008681014
       6       -0.000021858326     0.000009252137    -0.000001480825
       7        0.000007251368     0.000011492315    -0.000012045930
       8       -0.001606856090    -0.003780498870     0.004004661885
       9        0.000026125907    -0.000026598883    -0.000028501136
      10       -0.000028035463     0.000003249479    -0.000006080481
      11        0.001395005061     0.004326636900    -0.003609013287
      12        0.001265738385     0.002536112961    -0.002718663337
      13        0.000047240277    -0.000043210016     0.000011619044
      14        0.000017699689    -0.000003496372    -0.000046271458
      15       -0.000937609323    -0.003077922705     0.002407779578
      16       -0.000039887564    -0.000044537947     0.000010048565
      17        0.000025455275     0.000010072591     0.000014706790
      18       -0.000014857737    -0.000022694227    -0.000010700253
      19       -0.000021538858     0.000010622742     0.000024838060
      20        0.000044866470     0.000013450954    -0.000004528391
      21       -0.000008093534     0.000009148953    -0.000001153987
      22        0.000009813592     0.000012948271     0.000030728759

  **** Optimization is complete! (in 10 steps) ****
    Final optimized geometry and variables:
    Molecular point group: c1

    Geometry (in Angstrom), charge = 0, multiplicity = 1:

    O           -0.988940645278     0.898834216074    -2.398441317036
    C           -1.467179288354     0.667122134864    -1.329837964044
    C           -1.008917619828    -0.529068426715    -0.514125077500
    C           -2.527673214282     1.559718322618    -0.724352506274
    C            0.307930522028    -0.220954211283     0.217383590698
    H           -0.859994120765    -1.356451090109    -1.199232021050
    H           -1.772755460722    -0.816904005834     0.202863555598
    C            0.803347870941    -1.429060055048     1.021898894612
    H            1.046950356617     0.069403305196    -0.522006362982
    H            0.165128173131     0.634571825789     0.872025771855
    C            2.150434576004    -1.250118038147     1.772831263071
    H            0.906698316841    -2.250879980500     0.319001093087
    H            0.027893165312    -1.715129876566     1.726830963817
    C            2.678417594936     0.176454187864     1.937323163998
    H            2.908545055270    -1.862347827868     1.293302013599
    H            2.041368178761    -1.680148735434     2.765114832186
    H            2.874713383297     0.655084002414     0.984177739341
    H            3.610847757871     0.161943840076     2.492869108415
    H            1.982557631705     0.802284344140     2.487704283253
    H           -3.466427663146     1.016430841459    -0.656041391210
    H           -2.665835562315     2.438966122398    -1.338036972526
    H           -2.253566877220     1.853313967566     0.284827431046

  Mulliken Charges: (a.u.)
   Center  Symbol    Alpha    Beta     Spin     Total
       1     O     4.26248  4.26248  0.00000 -0.52496
       2     C     2.73690  2.73690  0.00000  0.52620
       3     C     3.19975  3.19975  0.00000 -0.39950
       4     C     3.28951  3.28951  0.00000 -0.57902
       5     C     3.16521  3.16521  0.00000 -0.33042
       6     H     0.40143  0.40143  0.00000  0.19714
       7     H     0.41713  0.41713  0.00000  0.16573
       8     C     3.15528  3.15528  0.00000 -0.31056
       9     H     0.40550  0.40550  0.00000  0.18900
      10     H     0.41903  0.41903  0.00000  0.16195
      11     C     3.15623  3.15623  0.00000 -0.31246
      12     H     0.41791  0.41791  0.00000  0.16417
      13     H     0.42107  0.42107  0.00000  0.15786
      14     C     3.24320  3.24320  0.00000 -0.48640
      15     H     0.41839  0.41839  0.00000  0.16322
      16     H     0.41995  0.41995  0.00000  0.16009
      17     H     0.41780  0.41780  0.00000  0.16440
      18     H     0.41752  0.41752  0.00000  0.16495
      19     H     0.42186  0.42186  0.00000  0.15628
      20     H     0.40688  0.40688  0.00000  0.18624
      21     H     0.39710  0.39710  0.00000  0.20580
      22     H     0.40986  0.40986  0.00000  0.18028

   Total alpha = 32.00000, Total beta = 32.00000, Total charge =  0.00000
