                              Psi4 1.0.54 Driver

  ==> Input File <==

--------------------------------------------------------------------------
set {
	reference rhf
	basis cc-pvtz
}

set_num_threads( 4 )
memory 2 gb

molecule MOL {
0 1

H	 -2.351482	 0.003961	 0.989865
O	 -2.041679	 -0.058866	 0.103463
C	 -0.959304	 0.780994	 -0.094939
C	 0.354905	 0.037902	 -0.006215
H	 -0.985899	 1.279578	 -1.057596
H	 -0.969809	 1.529522	 0.682889
F	 0.412060	 -0.931028	 -0.902708
F	 1.359641	 0.856111	 -0.239961
F	 0.545380	 -0.506387	 1.171682

	symmetry c1
}
set optking {
	frozen_dihedral = ("
		1 2 3 5
	")
}

ee,wfn = optimize('scf', return_wfn=True)
oeprop( wfn, 'DIPOLE', 'QUADRUPOLE', 'MULLIKEN_CHARGES')
f=open( 'psi4out.xyz', 'w' )
f.write( "9  " )
f.write( str(ee) + "\n" )
f.write( MOL.save_string_xyz() )
f.close()
--------------------------------------------------------------------------

    Molecular point group: c1
  Charge       = 0
  Multiplicity = 1
  Basis Set: CC-PVTZ
  Basis Set:
  @DF-RHF Final Energy:  -450.84438799155373
    Total Energy =                       -450.8443879915539583
    Molecular point group: c1
  Basis Set: CC-PVTZ
  Basis Set:
  Basis Set: CC-PVTZ
  Basis Set:
  @DF-RHF Final Energy:  -450.82857186018549
    Total Energy =                       -450.8285718601853773
  Basis Set: CC-PVTZ
  Basis Set:
  Basis Set: CC-PVTZ
  Basis Set:
  @DF-RHF Final Energy:  -450.84567280875274
    Total Energy =                       -450.8456728087527381
  Basis Set: CC-PVTZ
  Basis Set:
  Basis Set: CC-PVTZ
  Basis Set:
  @DF-RHF Final Energy:  -450.84588078152376
    Total Energy =                       -450.8458807815237606
  Basis Set: CC-PVTZ
  Basis Set:
  Basis Set: CC-PVTZ
  Basis Set:
  @DF-RHF Final Energy:  -450.84589097523269
    Total Energy =                       -450.8458909752325781
  Basis Set: CC-PVTZ
  Basis Set:
  Charge       = 0
  Multiplicity = 1
  Basis Set: CC-PVTZ
  Basis Set:

    Orbital Energies (a.u.)
    -----------------------

    Doubly Occupied:

       1A    -26.335583     2A    -26.334174     3A    -26.331685
       4A    -20.583260     5A    -11.490016     6A    -11.310202
       7A     -1.743585     8A     -1.640362     9A     -1.638735
      10A     -1.406603    11A     -1.049896    12A     -0.926356
      13A     -0.834121    14A     -0.832741    15A     -0.800379
      16A     -0.739717    17A     -0.714815    18A     -0.704571
      19A     -0.669284    20A     -0.660813    21A     -0.644878
      22A     -0.635539    23A     -0.606390    24A     -0.535834
      25A     -0.484143

  @DF-RHF Final Energy:  -450.84589297962560

   => Energetics <=

    Nuclear Repulsion Energy =            277.4412216174640093
    One-Electron Energy =               -1177.2668619378978292
    Two-Electron Energy =                 448.9797473408078758
    DFT Exchange-Correlation Energy =       0.0000000000000000
    Empirical Dispersion Energy =           0.0000000000000000
    PCM Polarization Energy =               0.0000000000000000
    EFP Energy =                            0.0000000000000000
    Total Energy =                       -450.8458929796260009
    Molecular point group: c1
  Basis Set: CC-PVTZ
  Basis Set:

  -Total Gradient:
     Atom            X                  Y                   Z
    ------   -----------------  -----------------  -----------------
       1       -0.001453336158     0.001578760270     0.000132068686
       2        0.001638542416    -0.001616506306     0.000174589502
       3        0.000782355295    -0.001039740287    -0.001550869520
       4        0.000113493783    -0.000042329546     0.000258618041
       5       -0.000862775676     0.001058623979     0.001229897839
       6       -0.000051786102    -0.000025986446     0.000034273333
       7       -0.000034574210    -0.000086655263    -0.000120820349
       8        0.000008545588     0.000077576471    -0.000036159411
       9       -0.000140464937     0.000096257125    -0.000121598116

  **** Optimization is complete! (in 6 steps) ****
    Final optimized geometry and variables:
    Molecular point group: c1

    Geometry (in Angstrom), charge = 0, multiplicity = 1:

    H           -2.157496939428    -0.435388680859     1.279280046151
    O           -1.984758201984    -0.232324300074     0.379071386148
    C           -0.975467985247     0.711937342289     0.270188448489
    C            0.342715690650     0.059013670017    -0.077708531541
    H           -1.224720943842     1.413000383431    -0.513838763290
    H           -0.824882186102     1.271274738643     1.185628591618
    F            0.289018356318    -0.596753595737    -1.212523269591
    F            1.284291999684     0.976050858384    -0.187535648460
    F            0.720518539241    -0.789957504020     0.855838943537

  Mulliken Charges: (a.u.)
   Center  Symbol    Alpha    Beta     Spin     Total
       1     H     0.38571  0.38571  0.00000  0.22858
       2     O     4.19229  4.19229  0.00000 -0.38458
       3     C     2.99437  2.99437  0.00000  0.01126
       4     C     2.67883  2.67883  0.00000  0.64234
       5     H     0.45068  0.45068  0.00000  0.09863
       6     H     0.46160  0.46160  0.00000  0.07681
       7     F     4.60783  4.60783  0.00000 -0.21567
       8     F     4.61420  4.61420  0.00000 -0.22841
       9     F     4.61448  4.61448  0.00000 -0.22896

   Total alpha = 25.00000, Total beta = 25.00000, Total charge = -0.00000

*** Psi4 exiting successfully. Buy a developer a beer!
