                              Psi4 1.0.54 Driver

  ==> Input File <==

--------------------------------------------------------------------------
set {
	reference rhf
	basis cc-pvtz
}

set_num_threads( 4 )
memory 2 gb

molecule MOL {
0 1

H	 -3.243437	 -0.390078	 1.476024
C	 -3.299950	 -0.335665	 0.380245
C	 -2.664511	 0.885487	 -0.227124
O	 -3.840146	 -1.193694	 -0.227440
C	 -1.227354	 1.107144	 0.253629
H	 -2.716206	 0.800745	 -1.304845
H	 -3.275970	 1.734272	 0.071179
C	 -0.247837	 0.040196	 -0.230469
H	 -0.897445	 2.081631	 -0.089700
H	 -1.213832	 1.149593	 1.340004
C	 1.181757	 0.280428	 0.247371
H	 -0.265684	 0.008949	 -1.316660
H	 -0.577155	 -0.940419	 0.103256
C	 2.151032	 -0.811012	 -0.202643
H	 1.515939	 1.247397	 -0.115449
H	 1.191514	 0.341223	 1.333422
C	 3.580021	 -0.656538	 0.320835
H	 2.170545	 -0.847575	 -1.289412
H	 1.766632	 -1.772905	 0.124928
C	 4.327657	 0.562694	 -0.213579
H	 4.138806	 -1.549270	 0.057813
H	 3.561991	 -0.620783	 1.406976
H	 4.355973	 0.557257	 -1.298551
H	 3.867136	 1.491650	 0.100501
H	 5.351524	 0.571613	 0.142204

	symmetry c1
}
set optking {
	frozen_dihedral = ("
		12 8 11 14
	")
}

ee,wfn = optimize('scf', return_wfn=True)
oeprop( wfn, 'DIPOLE', 'QUADRUPOLE', 'MULLIKEN_CHARGES')
f=open( 'psi4out.xyz', 'w' )
f.write( "25  " )
f.write( str(ee) + "\n" )
f.write( MOL.save_string_xyz() )
f.close()
--------------------------------------------------------------------------

    Molecular point group: c1
  Charge       = 0
  Multiplicity = 1
  Basis Set: CC-PVTZ
  Basis Set:
  @DF-RHF Final Energy:  -387.26039570449717
    Total Energy =                       -387.2603957044971139
    Molecular point group: c1
  Basis Set: CC-PVTZ
  Basis Set:
  Basis Set: CC-PVTZ
  Basis Set:
  @DF-RHF Final Energy:  -387.26039696789610
    Total Energy =                       -387.2603969678959857
  Basis Set: CC-PVTZ
  Basis Set:
  Charge       = 0
  Multiplicity = 1
  Basis Set: CC-PVTZ
  Basis Set:

    Orbital Energies (a.u.)
    -----------------------

    Doubly Occupied:

       1A    -20.551368     2A    -11.320987     3A    -11.233787
       4A    -11.232844     5A    -11.221717     6A    -11.217723
       7A    -11.216261     8A    -11.215033     9A    -11.208846
      10A     -1.406360    11A     -1.105353    12A     -1.070987
      13A     -1.014630    14A     -0.943567    15A     -0.875914
      16A     -0.820962    17A     -0.788719    18A     -0.781906
      19A     -0.668056    20A     -0.663642    21A     -0.635049
      22A     -0.627486    23A     -0.602676    24A     -0.595819
      25A     -0.577560    26A     -0.549843    27A     -0.537057
      28A     -0.528352    29A     -0.508412    30A     -0.497610
      31A     -0.492287    32A     -0.479857    33A     -0.465086
      34A     -0.459491    35A     -0.442729    36A     -0.411867

  @DF-RHF Final Energy:  -387.26039649352293

   => Energetics <=

    Nuclear Repulsion Energy =            439.7427147325821011
    One-Electron Energy =               -1396.0665375795408636
    Two-Electron Energy =                 569.0634263534359434
    DFT Exchange-Correlation Energy =       0.0000000000000000
    Empirical Dispersion Energy =           0.0000000000000000
    PCM Polarization Energy =               0.0000000000000000
    EFP Energy =                            0.0000000000000000
    Total Energy =                       -387.2603964935228760
    Molecular point group: c1
  Basis Set: CC-PVTZ
  Basis Set:

  -Total Gradient:
     Atom            X                  Y                   Z
    ------   -----------------  -----------------  -----------------
       1        0.000286445907    -0.000165940571     0.000010815001
       2       -0.000822902346     0.000514795344     0.000090664093
       3        0.000271777756    -0.000142746351    -0.000028236252
       4        0.000253846467    -0.000209756913    -0.000065311620
       5        0.000056454894     0.000024079067    -0.000083003549
       6        0.000009747035     0.000012518846    -0.000023114609
       7       -0.000031375993    -0.000063767082     0.000034490854
       8        0.000039974426    -0.000608800199     0.000167161542
       9        0.000019987392     0.000028759666    -0.000002126114
      10       -0.000000087072    -0.000004629140     0.000013577199
      11        0.000067561569     0.000355276224    -0.000399460498
      12       -0.000069484945     0.000452604862    -0.000020660128
      13       -0.000025822142    -0.000024462038     0.000022732965
      14       -0.000072743852    -0.000153003363     0.000272257567
      15       -0.000015304739     0.000001833388     0.000015380468
      16        0.000004679618    -0.000012703842     0.000001165764
      17       -0.000000324180     0.000002258296     0.000011072864
      18       -0.000008061339     0.000010883146    -0.000024269189
      19        0.000012240355    -0.000019670290     0.000002578821
      20        0.000003905298     0.000011493258    -0.000000507229
      21       -0.000005472800    -0.000007346319     0.000005254140
      22       -0.000004813293     0.000007796889     0.000014776482
      23       -0.000001103524     0.000004905941    -0.000020085315
      24        0.000014526190    -0.000008464818     0.000002756966
      25        0.000016349319    -0.000005914005     0.000002089774

  **** Optimization is complete! (in 3 steps) ****
    Final optimized geometry and variables:
    Molecular point group: c1

    Geometry (in Angstrom), charge = 0, multiplicity = 1:

    H           -3.248689492960    -0.379023782159     1.457467328557
    C           -3.303726059308    -0.316003848843     0.362011035391
    C           -2.662359543433     0.906993739681    -0.235485183855
    O           -3.841285881305    -1.170267625368    -0.253327867677
    C           -1.227089321358     1.122452234024     0.253535774800
    H           -2.709080292969     0.828486052253    -1.313937009311
    H           -3.273341283100     1.755478371799     0.064627794683
    C           -0.248714009352     0.053242856878    -0.228227108347
    H           -0.892040639896     2.096814775110    -0.085360690750
    H           -1.219323674194     1.161862145733     1.340073815990
    C            1.180924927649     0.294670909408     0.248918185211
    H           -0.266818667620     0.023110626917    -1.314457281252
    H           -0.579297515514    -0.926359157131     0.107022215538
    C            2.151440631732    -0.795022088938    -0.202635623182
    H            1.512899862514     1.263465311530    -0.110815609363
    H            1.191400113363     0.351782689301     1.335227890770
    C            3.582094678137    -0.635211570094     0.314674975465
    H            2.166821695457    -0.834725959100    -1.289438895616
    H            1.770899779245    -1.756932026087     0.129254527700
    C            4.326371859047     0.581305071888    -0.230603155760
    H            4.141021096362    -1.529004012846     0.055574982551
    H            3.567868424696    -0.592270456823     1.400639915821
    H            4.349740986595     0.569173611193    -1.315651798813
    H            3.866699207121     1.511898344352     0.079842671806
    H            5.351869467390     0.593075722643     0.120452351790

  Mulliken Charges: (a.u.)
   Center  Symbol    Alpha    Beta     Spin     Total
       1     H     0.46420  0.46420  0.00000  0.07161
       2     C     2.90478  2.90478  0.00000  0.19045
       3     C     3.08917  3.08917  0.00000 -0.17834
       4     O     4.16631  4.16631  0.00000 -0.33262
       5     C     3.11597  3.11597  0.00000 -0.23194
       6     H     0.44288  0.44288  0.00000  0.11424
       7     H     0.44057  0.44057  0.00000  0.11886
       8     C     3.08970  3.08970  0.00000 -0.17939
       9     H     0.44311  0.44311  0.00000  0.11379
      10     H     0.44992  0.44992  0.00000  0.10015
      11     C     3.09306  3.09306  0.00000 -0.18612
      12     H     0.44976  0.44976  0.00000  0.10048
      13     H     0.44793  0.44793  0.00000  0.10414
      14     C     3.09565  3.09565  0.00000 -0.19129
      15     H     0.45115  0.45115  0.00000  0.09769
      16     H     0.45450  0.45450  0.00000  0.09100
      17     C     3.09077  3.09077  0.00000 -0.18155
      18     H     0.45293  0.45293  0.00000  0.09415
      19     H     0.44784  0.44784  0.00000  0.10433
      20     C     3.15258  3.15258  0.00000 -0.30516
      21     H     0.44763  0.44763  0.00000  0.10475
      22     H     0.45476  0.45476  0.00000  0.09047
      23     H     0.45451  0.45451  0.00000  0.09098
      24     H     0.45443  0.45443  0.00000  0.09115
      25     H     0.44592  0.44592  0.00000  0.10817

   Total alpha = 36.00000, Total beta = 36.00000, Total charge = -0.00000

*** Psi4 exiting successfully. Buy a developer a beer!
