                              Psi4 1.0.54 Driver

  ==> Input File <==

--------------------------------------------------------------------------
set {
	reference rhf
	basis cc-pvtz
}

set_num_threads( 4 )
memory 2 gb

molecule MOL {
0 1

H	 1.801459	 0.824581	 -2.733388
C	 1.686052	 0.611819	 -1.675939
C	 0.234552	 0.275098	 -1.362458
H	 1.998826	 1.482937	 -1.113582
H	 2.358113	 -0.201253	 -1.431027
N	 0.000297	 0.000045	 0.046090
H	 -0.374810	 1.120311	 -1.651265
H	 -0.095267	 -0.561819	 -1.984326
C	 -1.359159	 0.315706	 0.454404
C	 0.392970	 -1.348968	 0.420918
C	 -2.416729	 -0.286720	 -0.460525
H	 -1.478729	 1.390261	 0.442008
H	 -1.539692	 0.003361	 1.486761
C	 0.802245	 -1.471536	 1.882393
H	 1.236889	 -1.641063	 -0.188624
H	 -0.403458	 -2.064198	 0.197177
H	 -2.285276	 0.073129	 -1.473515
H	 -2.371743	 -1.368476	 -0.483209
H	 -3.408658	 -0.007405	 -0.121593
H	 1.637243	 -0.815201	 2.094313
H	 -0.004054	 -1.212767	 2.557448
H	 1.100204	 -2.490823	 2.103950

	symmetry c1
}
set optking {
	frozen_dihedral = ("
		3 6 9 11
	")
}

ee,wfn = optimize('scf', return_wfn=True)
oeprop( wfn, 'DIPOLE', 'QUADRUPOLE', 'MULLIKEN_CHARGES')
f=open( 'psi4out.xyz', 'w' )
f.write( "22  " )
f.write( str(ee) + "\n" )
f.write( MOL.save_string_xyz() )
f.close()
--------------------------------------------------------------------------

    Molecular point group: c1
  Charge       = 0
  Multiplicity = 1
  Basis Set: CC-PVTZ
  Basis Set:
  @DF-RHF Final Energy:  -290.47172143858444
    Total Energy =                       -290.4717214385848365
    Molecular point group: c1
  Basis Set: CC-PVTZ
  Basis Set:
  Basis Set: CC-PVTZ
  Basis Set:
  @DF-RHF Final Energy:  -290.33170676320191
    Total Energy =                       -290.3317067632020780
  Basis Set: CC-PVTZ
  Basis Set:
  Basis Set: CC-PVTZ
  Basis Set:
  @DF-RHF Final Energy:  -290.43418204388973
    Total Energy =                       -290.4341820438899049
  Basis Set: CC-PVTZ
  Basis Set:
  Basis Set: CC-PVTZ
  Basis Set:
  @DF-RHF Final Energy:  -290.47201203629555
    Total Energy =                       -290.4720120362954390
  Basis Set: CC-PVTZ
  Basis Set:
  @DF-RHF Final Energy:  -290.47369454967111
    Total Energy =                       -290.4736945496711087
  @DF-RHF Final Energy:  -290.47395833332911
    Total Energy =                       -290.4739583333293353
  Basis Set: CC-PVTZ
  Basis Set:
  @DF-RHF Final Energy:  -290.47397768215933
    Total Energy =                       -290.4739776821592159
  Basis Set: CC-PVTZ
  Basis Set:
  Basis Set: CC-PVTZ
  Basis Set:
  @DF-RHF Final Energy:  -290.47399145740258
    Total Energy =                       -290.4739914574026898
  Basis Set: CC-PVTZ
  Basis Set:
  Basis Set: CC-PVTZ
  Basis Set:
  @DF-RHF Final Energy:  -290.47399339296101
    Total Energy =                       -290.4739933929610629
  Basis Set: CC-PVTZ
  Basis Set:
  Charge       = 0
  Multiplicity = 1
  Basis Set: CC-PVTZ
  Basis Set:

    Orbital Energies (a.u.)
    -----------------------

    Doubly Occupied:

       1A    -15.530841     2A    -11.238661     3A    -11.238417
       4A    -11.237372     5A    -11.205429     6A    -11.202936
       7A    -11.202246     8A     -1.223280     9A     -1.024075
      10A     -1.021917    11A     -0.956166    12A     -0.858482
      13A     -0.847100    14A     -0.759183    15A     -0.659762
      16A     -0.643354    17A     -0.618135    18A     -0.596461
      19A     -0.574289    20A     -0.549950    21A     -0.544076
      22A     -0.518168    23A     -0.511615    24A     -0.508441
      25A     -0.493904    26A     -0.485980    27A     -0.464022
      28A     -0.462253    29A     -0.338142

  @DF-RHF Final Energy:  -290.47399418488118

   => Energetics <=

    Nuclear Repulsion Energy =            338.7655694848023700
    One-Electron Energy =               -1063.4498109134351580
    Two-Electron Energy =                 434.2102472437517235
    DFT Exchange-Correlation Energy =       0.0000000000000000
    Empirical Dispersion Energy =           0.0000000000000000
    PCM Polarization Energy =               0.0000000000000000
    EFP Energy =                            0.0000000000000000
    Total Energy =                       -290.4739941848810076
    Molecular point group: c1
  Basis Set: CC-PVTZ
  Basis Set:

  -Total Gradient:
     Atom            X                  Y                   Z
    ------   -----------------  -----------------  -----------------
       1        0.000001990585    -0.000004658559    -0.000002829549
       2       -0.000010585034     0.000017687302     0.000010628871
       3       -0.001884135328    -0.002303776430    -0.000331654613
       4       -0.000026892298    -0.000026169277    -0.000006293200
       5       -0.000019035213     0.000029550463     0.000000451761
       6        0.002874683976     0.004342907492    -0.000398257746
       7        0.000018451617    -0.000017534311    -0.000029122339
       8        0.000029712984     0.000013891856     0.000016361978
       9       -0.001345325004    -0.004498849182     0.002344359683
      10       -0.000027690192     0.000036871909     0.000031438259
      11        0.000350592412     0.002423607062    -0.001625294258
      12       -0.000005268494    -0.000037981904    -0.000013415299
      13       -0.000009045113     0.000023612881    -0.000001831904
      14       -0.000000152697     0.000010305050     0.000009561119
      15       -0.000003732080     0.000044677037     0.000029547491
      16        0.000014119799    -0.000015272403    -0.000009628358
      17        0.000001982558    -0.000005275139     0.000015166389
      18        0.000017295621     0.000022533390     0.000005056983
      19        0.000026932899    -0.000021666791    -0.000023297284
      20       -0.000029788462    -0.000011019171     0.000001818307
      21        0.000022718073    -0.000027322885    -0.000023579367
      22        0.000003169392     0.000003881609     0.000000813076

  **** Optimization is complete! (in 10 steps) ****
    Final optimized geometry and variables:
    Molecular point group: c1

    Geometry (in Angstrom), charge = 0, multiplicity = 1:

    H            1.285497272188     0.611059127151    -3.118949646294
    C            1.408144974751     0.352952936567    -2.072375699673
    C            0.079023468002     0.485858482118    -1.339893182309
    H            2.143850822109     1.018063647516    -1.637435210363
    H            1.802952319376    -0.654485094103    -2.029858908148
    N            0.185616594550     0.204965990580     0.080646204496
    H           -0.258745011910     1.509229054172    -1.451663848364
    H           -0.671259049048    -0.140370348141    -1.826936236338
    C           -0.797016628186     0.905341546790     0.894623074149
    C            0.278531460197    -1.214727149639     0.387034469621
    C           -2.261615866915     0.812830867245     0.456652732486
    H           -0.519267222390     1.954662144439     0.923589256979
    H           -0.708698380583     0.545622388347     1.910695823320
    C            1.139682148270    -1.505877222861     1.609402937779
    H            0.718250733087    -1.720395039193    -0.461223033121
    H           -0.707935527915    -1.661912311340     0.521017781317
    H           -2.425069558883     1.272144701746    -0.509617217380
    H           -2.608253383287    -0.212886045604     0.401428246100
    H           -2.886600377414     1.331538888482     1.175357026378
    H            2.143715408352    -1.128164048593     1.460781954704
    H            0.741866130025    -1.048458748688     2.506831371777
    H            1.195400627001    -2.575315846114     1.784109305165

  Mulliken Charges: (a.u.)
   Center  Symbol    Alpha    Beta     Spin     Total
       1     H     0.45299  0.45299  0.00000  0.09402
       2     C     3.14371  3.14371  0.00000 -0.28743
       3     C     3.03967  3.03967  0.00000 -0.07934
       4     H     0.45169  0.45169  0.00000  0.09663
       5     H     0.45634  0.45634  0.00000  0.08732
       6     N     3.61899  3.61899  0.00000 -0.23798
       7     H     0.45263  0.45263  0.00000  0.09474
       8     H     0.46290  0.46290  0.00000  0.07420
       9     C     3.05648  3.05648  0.00000 -0.11296
      10     C     3.04761  3.04761  0.00000 -0.09523
      11     C     3.15435  3.15435  0.00000 -0.30869
      12     H     0.44936  0.44936  0.00000  0.10127
      13     H     0.45112  0.45112  0.00000  0.09776
      14     C     3.13792  3.13792  0.00000 -0.27583
      15     H     0.44910  0.44910  0.00000  0.10180
      16     H     0.46118  0.46118  0.00000  0.07765
      17     H     0.45190  0.45190  0.00000  0.09620
      18     H     0.45254  0.45254  0.00000  0.09491
      19     H     0.44684  0.44684  0.00000  0.10633
      20     H     0.45179  0.45179  0.00000  0.09642
      21     H     0.45639  0.45639  0.00000  0.08722
      22     H     0.45451  0.45451  0.00000  0.09099

   Total alpha = 29.00000, Total beta = 29.00000, Total charge = -0.00000

*** Psi4 exiting successfully. Buy a developer a beer!
