  ==> Input File <==

--------------------------------------------------------------------------
set {
	reference rhf
	basis 6-31G*
}

set_num_threads( 4 )
memory 2 gb

molecule MOL {
0 1

O	 3.225979	 0.970355	 -0.599647
C	 2.701189	 0.057885	 -0.047330
C	 1.245376	 -0.013843	 0.345420
O	 3.347903	 -1.046386	 0.304773
C	 1.038277	 -0.277272	 1.835329
H	 0.784115	 0.915733	 0.028688
H	 0.786253	 -0.793441	 -0.257184
C	 -0.431041	 -0.457187	 2.231850
H	 1.476878	 0.534781	 2.407447
H	 1.591756	 -1.169027	 2.108931
C	 -1.299829	 0.794032	 2.074472
H	 -0.462900	 -0.773618	 3.271840
H	 -0.864896	 -1.272880	 1.655287
C	 -2.728117	 0.594752	 2.585626
H	 -0.837574	 1.620412	 2.612279
H	 -1.339506	 1.093637	 1.029659
C	 -3.606932	 1.836992	 2.428605
H	 -2.697760	 0.307433	 3.635274
H	 -3.187259	 -0.238380	 2.055740
C	 -5.030523	 1.630861	 2.944937
H	 -3.149068	 2.670746	 2.956674
H	 -3.642034	 2.123166	 1.379485
H	 -5.628539	 2.528278	 2.819929
H	 -5.031516	 1.377365	 4.001315
H	 -5.527968	 0.825154	 2.412340
C	 4.728119	 -1.109107	 -0.004993
H	 4.882018	 -1.033965	 -1.071845
H	 5.068212	 -2.067527	 0.355250
H	 5.265056	 -0.311663	 0.488280

	symmetry c1
}
set optking {
	frozen_dihedral = ("
		6 3 2 1
	")
}

ee = optimize('scf')
oeprop('DIPOLE', 'QUADRUPOLE', 'MULLIKEN_CHARGES')
f=open( 'psi4out.xyz', 'w' )
f.write( "29  " )
f.write( str(ee) + "\n" )
f.write( MOL.save_string_xyz() )
f.close()
--------------------------------------------------------------------------

    Molecular point group: c1
  Charge       = 0
  Multiplicity = 1
  Basis Set: 6-31G*
  Basis Set:
  @DF-RHF Final Energy:  -501.04238629448582
    Total Energy =                       -501.0423862944858229
    Molecular point group: c1
  Basis Set: 6-31G*
  Basis Set:
  Basis Set: 6-31G*
  Basis Set:
  @DF-RHF Final Energy:  -501.04208207499971
    Total Energy =                       -501.0420820749994846
  Basis Set: 6-31G*
  Basis Set:
  Basis Set: 6-31G*
  Basis Set:
  @DF-RHF Final Energy:  -501.04234528037932
    Total Energy =                       -501.0423452803795499
  Basis Set: 6-31G*
  Basis Set:
  Basis Set: 6-31G*
  Basis Set:
  @DF-RHF Final Energy:  -501.04274861592273
    Total Energy =                       -501.0427486159214823
  Basis Set: 6-31G*
  Basis Set:
  Basis Set: 6-31G*
  Basis Set:
  @DF-RHF Final Energy:  -501.04273845838372
    Total Energy =                       -501.0427384583838375
  Basis Set: 6-31G*
  Basis Set:
  Basis Set: 6-31G*
  Basis Set:
  @DF-RHF Final Energy:  -501.04275039830122
    Total Energy =                       -501.0427503983016777
  Basis Set: 6-31G*
  Basis Set:
  Basis Set: 6-31G*
  Basis Set:
  @DF-RHF Final Energy:  -501.04275444275618
    Total Energy =                       -501.0427544427565181
  Basis Set: 6-31G*
  Basis Set:
  Charge       = 0
  Multiplicity = 1
  Basis Set: 6-31G*
  Basis Set:

    Orbital Energies (a.u.)
    -----------------------

    Doubly Occupied:

       1A    -20.603988     2A    -20.543326     3A    -11.370720
       4A    -11.280738     5A    -11.233464     6A    -11.227384
       7A    -11.221149     8A    -11.217104     9A    -11.216155
      10A    -11.215327    11A    -11.209270    12A     -1.468566
      13A     -1.360968    14A     -1.100606    15A     -1.068321
      16A     -1.019284    17A     -0.973887    18A     -0.931289
      19A     -0.864624    20A     -0.799601    21A     -0.791038
      22A     -0.772629    23A     -0.697368    24A     -0.678784
      25A     -0.672876    26A     -0.651786    27A     -0.627167
      28A     -0.604520    29A     -0.594720    30A     -0.579165
      31A     -0.562436    32A     -0.554755    33A     -0.539428
      34A     -0.529370    35A     -0.518268    36A     -0.515888
      37A     -0.495767    38A     -0.483290    39A     -0.471690
      40A     -0.464615    41A     -0.463073    42A     -0.455474
      43A     -0.443148    44A     -0.426940

  @DF-RHF Final Energy:  -501.04275426045615

   => Energetics <=

    Nuclear Repulsion Energy =            611.9148683029980020
    One-Electron Energy =               -1894.8753111000501121
    Two-Electron Energy =                 781.9176885365961880
    DFT Exchange-Correlation Energy =       0.0000000000000000
    Empirical Dispersion Energy =           0.0000000000000000
    PCM Polarization Energy =               0.0000000000000000
    EFP Energy =                            0.0000000000000000
    Total Energy =                       -501.0427542604559221
    Molecular point group: c1
  Basis Set: 6-31G*
  Basis Set:

  -Total Gradient:
     Atom            X                  Y                   Z
    ------   -----------------  -----------------  -----------------
       1       -0.000152788586    -0.000235841176    -0.000531035870
       2        0.000209309225     0.000443134293     0.000857015554
       3       -0.000186327970    -0.000383471407    -0.000797412151
       4        0.000035817750    -0.000058320552     0.000002875796
       5       -0.000013387462    -0.000006950034    -0.000006423792
       6        0.000127066980     0.000231378003     0.000493615477
       7        0.000008051189    -0.000019853508    -0.000020699367
       8       -0.000001256067    -0.000020301073    -0.000045530958
       9        0.000004038567     0.000020755871    -0.000003726010
      10       -0.000023593499    -0.000003229540     0.000010731010
      11        0.000001374906     0.000020567203     0.000048209516
      12        0.000030424849     0.000003238672    -0.000011800061
      13       -0.000007583014    -0.000009977831     0.000002304340
      14       -0.000002809810     0.000004456481    -0.000011238741
      15       -0.000004392619     0.000016328393     0.000014403711
      16       -0.000002449306    -0.000004980201     0.000013050605
      17       -0.000005627417    -0.000004988719    -0.000014616527
      18        0.000001925036     0.000010296692    -0.000002574890
      19        0.000002161753    -0.000008568520     0.000003791766
      20       -0.000000439839     0.000000670487    -0.000000256011
      21        0.000000717567    -0.000003924301    -0.000000844592
      22       -0.000001983582     0.000002820018    -0.000002065211
      23        0.000000105697     0.000000292950     0.000001410008
      24       -0.000000018382    -0.000001103163     0.000000501428
      25        0.000000103398     0.000001221295    -0.000000392505
      26       -0.000010781365     0.000009791587    -0.000002179148
      27        0.000000526296    -0.000000981463     0.000000273610
      28       -0.000009444940    -0.000001838347     0.000002853325
      29        0.000001260636    -0.000000622112    -0.000000240307

  **** Optimization is complete! (in 8 steps) ****
    Final optimized geometry and variables:
    Molecular point group: c1

    Geometry (in Angstrom), charge = 0, multiplicity = 1:

    O            2.853150956678     0.712295761415    -1.851134443222
    C            2.364102940120    -0.222838404144    -1.303069668480
    C            0.908683003839    -0.333119930553    -0.918800609033
    O            3.052286970535    -1.309076815081    -0.973773489522
    C            0.698422496587    -0.581572957080     0.581922020897
    H            0.435312092731     0.584276451909    -1.238495428541
    H            0.479138116994    -1.154262916046    -1.486797590287
    C           -0.773438003168    -0.739449378510     0.978998766862
    H            1.138161503480     0.238455843778     1.145717973583
    H            1.237402087980    -1.478512164732     0.864801143027
    C           -1.626232680351     0.521741496888     0.815683691496
    H           -0.808655160118    -1.051020630844     2.020446043063
    H           -1.214693748061    -1.552834696314     0.405240411156
    C           -3.058484247689     0.339085969731     1.322066417228
    H           -1.156501413838     1.343711006749     1.353559625117
    H           -1.658174399638     0.819672345140    -0.229398417974
    C           -3.923239945234     1.590024763777     1.156328312825
    H           -3.035633790834     0.055667838590     2.373026522693
    H           -3.524288801054    -0.491203950314     0.793528020427
    C           -5.351068929304     1.400967399840     1.667425957512
    H           -3.458703645282     2.420918189666     1.682977952445
    H           -3.950705009537     1.872298440068     0.106033102728
    H           -5.938815861381     2.304233733190     1.536314673214
    H           -5.359324883570     1.151683794284     2.724801072547
    H           -5.854873895125     0.598584139470     1.135792769730
    C            4.430794166315    -1.318748632179    -1.297118665634
    H            4.570772753496    -1.225433743288    -2.364400604432
    H            4.808334392478    -2.268595396626    -0.951768727305
    H            4.943381269621    -0.508245023425    -0.799440241056

  Mulliken Charges: (a.u.)
   Center  Symbol    Alpha    Beta     Spin     Total
       1     O     4.28568  4.28568  0.00000 -0.57136
       2     C     2.61285  2.61285  0.00000  0.77430
       3     C     3.20127  3.20127  0.00000 -0.40254
       4     O     4.30270  4.30270  0.00000 -0.60541
       5     C     3.16480  3.16480  0.00000 -0.32959
       6     H     0.39625  0.39625  0.00000  0.20751
       7     H     0.40467  0.40467  0.00000  0.19066
       8     C     3.15542  3.15542  0.00000 -0.31084
       9     H     0.41608  0.41608  0.00000  0.16784
      10     H     0.40524  0.40524  0.00000  0.18952
      11     C     3.15514  3.15514  0.00000 -0.31029
      12     H     0.41853  0.41853  0.00000  0.16295
      13     H     0.42225  0.42225  0.00000  0.15551
      14     C     3.15061  3.15061  0.00000 -0.30121
      15     H     0.42209  0.42209  0.00000  0.15582
      16     H     0.42145  0.42145  0.00000  0.15711
      17     C     3.15160  3.15160  0.00000 -0.30320
      18     H     0.42372  0.42372  0.00000  0.15257
      19     H     0.42387  0.42387  0.00000  0.15226
      20     C     3.23942  3.23942  0.00000 -0.47884
      21     H     0.42252  0.42252  0.00000  0.15496
      22     H     0.42265  0.42265  0.00000  0.15469
      23     H     0.41891  0.41891  0.00000  0.16217
      24     H     0.42177  0.42177  0.00000  0.15645
      25     H     0.42181  0.42181  0.00000  0.15638
      26     C     3.09213  3.09213  0.00000 -0.18425
      27     H     0.40879  0.40879  0.00000  0.18241
      28     H     0.40892  0.40892  0.00000  0.18216
      29     H     0.40886  0.40886  0.00000  0.18228

   Total alpha = 44.00000, Total beta = 44.00000, Total charge =  0.00000
