  ==> Input File <==

--------------------------------------------------------------------------
set {
	reference rhf
	basis 6-31G*
}

set_num_threads( 4 )
memory 2 gb

molecule MOL {
0 1

H	 -1.070890	 -1.366565	 0.180696
O	 -1.422729	 -0.573567	 -0.196946
C	 -0.731407	 0.539437	 0.309156
C	 0.680193	 0.672443	 -0.251532
H	 -1.319765	 1.404033	 0.030086
H	 -0.700012	 0.506517	 1.397677
C	 0.718456	 1.012342	 -1.741737
H	 1.205369	 1.438339	 0.311709
H	 1.204697	 -0.265077	 -0.079805
H	 0.266271	 1.979581	 -1.939659
H	 1.739635	 1.056084	 -2.105393
H	 0.191239	 0.265962	 -2.330992

	symmetry c1
}
set optking {
	frozen_dihedral = ("
		8 4 3 2
	")
}

ee = optimize('scf')
oeprop('DIPOLE', 'QUADRUPOLE', 'MULLIKEN_CHARGES')
f=open( 'psi4out.xyz', 'w' )
f.write( "12  " )
f.write( str(ee) + "\n" )
f.write( MOL.save_string_xyz() )
f.close()
--------------------------------------------------------------------------

    Molecular point group: c1
  Charge       = 0
  Multiplicity = 1
  Basis Set: 6-31G*
  Basis Set:
  @DF-RHF Final Energy:  -193.10999426714727
    Total Energy =                       -193.1099942671472149
    Molecular point group: c1
  Basis Set: 6-31G*
  Basis Set:
  Basis Set: 6-31G*
  Basis Set:
  @DF-RHF Final Energy:  -193.11021997234440
    Total Energy =                       -193.1102199723443960
  Basis Set: 6-31G*
  Basis Set:
  Basis Set: 6-31G*
  Basis Set:
  @DF-RHF Final Energy:  -193.11024087646351
    Total Energy =                       -193.1102408764634504
  Basis Set: 6-31G*
  Basis Set:
  Basis Set: 6-31G*
  Basis Set:
  @DF-RHF Final Energy:  -193.11024338377595
    Total Energy =                       -193.1102433837760941
  Basis Set: 6-31G*
  Basis Set:
  Charge       = 0
  Multiplicity = 1
  Basis Set: 6-31G*
  Basis Set:

    Orbital Energies (a.u.)
    -----------------------

    Doubly Occupied:

       1A    -20.553821     2A    -11.268248     3A    -11.220366
       4A    -11.208586     5A     -1.360669     6A     -1.049240
       7A     -0.920745     8A     -0.815292     9A     -0.679746
      10A     -0.637022    11A     -0.624520    12A     -0.566498
      13A     -0.529539    14A     -0.521271    15A     -0.484860
      16A     -0.467897    17A     -0.429596

  @DF-RHF Final Energy:  -193.11024345905065

   => Energetics <=

    Nuclear Repulsion Energy =            132.9144581064088584
    One-Electron Energy =                -525.3735725971955617
    Two-Electron Energy =                 199.3488710317360244
    DFT Exchange-Correlation Energy =       0.0000000000000000
    Empirical Dispersion Energy =           0.0000000000000000
    PCM Polarization Energy =               0.0000000000000000
    EFP Energy =                            0.0000000000000000
    Total Energy =                       -193.1102434590506789
    Molecular point group: c1
  Basis Set: 6-31G*
  Basis Set:

  -Total Gradient:
     Atom            X                  Y                   Z
    ------   -----------------  -----------------  -----------------
       1        0.000005768244     0.000006715914     0.000004288204
       2        0.000527554829    -0.000861848158     0.001159200430
       3       -0.000570752936     0.000884999745    -0.001282228181
       4       -0.000555759287     0.001361735582    -0.001119091855
       5       -0.000009973619    -0.000011070589    -0.000008311894
       6       -0.000003456896    -0.000006202626    -0.000001643469
       7        0.000004558701     0.000002625730    -0.000001191344
       8        0.000609259692    -0.001361967490     0.001250215188
       9        0.000000065090    -0.000006701427    -0.000006561283
      10        0.000005661539    -0.000002496488     0.000008938710
      11       -0.000012640422     0.000008274589     0.000003380256
      12       -0.000000284935    -0.000014064780    -0.000006994763

  **** Optimization is complete! (in 5 steps) ****
    Final optimized geometry and variables:
    Molecular point group: c1

    Geometry (in Angstrom), charge = 0, multiplicity = 1:

    H           -0.777701281045    -1.729664691501     0.545843337666
    O           -1.205602642024    -0.933746468546     0.262199579200
    C           -0.511262113513     0.173392306941     0.777740138883
    C            0.902341245381     0.296180425970     0.218770133602
    H           -1.099393110233     1.043078475119     0.512073013317
    H           -0.477735029590     0.124076877837     1.864777990397
    C            0.935485369185     0.612242572830    -1.274721805116
    H            1.437387449008     1.055911631975     0.784306157678
    H            1.430803786339    -0.638194721370     0.406973402703
    H            0.475136534804     1.575036148402    -1.477893425783
    H            1.954859549062     0.647379265202    -1.645954128203
    H            0.395254662934    -0.139378439588    -1.838806886366

  Mulliken Charges: (a.u.)
   Center  Symbol    Alpha    Beta     Spin     Total
       1     H     0.28320  0.28320  0.00000  0.43361
       2     O     4.36834  4.36834  0.00000 -0.73667
       3     C     2.99646  2.99646  0.00000  0.00708
       4     C     3.16533  3.16533  0.00000 -0.33067
       5     H     0.41632  0.41632  0.00000  0.16737
       6     H     0.42871  0.42871  0.00000  0.14258
       7     C     3.24098  3.24098  0.00000 -0.48196
       8     H     0.42174  0.42174  0.00000  0.15651
       9     H     0.42777  0.42777  0.00000  0.14445
      10     H     0.42133  0.42133  0.00000  0.15735
      11     H     0.41980  0.41980  0.00000  0.16039
      12     H     0.41002  0.41002  0.00000  0.17996

   Total alpha = 17.00000, Total beta = 17.00000, Total charge = -0.00000
