                              Psi4 1.0.54 Driver

  ==> Input File <==

--------------------------------------------------------------------------
set {
	reference rhf
	basis cc-pvtz
}

set_num_threads( 4 )
memory 2 gb

molecule MOL {
0 1

O	 -0.988175	 -1.402891	 0.050086
C	 -0.675048	 -0.248293	 -0.009686
C	 -1.742492	 0.826599	 -0.011538
N	 0.622280	 0.144970	 -0.099307
H	 -1.692153	 1.431066	 -0.908439
H	 -2.698310	 0.331559	 0.031353
H	 -1.642148	 1.483784	 0.843455
C	 1.660720	 -0.767805	 0.330147
C	 1.039257	 1.515863	 -0.274054
H	 2.509585	 -0.689330	 -0.338054
H	 1.285899	 -1.774991	 0.313846
H	 1.997273	 -0.537288	 1.337731
H	 1.955516	 1.538383	 -0.849901
H	 0.303867	 2.090776	 -0.810311
H	 1.232121	 2.006016	 0.677575

	symmetry c1
}
set optking {
	frozen_dihedral = ("
		8 4 2 3
	")
}

ee,wfn = optimize('scf', return_wfn=True)
oeprop( wfn, 'DIPOLE', 'QUADRUPOLE', 'MULLIKEN_CHARGES')
f=open( 'psi4out.xyz', 'w' )
f.write( "15  " )
f.write( str(ee) + "\n" )
f.write( MOL.save_string_xyz() )
f.close()
--------------------------------------------------------------------------

    Molecular point group: c1
  Charge       = 0
  Multiplicity = 1
  Basis Set: CC-PVTZ
  Basis Set:
  @DF-RHF Final Energy:  -286.13328332794742
    Total Energy =                       -286.1332833279473107
    Molecular point group: c1
  Basis Set: CC-PVTZ
  Basis Set:
  Basis Set: CC-PVTZ
  Basis Set:
  @DF-RHF Final Energy:  -286.13147523045143
    Total Energy =                       -286.1314752304514286
  Basis Set: CC-PVTZ
  Basis Set:
  Basis Set: CC-PVTZ
  Basis Set:
  @DF-RHF Final Energy:  -286.13420538747022
    Total Energy =                       -286.1342053874702174
  Basis Set: CC-PVTZ
  Basis Set:
  Basis Set: CC-PVTZ
  Basis Set:
  @DF-RHF Final Energy:  -286.13429886013887
    Total Energy =                       -286.1342988601392108
  Basis Set: CC-PVTZ
  Basis Set:
  @DF-RHF Final Energy:  -286.13433224117477
    Total Energy =                       -286.1343322411748886
  Basis Set: CC-PVTZ
  Basis Set:
  @DF-RHF Final Energy:  -286.13434469054658
    Total Energy =                       -286.1343446905463566
  Basis Set: CC-PVTZ
  Basis Set:
  Basis Set: CC-PVTZ
  Basis Set:
  @DF-RHF Final Energy:  -286.13435137459328
    Total Energy =                       -286.1343513745931659
  Basis Set: CC-PVTZ
  Basis Set:
  Basis Set: CC-PVTZ
  Basis Set:
  @DF-RHF Final Energy:  -286.13435274230739
    Total Energy =                       -286.1343527423076125
  Basis Set: CC-PVTZ
  Basis Set:
  Charge       = 0
  Multiplicity = 1
  Basis Set: CC-PVTZ
  Basis Set:

    Orbital Energies (a.u.)
    -----------------------

    Doubly Occupied:

       1A    -20.506163     2A    -15.577548     3A    -11.335932
       4A    -11.263051     5A    -11.247063     6A    -11.227250
       7A     -1.389205     8A     -1.246128     9A     -1.015239
      10A     -0.971755    11A     -0.920151    12A     -0.738520
      13A     -0.683778    14A     -0.662237    15A     -0.653410
      16A     -0.589511    17A     -0.577572    18A     -0.569371
      19A     -0.562293    20A     -0.548990    21A     -0.529699
      22A     -0.507834    23A     -0.415348    24A     -0.371727

  @DF-RHF Final Energy:  -286.13435334564588

   => Energetics <=

    Nuclear Repulsion Energy =            253.0889622596756396
    One-Electron Energy =                -890.2270876160023363
    Two-Electron Energy =                 351.0037720106806773
    DFT Exchange-Correlation Energy =       0.0000000000000000
    Empirical Dispersion Energy =           0.0000000000000000
    PCM Polarization Energy =               0.0000000000000000
    EFP Energy =                            0.0000000000000000
    Total Energy =                       -286.1343533456459909
    Molecular point group: c1
  Basis Set: CC-PVTZ
  Basis Set:

  -Total Gradient:
     Atom            X                  Y                   Z
    ------   -----------------  -----------------  -----------------
       1       -0.000045795447    -0.000056042953     0.000044797033
       2       -0.000403272128     0.000243673679    -0.003988280882
       3        0.000295258520     0.000423147530     0.003713725142
       4        0.000318250348    -0.002325962452    -0.003243379665
       5       -0.000006995094     0.000005702116    -0.000006638638
       6       -0.000037048310    -0.000015023596    -0.000003265644
       7        0.000009561169     0.000025471714     0.000025297267
       8       -0.000124500982     0.001712231773     0.003486970526
       9       -0.000008650312     0.000015343454    -0.000012420976
      10        0.000012412983    -0.000018042837    -0.000002503896
      11       -0.000006098882     0.000002767733    -0.000001000915
      12        0.000011684902     0.000015010192    -0.000002949681
      13       -0.000035766230     0.000000167508     0.000026808049
      14        0.000029126580    -0.000008797055     0.000008735363
      15       -0.000008167119    -0.000019646806    -0.000045893083

  **** Optimization is complete! (in 9 steps) ****
    Final optimized geometry and variables:
    Molecular point group: c1

    Geometry (in Angstrom), charge = 0, multiplicity = 1:

    O           -0.979329934236    -1.407880497781     0.162771059284
    C           -0.669629275641    -0.267503676941    -0.025133409138
    C           -1.733580676089     0.809278893726    -0.074089998811
    N            0.631304823893     0.114981809406    -0.166359279651
    H           -1.756499710404     1.307798788348    -1.035101778762
    H           -2.684532375039     0.333517723393     0.099072882476
    H           -1.559142930340     1.559056555388     0.687635382306
    C            1.665732997755    -0.784362006055     0.304687125508
    C            1.031941874437     1.501034489140    -0.244732085530
    H            2.533444003811    -0.713141454122    -0.339145678090
    H            1.299511903165    -1.794768071770     0.292736001480
    H            1.969761490454    -0.530788012288     1.317522108567
    H            1.990374382429     1.558436398218    -0.742772003711
    H            0.332862258439     2.083771278878    -0.821089750759
    H            1.139184005494     1.958483263322     0.736863837586

  Mulliken Charges: (a.u.)
   Center  Symbol    Alpha    Beta     Spin     Total
       1     O     4.21724  4.21724  0.00000 -0.43449
       2     C     2.84271  2.84271  0.00000  0.31459
       3     C     3.16072  3.16072  0.00000 -0.32143
       4     N     3.56665  3.56665  0.00000 -0.13331
       5     H     0.44752  0.44752  0.00000  0.10497
       6     H     0.42875  0.42875  0.00000  0.14250
       7     H     0.44958  0.44958  0.00000  0.10084
       8     C     3.09904  3.09904  0.00000 -0.19807
       9     C     3.09996  3.09996  0.00000 -0.19992
      10     H     0.45550  0.45550  0.00000  0.08900
      11     H     0.42614  0.42614  0.00000  0.14773
      12     H     0.45950  0.45950  0.00000  0.08100
      13     H     0.44590  0.44590  0.00000  0.10819
      14     H     0.44475  0.44475  0.00000  0.11050
      15     H     0.45604  0.45604  0.00000  0.08791

   Total alpha = 24.00000, Total beta = 24.00000, Total charge = -0.00000

*** Psi4 exiting successfully. Buy a developer a beer!
