  ==> Input File <==

--------------------------------------------------------------------------
set {
	reference rhf
	basis 6-31G*
}

set_num_threads( 4 )
memory 2 gb

molecule MOL {
0 1

H	 1.490893	 1.320315	 -2.266912
C	 0.761233	 1.118773	 -1.491087
C	 1.322923	 0.120767	 -0.479465
H	 0.510581	 2.063290	 -1.018399
H	 -0.133946	 0.734295	 -1.970071
C	 0.306652	 -0.176050	 0.621399
H	 2.225554	 0.517222	 -0.026134
H	 1.585617	 -0.807673	 -0.972672
N	 -1.068537	 -0.011044	 0.085269
H	 0.372515	 -1.192590	 0.973735
H	 0.391664	 0.520566	 1.441230
O	 -1.656956	 -0.997225	 -0.235017
O	 -1.478635	 1.104830	 -0.018026

	symmetry c1
}
set optking {
	frozen_dihedral = ("
		7 3 6 9
	")
}

ee = optimize('scf')
oeprop('DIPOLE', 'QUADRUPOLE', 'MULLIKEN_CHARGES')
f=open( 'psi4out.xyz', 'w' )
f.write( "13  " )
f.write( str(ee) + "\n" )
f.write( MOL.save_string_xyz() )
f.close()
--------------------------------------------------------------------------

    Molecular point group: c1
  Charge       = 0
  Multiplicity = 1
  Basis Set: 6-31G*
  Basis Set:
  @DF-RHF Final Energy:  -321.72447632404476
    Total Energy =                       -321.7244763240447583
    Molecular point group: c1
  Basis Set: 6-31G*
  Basis Set:
  Basis Set: 6-31G*
  Basis Set:
  @DF-RHF Final Energy:  -321.72668456089843
    Total Energy =                       -321.7266845608983203
  Basis Set: 6-31G*
  Basis Set:
  Basis Set: 6-31G*
  Basis Set:
  @DF-RHF Final Energy:  -321.72819421307656
    Total Energy =                       -321.7281942130764492
  Basis Set: 6-31G*
  Basis Set:
  Basis Set: 6-31G*
  Basis Set:
  @DF-RHF Final Energy:  -321.73018472130161
    Total Energy =                       -321.7301847213017254
  Basis Set: 6-31G*
  Basis Set:
  @DF-RHF Final Energy:  -321.73060927775407
    Total Energy =                       -321.7306092777540698
  @DF-RHF Final Energy:  -321.73066832726522
    Total Energy =                       -321.7306683272652208
  @DF-RHF Final Energy:  -321.73071635329001
    Total Energy =                       -321.7307163532900063
  @DF-RHF Final Energy:  -321.73084899634284
    Total Energy =                       -321.7308489963427860
  @DF-RHF Final Energy:  -321.73117019087852
    Total Energy =                       -321.7311701908784016
  @DF-RHF Final Energy:  -321.71854588565543
    Total Energy =                       -321.7185458856552600
  @DF-RHF Final Energy:  -321.72981294020434
    Total Energy =                       -321.7298129402043969
  @DF-RHF Final Energy:  -321.73135417178878
    Total Energy =                       -321.7313541717887801
  Basis Set: 6-31G*
  Basis Set:
  @DF-RHF Final Energy:  -321.73143467363229
    Total Energy =                       -321.7314346736322932
  Basis Set: 6-31G*
  Basis Set:
  Basis Set: 6-31G*
  Basis Set:
  @DF-RHF Final Energy:  -321.73144671084117
    Total Energy =                       -321.7314467108411691
  Basis Set: 6-31G*
  Basis Set:
  Basis Set: 6-31G*
  Basis Set:
  @DF-RHF Final Energy:  -321.73144837820661
    Total Energy =                       -321.7314483782067782
  Basis Set: 6-31G*
  Basis Set:
  Charge       = 0
  Multiplicity = 1
  Basis Set: 6-31G*
  Basis Set:

    Orbital Energies (a.u.)
    -----------------------

    Doubly Occupied:

       1A    -20.603376     2A    -20.598724     3A    -15.846610
       4A    -11.299282     5A    -11.257495     6A    -11.229818
       7A     -1.630897     8A     -1.416228     9A     -1.131847
      10A     -1.021695    11A     -0.895378    12A     -0.820294
      13A     -0.752682    14A     -0.735637    15A     -0.725606
      16A     -0.665274    17A     -0.607345    18A     -0.591166
      19A     -0.533832    20A     -0.518958    21A     -0.512643
      22A     -0.480856    23A     -0.473864    24A     -0.448739

  @DF-RHF Final Energy:  -321.73144840214940

   => Energetics <=

    Nuclear Repulsion Energy =            254.5811799555647781
    One-Electron Energy =                -943.0287613938525055
    Two-Electron Energy =                 366.7161330361384444
    DFT Exchange-Correlation Energy =       0.0000000000000000
    Empirical Dispersion Energy =           0.0000000000000000
    PCM Polarization Energy =               0.0000000000000000
    EFP Energy =                            0.0000000000000000
    Total Energy =                       -321.7314484021492262
    Molecular point group: c1
  Basis Set: 6-31G*
  Basis Set:

  -Total Gradient:
     Atom            X                  Y                   Z
    ------   -----------------  -----------------  -----------------
       1        0.000010745563     0.000000267222    -0.000019537704
       2       -0.000016805546     0.000000379883     0.000002543063
       3        0.002664718436    -0.005079783912     0.001241752994
       4        0.000009340549    -0.000000944553    -0.000008076450
       5       -0.000023203378    -0.000001290364     0.000020783631
       6       -0.000517701313    -0.004850905845    -0.001515177022
       7       -0.002225557501     0.005541951109    -0.000713074027
       8        0.000005915276     0.000001390199     0.000003295010
       9        0.000089757712     0.004362249062     0.000927055362
      10        0.000000772792     0.000005345034     0.000010524886
      11        0.000029314793    -0.000014222193     0.000023828110
      12       -0.000011247419     0.000010522470    -0.000000608319
      13       -0.000016049960     0.000025041886     0.000026690467

  **** Optimization is complete! (in 16 steps) ****
    Final optimized geometry and variables:
    Molecular point group: c1

    Geometry (in Angstrom), charge = 0, multiplicity = 1:

    H            1.974005530137     1.095413510905    -2.061169420408
    C            1.176228280020     0.916121668881    -1.349250378696
    C            1.651458001699    -0.084167846302    -0.290141185952
    H            0.904292459576     1.867010949563    -0.903984009287
    H            0.320884932638     0.541782274642    -1.898744035995
    C            0.652985329805    -0.332445275820     0.854646161280
    H            2.541241323339     0.331493102386     0.170267478884
    H            1.912419257359    -1.023911748477    -0.759196315145
    N           -0.751630602207    -0.204593690141     0.388131143988
    H            0.741878067307    -1.328426837648     1.259250804744
    H            0.754435366405     0.400817074486     1.637398755344
    O           -1.178669555419    -1.091684510698    -0.287688662534
    O           -1.351113862433     0.777329343546     0.697699892380

  Mulliken Charges: (a.u.)
   Center  Symbol    Alpha    Beta     Spin     Total
       1     H     0.41069  0.41069  0.00000  0.17863
       2     C     3.25599  3.25599  0.00000 -0.51197
       3     C     3.16964  3.16964  0.00000 -0.33928
       4     H     0.40841  0.40841  0.00000  0.18318
       5     H     0.40218  0.40218  0.00000  0.19564
       6     C     3.08713  3.08713  0.00000 -0.17426
       7     H     0.40733  0.40733  0.00000  0.18533
       8     H     0.40178  0.40178  0.00000  0.19643
       9     N     3.22784  3.22784  0.00000  0.54433
      10     H     0.38598  0.38598  0.00000  0.22803
      11     H     0.38779  0.38779  0.00000  0.22442
      12     O     4.23080  4.23080  0.00000 -0.46160
      13     O     4.22445  4.22445  0.00000 -0.44889

   Total alpha = 24.00000, Total beta = 24.00000, Total charge =  0.00000
