                              Psi4 1.0.54 Driver

  ==> Input File <==

--------------------------------------------------------------------------
set {
	reference rhf
	basis cc-pvtz
}

set_num_threads( 4 )
memory 2 gb

molecule MOL {
0 1

H	 0.710920	 4.653740	 -0.783690
N	 -0.073217	 4.042271	 -0.866462
C	 0.258557	 2.700580	 -0.413417
H	 -0.342503	 4.037224	 -1.828132
C	 -0.961768	 1.793374	 -0.463516
H	 0.608018	 2.773741	 0.611001
H	 1.066990	 2.246547	 -0.988086
C	 -0.678115	 0.376691	 0.025731
H	 -1.750414	 2.242479	 0.131252
H	 -1.332344	 1.753573	 -1.486049
C	 -1.900706	 -0.535531	 -0.022488
H	 -0.303852	 0.416940	 1.046153
H	 0.117533	 -0.061968	 -0.572094
C	 -3.220513	 0.226854	 0.028039
H	 -1.865036	 -1.134397	 -0.928236
H	 -1.857948	 -1.236381	 0.806820
H	 -3.309098	 0.911849	 -0.808725
H	 -4.066838	 -0.449485	 -0.008086
H	 -3.301685	 0.809374	 0.939860

	symmetry c1
}
set optking {
	frozen_dihedral = ("
		12 8 11 15
	")
}

ee,wfn = optimize('scf', return_wfn=True)
oeprop( wfn, 'DIPOLE', 'QUADRUPOLE', 'MULLIKEN_CHARGES')
f=open( 'psi4out.xyz', 'w' )
f.write( "19  " )
f.write( str(ee) + "\n" )
f.write( MOL.save_string_xyz() )
f.close()
--------------------------------------------------------------------------

    Molecular point group: c1
  Charge       = 0
  Multiplicity = 1
  Basis Set: CC-PVTZ
  Basis Set:
  @DF-RHF Final Energy:  -251.43821881580240
    Total Energy =                       -251.4382188158025997
    Molecular point group: c1
  Basis Set: CC-PVTZ
  Basis Set:
  Basis Set: CC-PVTZ
  Basis Set:
  @DF-RHF Final Energy:  -251.43789138220319
    Total Energy =                       -251.4378913822030768
  Basis Set: CC-PVTZ
  Basis Set:
  Basis Set: CC-PVTZ
  Basis Set:
  @DF-RHF Final Energy:  -251.44136298190065
    Total Energy =                       -251.4413629819006815
  Basis Set: CC-PVTZ
  Basis Set:
  Basis Set: CC-PVTZ
  Basis Set:
  @DF-RHF Final Energy:  -251.44157243207096
    Total Energy =                       -251.4415724320708136
  Basis Set: CC-PVTZ
  Basis Set:
  Basis Set: CC-PVTZ
  Basis Set:
  @DF-RHF Final Energy:  -251.44159399592533
    Total Energy =                       -251.4415939959255866
  Basis Set: CC-PVTZ
  Basis Set:
  Basis Set: CC-PVTZ
  Basis Set:
  @DF-RHF Final Energy:  -251.44159603894255
    Total Energy =                       -251.4415960389426346
  Basis Set: CC-PVTZ
  Basis Set:
  Charge       = 0
  Multiplicity = 1
  Basis Set: CC-PVTZ
  Basis Set:

    Orbital Energies (a.u.)
    -----------------------

    Doubly Occupied:

       1A    -15.526317     2A    -11.237765     3A    -11.212263
       4A    -11.210650     5A    -11.207410     6A    -11.204246
       7A     -1.178059     8A     -1.071083     9A     -0.995783
      10A     -0.905763    11A     -0.826664    12A     -0.771955
      13A     -0.663952    14A     -0.642188    15A     -0.607886
      16A     -0.596805    17A     -0.581763    18A     -0.535575
      19A     -0.527706    20A     -0.504645    21A     -0.489879
      22A     -0.459274    23A     -0.452028    24A     -0.447725
      25A     -0.383872

  @DF-RHF Final Energy:  -251.44159746338983

   => Energetics <=

    Nuclear Repulsion Energy =            249.6292255411973429
    One-Electron Energy =                -833.6591388497798789
    Two-Electron Energy =                 332.5883158451925965
    DFT Exchange-Correlation Energy =       0.0000000000000000
    Empirical Dispersion Energy =           0.0000000000000000
    PCM Polarization Energy =               0.0000000000000000
    EFP Energy =                            0.0000000000000000
    Total Energy =                       -251.4415974633899395
    Molecular point group: c1
  Basis Set: CC-PVTZ
  Basis Set:

  -Total Gradient:
     Atom            X                  Y                   Z
    ------   -----------------  -----------------  -----------------
       1        0.000004973772     0.000023935674    -0.000005751528
       2        0.000008209435     0.000018036110     0.000014474332
       3       -0.000013979526    -0.000003922732    -0.000024081673
       4       -0.000000438180     0.000000261481    -0.000006535950
       5        0.000009150886    -0.000022626425     0.000008049931
       6       -0.000002061103    -0.000005690823     0.000000819354
       7        0.000005494783    -0.000004347462     0.000002938800
       8       -0.004222052928     0.004576358936     0.002143022866
       9       -0.000010946539    -0.000003313327    -0.000000553389
      10        0.000006637029     0.000007319550    -0.000006671838
      11       -0.003322050712     0.004066643986    -0.003967120009
      12        0.004062807434    -0.004521595445    -0.001164958123
      13       -0.000005757567     0.000003811397    -0.000001160692
      14       -0.000003759372     0.000005424498    -0.000005610676
      15        0.003477794750    -0.004149833437     0.003009042270
      16        0.000002122642    -0.000001411620    -0.000002503913
      17       -0.000006245005    -0.000006192844     0.000006075760
      18        0.000012467904     0.000015587309    -0.000002386798
      19       -0.000002367705     0.000001555169     0.000002911279

  **** Optimization is complete! (in 7 steps) ****
    Final optimized geometry and variables:
    Molecular point group: c1

    Geometry (in Angstrom), charge = 0, multiplicity = 1:

    H            1.805282072253     3.228530322690    -0.559712796531
    N            1.019390099554     2.618483256212    -0.636550055467
    C            1.339528790645     1.287080245702    -0.146134469995
    H            0.761945474473     2.590561898000    -1.601094754819
    C            0.113885465324     0.385720924273    -0.184112896941
    H            1.679025894990     1.384506587570     0.879693542715
    H            2.151177910944     0.814570236153    -0.700764564062
    C            0.398180097380    -1.009810887241     0.361397728091
    H           -0.678629462719     0.866984101076     0.375685171471
    H           -0.235583453608     0.309591314456    -1.212192716147
    C           -0.755247543084    -2.029658573981     0.280807178541
    H            0.756880427573    -0.951035228189     1.385395880414
    H            1.238451916828    -1.425772105481    -0.189193825250
    C           -2.169039188885    -1.473722881953     0.415598810080
    H           -0.660485215706    -2.610820567757    -0.631335442056
    H           -0.602749364581    -2.756637139794     1.073531297889
    H           -2.423316089629    -0.803133081611    -0.395883842015
    H           -2.892077879543    -2.281347067669     0.412141790198
    H           -2.291320952020    -0.928071709051     1.345290877680

  Mulliken Charges: (a.u.)
   Center  Symbol    Alpha    Beta     Spin     Total
       1     H     0.43032  0.43032  0.00000  0.13936
       2     N     3.68865  3.68865  0.00000 -0.37730
       3     C     3.02920  3.02920  0.00000 -0.05840
       4     H     0.43123  0.43123  0.00000  0.13755
       5     C     3.08462  3.08462  0.00000 -0.16923
       6     H     0.45712  0.45712  0.00000  0.08576
       7     H     0.46759  0.46759  0.00000  0.06482
       8     C     3.10107  3.10107  0.00000 -0.20213
       9     H     0.44568  0.44568  0.00000  0.10863
      10     H     0.45881  0.45881  0.00000  0.08238
      11     C     3.08767  3.08767  0.00000 -0.17535
      12     H     0.45199  0.45199  0.00000  0.09603
      13     H     0.45467  0.45467  0.00000  0.09066
      14     C     3.15611  3.15611  0.00000 -0.31222
      15     H     0.45287  0.45287  0.00000  0.09426
      16     H     0.45235  0.45235  0.00000  0.09530
      17     H     0.45161  0.45161  0.00000  0.09677
      18     H     0.44578  0.44578  0.00000  0.10844
      19     H     0.45266  0.45266  0.00000  0.09467

   Total alpha = 25.00000, Total beta = 25.00000, Total charge =  0.00000

*** Psi4 exiting successfully. Buy a developer a beer!
