  ==> Input File <==

--------------------------------------------------------------------------
set {
	reference rhf
	basis cc-pvtz
}

set_num_threads( 4 )
memory 2 gb

molecule MOL {
0 1

O	 -2.440701	 -0.934798	 -0.415053
C	 -1.922978	 0.063265	 -0.045005
C	 -2.632749	 1.372204	 0.158357
O	 -0.637375	 0.157174	 0.243149
H	 -2.187724	 2.129143	 -0.474664
H	 -3.677681	 1.257276	 -0.079438
H	 -2.516788	 1.693160	 1.185542
C	 0.162530	 -1.009518	 0.097799
C	 1.587210	 -0.664190	 0.477086
H	 0.096803	 -1.356267	 -0.924704
H	 -0.233803	 -1.785900	 0.736810
C	 2.256770	 0.342732	 -0.454344
H	 2.154716	 -1.590834	 0.479041
H	 1.598751	 -0.289614	 1.496104
C	 3.077888	 1.384376	 0.298224
H	 2.899325	 -0.189022	 -1.151092
H	 1.500068	 0.839438	 -1.050607
H	 3.544785	 2.083056	 -0.386056
H	 3.864488	 0.918316	 0.882553
H	 2.455612	 1.955122	 0.979428

	symmetry c1
}
set optking {
	frozen_dihedral = ("
		16 12 9 8
	")
}

ee = optimize('scf')
oeprop('DIPOLE', 'QUADRUPOLE', 'MULLIKEN_CHARGES')
f=open( 'psi4out.xyz', 'w' )
f.write( "20  " )
f.write( str(ee) + "\n" )
f.write( MOL.save_string_xyz() )
f.close()
--------------------------------------------------------------------------

    Molecular point group: c1
  Charge       = 0
  Multiplicity = 1
  Basis Set: CC-PVTZ
  Basis Set:
  @DF-RHF Final Energy:  -384.08323692009327
    Total Energy =                       -384.0832369200928724
    Molecular point group: c1
  Basis Set: CC-PVTZ
  Basis Set:
  Basis Set: CC-PVTZ
  Basis Set:
  @DF-RHF Final Energy:  -384.08347876747752
    Total Energy =                       -384.0834787674780273
  Basis Set: CC-PVTZ
  Basis Set:
  Basis Set: CC-PVTZ
  Basis Set:
  @DF-RHF Final Energy:  -384.08339900961045
    Total Energy =                       -384.0833990096101616
  Basis Set: CC-PVTZ
  Basis Set:
  Basis Set: CC-PVTZ
  Basis Set:
  @DF-RHF Final Energy:  -384.08354446113856
    Total Energy =                       -384.0835444611386720
  Basis Set: CC-PVTZ
  Basis Set:
  Basis Set: CC-PVTZ
  Basis Set:
  @DF-RHF Final Energy:  -384.08354421284866
    Total Energy =                       -384.0835442128485511
  Basis Set: CC-PVTZ
  Basis Set:
  Charge       = 0
  Multiplicity = 1
  Basis Set: CC-PVTZ
  Basis Set:

    Orbital Energies (a.u.)
    -----------------------

    Doubly Occupied:

       1A    -20.594804     2A    -20.532979     3A    -11.367021
       4A    -11.280350     5A    -11.231965     6A    -11.223232
       7A    -11.219005     8A    -11.210750     9A     -1.471439
      10A     -1.365643    11A     -1.085269    12A     -1.028851
      13A     -0.982228    14A     -0.881040    15A     -0.810929
      16A     -0.778552    17A     -0.693347    18A     -0.686653
      19A     -0.670145    20A     -0.627216    21A     -0.605140
      22A     -0.594655    23A     -0.575491    24A     -0.553148
      25A     -0.538354    26A     -0.536283    27A     -0.514758
      28A     -0.481736    29A     -0.474801    30A     -0.471671
      31A     -0.452078    32A     -0.442165

  @DF-RHF Final Energy:  -384.08354640082428

   => Energetics <=

    Nuclear Repulsion Energy =            387.9261431713458705
    One-Electron Energy =               -1292.0559912838925811
    Two-Electron Energy =                 520.0463017117224354
    DFT Exchange-Correlation Energy =       0.0000000000000000
    Empirical Dispersion Energy =           0.0000000000000000
    PCM Polarization Energy =               0.0000000000000000
    EFP Energy =                            0.0000000000000000
    Total Energy =                       -384.0835464008242752
    Molecular point group: c1
  Basis Set: CC-PVTZ
  Basis Set:

  -Total Gradient:
     Atom            X                  Y                   Z
    ------   -----------------  -----------------  -----------------
       1       -0.000006628241    -0.000001737181     0.000000153701
       2        0.000005406671    -0.000001290600     0.000004621055
       3        0.000001916001     0.000001084788    -0.000004152485
       4        0.000020984061    -0.000012370604    -0.000003977442
       5       -0.000000070058     0.000000794588     0.000001302251
       6        0.000001098071    -0.000001295171    -0.000000193950
       7       -0.000000108168    -0.000000429692     0.000000842492
       8       -0.000841566696     0.001835792844     0.001374646010
       9        0.001731982503    -0.002498106351    -0.001461166510
      10        0.000005513869     0.000002650171     0.000009858534
      11       -0.000006010446    -0.000010270854     0.000004803594
      12       -0.003413012221     0.000387599723    -0.002025285749
      13       -0.000005228468     0.000003798325    -0.000007679103
      14        0.000003092355     0.000004038828     0.000003973973
      15       -0.000003415226    -0.000009887365    -0.000017987516
      16        0.002506355746     0.000299326554     0.002119020015
      17       -0.000006058295    -0.000003449574     0.000005451586
      18        0.000008748096     0.000007957033    -0.000001359418
      19       -0.000002856345     0.000000587835     0.000002474429
      20       -0.000000143215    -0.000004793295    -0.000005345468

  **** Optimization is complete! (in 6 steps) ****
    Final optimized geometry and variables:
    Molecular point group: c1

    Geometry (in Angstrom), charge = 0, multiplicity = 1:

    O           -2.358376672315    -1.026288347230    -0.484604132438
    C           -1.843699082505    -0.034848096553    -0.093536361529
    C           -2.553800013527     1.271700853112     0.121681888227
    O           -0.560830552863     0.052750323381     0.209397695069
    H           -2.101104760710     2.037221967088    -0.495322798229
    H           -3.596328242606     1.161804341445    -0.128719726741
    H           -2.448083640241     1.576984508740     1.154669400823
    C            0.239338897370    -1.112435875201     0.055730459025
    C            1.661323960374    -0.758097585995     0.438123090039
    H            0.171410996649    -1.453801027775    -0.968579618909
    H           -0.154086704064    -1.892912266603     0.691618085050
    C            2.332992434467     0.258630323413    -0.501333567616
    H            2.236419150093    -1.676977929568     0.473060707069
    H            1.642730243092    -0.368780234078     1.450709223217
    C            3.174514476797     1.290539700125     0.245039505662
    H            2.980343216880    -0.266740145815    -1.195680075175
    H            1.582111921732     0.772057028346    -1.088939554013
    H            3.664941132659     1.968497794469    -0.444093043672
    H            3.944477960844     0.810897832395     0.840730265993
    H            2.559565879585     1.881928567077     0.914568928203

  Mulliken Charges: (a.u.)
   Center  Symbol    Alpha    Beta     Spin     Total
       1     O     4.19703  4.19703  0.00000 -0.39406
       2     C     2.80860  2.80860  0.00000  0.38280
       3     C     3.13811  3.13811  0.00000 -0.27623
       4     O     4.15333  4.15333  0.00000 -0.30665
       5     H     0.44620  0.44620  0.00000  0.10761
       6     H     0.43787  0.43787  0.00000  0.12426
       7     H     0.44568  0.44568  0.00000  0.10864
       8     C     2.99444  2.99444  0.00000  0.01112
       9     C     3.08770  3.08770  0.00000 -0.17540
      10     H     0.45038  0.45038  0.00000  0.09924
      11     H     0.44435  0.44435  0.00000  0.11131
      12     C     3.08543  3.08543  0.00000 -0.17087
      13     H     0.44779  0.44779  0.00000  0.10441
      14     H     0.45362  0.45362  0.00000  0.09277
      15     C     3.14859  3.14859  0.00000 -0.29719
      16     H     0.45151  0.45151  0.00000  0.09699
      17     H     0.45167  0.45167  0.00000  0.09667
      18     H     0.44917  0.44917  0.00000  0.10166
      19     H     0.45484  0.45484  0.00000  0.09033
      20     H     0.45370  0.45370  0.00000  0.09260

   Total alpha = 32.00000, Total beta = 32.00000, Total charge =  0.00000
