  ==> Input File <==

--------------------------------------------------------------------------
set {
	reference rhf
	basis 6-31G*
}

set_num_threads( 4 )
memory 2 gb

molecule MOL {
0 1

O	 -0.988096	 -1.408613	 0.050699
C	 -0.676749	 -0.249230	 -0.009274
C	 -1.746085	 0.827156	 -0.009539
N	 0.623947	 0.147590	 -0.102813
H	 -1.701500	 1.431508	 -0.908902
H	 -2.703425	 0.330732	 0.036390
H	 -1.647323	 1.487769	 0.845106
C	 1.473641	 -0.484952	 -1.092655
C	 1.318268	 0.895739	 0.922095
H	 2.138967	 0.255155	 -1.523470
H	 0.863036	 -0.911525	 -1.869274
H	 2.078762	 -1.272422	 -0.648650
H	 2.060664	 1.531817	 0.454877
H	 0.644916	 1.531835	 1.474284
H	 1.831357	 0.242032	 1.625103

	symmetry c1
}
set optking {
	frozen_dihedral = ("
		8 4 2 3
	")
}

ee = optimize('scf')
oeprop('DIPOLE', 'QUADRUPOLE', 'MULLIKEN_CHARGES')
f=open( 'psi4out.xyz', 'w' )
f.write( "15  " )
f.write( str(ee) + "\n" )
f.write( MOL.save_string_xyz() )
f.close()
--------------------------------------------------------------------------

    Molecular point group: c1
  Charge       = 0
  Multiplicity = 1
  Basis Set: 6-31G*
  Basis Set:
  @DF-RHF Final Energy:  -286.00623907012471
    Total Energy =                       -286.0062390701246500
    Molecular point group: c1
  Basis Set: 6-31G*
  Basis Set:
  Basis Set: 6-31G*
  Basis Set:
  @DF-RHF Final Energy:  -286.00984922490920
    Total Energy =                       -286.0098492249094306
  Basis Set: 6-31G*
  Basis Set:
  Basis Set: 6-31G*
  Basis Set:
  @DF-RHF Final Energy:  -286.01109224235302
    Total Energy =                       -286.0110922423530724
  Basis Set: 6-31G*
  Basis Set:
  Basis Set: 6-31G*
  Basis Set:
  @DF-RHF Final Energy:  -286.01216756942836
    Total Energy =                       -286.0121675694281862
  Basis Set: 6-31G*
  Basis Set:
  @DF-RHF Final Energy:  -286.01403016641655
    Total Energy =                       -286.0140301664167168
  @DF-RHF Final Energy:  -286.01539930670765
    Total Energy =                       -286.0153993067078204
  @DF-RHF Final Energy:  -286.01707714559541
    Total Energy =                       -286.0170771455954082
  @DF-RHF Final Energy:  -286.01852873441771
    Total Energy =                       -286.0185287344176004
  @DF-RHF Final Energy:  -286.01919633874820
    Total Energy =                       -286.0191963387482019
  @DF-RHF Final Energy:  -286.01951405149850
    Total Energy =                       -286.0195140514985610
  @DF-RHF Final Energy:  -286.01966852658427
    Total Energy =                       -286.0196685265841552
  Basis Set: 6-31G*
  Basis Set:
  @DF-RHF Final Energy:  -286.01972519008768
    Total Energy =                       -286.0197251900877973
  Basis Set: 6-31G*
  Basis Set:
  Basis Set: 6-31G*
  Basis Set:
  @DF-RHF Final Energy:  -286.01973292167668
    Total Energy =                       -286.0197329216765638
  Basis Set: 6-31G*
  Basis Set:
  Basis Set: 6-31G*
  Basis Set:
  @DF-RHF Final Energy:  -286.01973935829187
    Total Energy =                       -286.0197393582917584
  Basis Set: 6-31G*
  Basis Set:
  Charge       = 0
  Multiplicity = 1
  Basis Set: 6-31G*
  Basis Set:

    Orbital Energies (a.u.)
    -----------------------

    Doubly Occupied:

       1A    -20.526648     2A    -15.577204     3A    -11.345435
       4A    -11.261856     5A    -11.252104     6A    -11.231511
       7A     -1.393045     8A     -1.241732     9A     -1.013358
      10A     -0.968937    11A     -0.915915    12A     -0.737650
      13A     -0.682013    14A     -0.659141    15A     -0.649734
      16A     -0.592026    17A     -0.578528    18A     -0.571523
      19A     -0.561197    20A     -0.551252    21A     -0.528058
      22A     -0.500410    23A     -0.417078    24A     -0.369404

  @DF-RHF Final Energy:  -286.01973948163482

   => Energetics <=

    Nuclear Repulsion Energy =            252.6789391722925018
    One-Electron Energy =                -889.1458435373899647
    Two-Electron Energy =                 350.4471648834626194
    DFT Exchange-Correlation Energy =       0.0000000000000000
    Empirical Dispersion Energy =           0.0000000000000000
    PCM Polarization Energy =               0.0000000000000000
    EFP Energy =                            0.0000000000000000
    Total Energy =                       -286.0197394816348151
    Molecular point group: c1
  Basis Set: 6-31G*
  Basis Set:

  -Total Gradient:
     Atom            X                  Y                   Z
    ------   -----------------  -----------------  -----------------
       1        0.000015077680     0.000007966217    -0.000060656275
       2       -0.002095595066    -0.000269994714     0.010856524844
       3        0.001414061266     0.002607765111    -0.008094588389
       4        0.000549059532    -0.010412856028     0.000638131580
       5        0.000010694672    -0.000006526745    -0.000005049916
       6       -0.000004445213     0.000004222575     0.000002559469
       7        0.000005666741     0.000006398398    -0.000003357526
       8        0.000164764382     0.008062179193    -0.003369195695
       9       -0.000030600215     0.000015649218     0.000038728072
      10       -0.000009314758    -0.000001742504    -0.000002092183
      11        0.000002059151    -0.000014583981    -0.000008824291
      12       -0.000008901529     0.000002826621     0.000001913560
      13       -0.000008474164    -0.000006147572    -0.000003444798
      14       -0.000003570060     0.000004019965     0.000006359063
      15       -0.000000482417     0.000000824250     0.000002992485

  **** Optimization is complete! (in 15 steps) ****
    Final optimized geometry and variables:
    Molecular point group: c1

    Geometry (in Angstrom), charge = 0, multiplicity = 1:

    O           -1.177044711087    -1.171663600418    -0.543886578154
    C           -0.703025333837    -0.205683415888    -0.020884752237
    C           -1.556721457559     1.024151965932     0.226082629287
    N            0.654935693488    -0.130808003324     0.243834588011
    H           -1.157328978614     1.863242717944    -0.334142647248
    H           -2.557705889561     0.804963193508    -0.113521019066
    H           -1.594750154845     1.313705292051     1.270018502329
    C            1.535132292385    -0.592445706782    -0.818852463752
    C            1.190752194518     1.006834527613     0.964707025118
    H            1.712265237619     0.193164198062    -1.552757908821
    H            1.093532392580    -1.444667297318    -1.308287530337
    H            2.488867592912    -0.888081330610    -0.398324134283
    H            1.266297326701     1.906568399284     0.353650497179
    H            0.593556908710     1.228996900566     1.837383460811
    H            2.185691677765     0.755330230118     1.310011046940

  Mulliken Charges: (a.u.)
   Center  Symbol    Alpha    Beta     Spin     Total
       1     O     4.28759  4.28759  0.00000 -0.57518
       2     C     2.63373  2.63373  0.00000  0.73254
       3     C     3.29626  3.29626  0.00000 -0.59253
       4     N     3.81244  3.81244  0.00000 -0.62488
       5     H     0.40707  0.40707  0.00000  0.18585
       6     H     0.39097  0.39097  0.00000  0.21807
       7     H     0.40653  0.40653  0.00000  0.18694
       8     C     3.15201  3.15201  0.00000 -0.30401
       9     C     3.14724  3.14724  0.00000 -0.29447
      10     H     0.42446  0.42446  0.00000  0.15107
      11     H     0.38738  0.38738  0.00000  0.22525
      12     H     0.41393  0.41393  0.00000  0.17214
      13     H     0.42360  0.42360  0.00000  0.15281
      14     H     0.40958  0.40958  0.00000  0.18084
      15     H     0.40722  0.40722  0.00000  0.18556

   Total alpha = 24.00000, Total beta = 24.00000, Total charge =  0.00000
