  ==> Input File <==

--------------------------------------------------------------------------
set {
	reference rhf
	basis 6-31G*
}

set_num_threads( 4 )
memory 2 gb

molecule MOL {
0 1

H	 -0.917138	 2.400915	 0.397436
C	 -0.791026	 1.349759	 0.228405
C	 -1.912681	 0.481890	 0.013423
C	 0.430418	 0.800945	 0.211278
H	 -2.906809	 0.892613	 0.021333
C	 -1.729951	 -0.829689	 -0.195942
H	 1.320731	 1.381064	 0.363624
N	 0.640212	 -0.532897	 -0.000111
H	 -2.544022	 -1.508409	 -0.360205
C	 -0.400707	 -1.426635	 -0.214577
C	 2.010177	 -1.032049	 0.000042
O	 -0.194345	 -2.600288	 -0.399402
H	 2.187698	 -1.635381	 -0.882279
H	 2.677579	 -0.189247	 -0.001871
H	 2.188882	 -1.632203	 0.884288

	symmetry c1
}
set optking {
	frozen_dihedral = ("
		10 8 11 13
	")
}

ee = optimize('scf')
oeprop('DIPOLE', 'QUADRUPOLE', 'MULLIKEN_CHARGES')
f=open( 'psi4out.xyz', 'w' )
f.write( "15  " )
f.write( str(ee) + "\n" )
f.write( MOL.save_string_xyz() )
f.close()
--------------------------------------------------------------------------

    Molecular point group: c1
  Charge       = 0
  Multiplicity = 1
  Basis Set: 6-31G*
  Basis Set:
  @DF-RHF Final Energy:  -360.59601014128282
    Total Energy =                       -360.5960101412827044
    Molecular point group: c1
  Basis Set: 6-31G*
  Basis Set:
  Basis Set: 6-31G*
  Basis Set:
  @DF-RHF Final Energy:  -360.59664255738545
    Total Energy =                       -360.5966425573853940
  Basis Set: 6-31G*
  Basis Set:
  Basis Set: 6-31G*
  Basis Set:
  @DF-RHF Final Energy:  -360.59671221736619
    Total Energy =                       -360.5967122173660755
  Basis Set: 6-31G*
  Basis Set:
  Basis Set: 6-31G*
  Basis Set:
  @DF-RHF Final Energy:  -360.59670873251224
    Total Energy =                       -360.5967087325120701
  Basis Set: 6-31G*
  Basis Set:
  Charge       = 0
  Multiplicity = 1
  Basis Set: 6-31G*
  Basis Set:

    Orbital Energies (a.u.)
    -----------------------

    Doubly Occupied:

       1A    -20.508890     2A    -15.622541     3A    -11.341503
       4A    -11.298163     5A    -11.266866     6A    -11.260424
       7A    -11.232732     8A    -11.228769     9A     -1.385240
      10A     -1.281140    11A     -1.114907    12A     -1.026343
      13A     -0.970331    14A     -0.873011    15A     -0.835821
      16A     -0.716080    17A     -0.697467    18A     -0.661414
      19A     -0.648546    20A     -0.622971    21A     -0.606502
      22A     -0.573767    23A     -0.548383    24A     -0.547093
      25A     -0.528050    26A     -0.478021    27A     -0.413916
      28A     -0.405849    29A     -0.304360

  @DF-RHF Final Energy:  -360.59671568172013

   => Energetics <=

    Nuclear Repulsion Energy =            358.0142058702355712
    One-Electron Energy =               -1199.2236432540532860
    Two-Electron Energy =                 480.6127217020975877
    DFT Exchange-Correlation Energy =       0.0000000000000000
    Empirical Dispersion Energy =           0.0000000000000000
    PCM Polarization Energy =               0.0000000000000000
    EFP Energy =                            0.0000000000000000
    Total Energy =                       -360.5967156817200703
    Molecular point group: c1
  Basis Set: 6-31G*
  Basis Set:

  -Total Gradient:
     Atom            X                  Y                   Z
    ------   -----------------  -----------------  -----------------
       1       -0.000030319442     0.000016049245     0.000029146477
       2        0.000031287235    -0.000078775332     0.000005947518
       3       -0.000036582250    -0.000014866110    -0.000015267749
       4       -0.000132514450    -0.000019436403    -0.000130945448
       5        0.000015998257     0.000044941295     0.000014523955
       6       -0.000103612617     0.000011436658    -0.000005914053
       7        0.000072024324    -0.000071710338     0.000019104591
       8       -0.000094817368    -0.000278999620     0.000729457787
       9        0.000019567776     0.000013407895    -0.000007734014
      10        0.000057716571     0.000271395471    -0.000378335222
      11        0.000243203543     0.000662581834    -0.000550103563
      12        0.000058032979    -0.000042361863    -0.000016445296
      13       -0.000146405708    -0.000496160205     0.000251086976
      14       -0.000007884788    -0.000005734307     0.000029032264
      15        0.000054305940    -0.000011768221     0.000026445777

  **** Optimization is complete! (in 5 steps) ****
    Final optimized geometry and variables:
    Molecular point group: c1

    Geometry (in Angstrom), charge = 0, multiplicity = 1:

    H           -0.756927044373     2.922422022860     0.448334864571
    C           -0.618955735665     1.873017826771     0.278025880252
    C           -1.730584345597     0.995185415943     0.059250015998
    C            0.610913764205     1.339639150697     0.260751417927
    H           -2.728010569968     1.397844615147     0.065207412053
    C           -1.536586670504    -0.315661342730    -0.151558867025
    H            1.492231157422     1.931452334935     0.414544694000
    N            0.830784138393     0.009994780090     0.046148010917
    H           -2.343813628462    -1.002075525644    -0.318179872000
    C           -0.201009535133    -0.893261648808    -0.161310270164
    C            2.183284519629    -0.532820999434     0.041808186888
    O            0.039331183475    -2.062912048804    -0.331704678857
    H            2.327839196768    -1.142795351876    -0.836398166329
    H            2.891496863531     0.283204686945     0.042557608107
    H            2.344555086325    -1.152423719850     0.913998317330

  Mulliken Charges: (a.u.)
   Center  Symbol    Alpha    Beta     Spin     Total
       1     H     0.39310  0.39310  0.00000  0.21380
       2     C     3.16252  3.16252  0.00000 -0.32504
       3     C     3.05815  3.05815  0.00000 -0.11630
       4     C     2.92158  2.92158  0.00000  0.15684
       5     H     0.39091  0.39091  0.00000  0.21818
       6     C     3.16981  3.16981  0.00000 -0.33961
       7     H     0.38741  0.38741  0.00000  0.22518
       8     N     3.86296  3.86296  0.00000 -0.72591
       9     H     0.38648  0.38648  0.00000  0.22705
      10     C     2.59712  2.59712  0.00000  0.80575
      11     C     3.13962  3.13962  0.00000 -0.27925
      12     O     4.32163  4.32163  0.00000 -0.64325
      13     H     0.39238  0.39238  0.00000  0.21523
      14     H     0.41577  0.41577  0.00000  0.16846
      15     H     0.40057  0.40057  0.00000  0.19887

   Total alpha = 29.00000, Total beta = 29.00000, Total charge = -0.00000
