  ==> Input File <==

--------------------------------------------------------------------------
set {
	reference rhf
	basis 6-31G*
}

set_num_threads( 4 )
memory 2 gb

molecule MOL {
0 1

H	 1.244666	 -2.264678	 0.354322
C	 0.280856	 -1.787354	 0.427037
O	 0.464886	 -0.454746	 -0.000158
H	 -0.059838	 -1.823286	 1.454977
H	 -0.424925	 -2.306752	 -0.210271
C	 -0.590998	 0.343045	 0.000118
O	 -1.699443	 -0.054298	 0.000227
H	 -0.340329	 1.404368	 0.000207

	symmetry c1
}
set optking {
	frozen_dihedral = ("
		2 3 6 7
	")
}

ee = optimize('scf')
oeprop('DIPOLE', 'QUADRUPOLE', 'MULLIKEN_CHARGES')
f=open( 'psi4out.xyz', 'w' )
f.write( "8  " )
f.write( str(ee) + "\n" )
f.write( MOL.save_string_xyz() )
f.close()
--------------------------------------------------------------------------

    Molecular point group: c1
  Charge       = 0
  Multiplicity = 1
  Basis Set: 6-31G*
  Basis Set:
  @DF-RHF Final Energy:  -227.78532272386337
    Total Energy =                       -227.7853227238634020
    Molecular point group: c1
  Basis Set: 6-31G*
  Basis Set:
  Basis Set: 6-31G*
  Basis Set:
  @DF-RHF Final Energy:  -227.78239868710685
    Total Energy =                       -227.7823986871068769
  Basis Set: 6-31G*
  Basis Set:
  Basis Set: 6-31G*
  Basis Set:
  @DF-RHF Final Energy:  -227.78536780345172
    Total Energy =                       -227.7853678034517770
  Basis Set: 6-31G*
  Basis Set:
  Basis Set: 6-31G*
  Basis Set:
  @DF-RHF Final Energy:  -227.78664093968084
    Total Energy =                       -227.7866409396808649
  Basis Set: 6-31G*
  Basis Set:
  Basis Set: 6-31G*
  Basis Set:
  @DF-RHF Final Energy:  -227.78664896985987
    Total Energy =                       -227.7866489698596979
  Basis Set: 6-31G*
  Basis Set:
  Charge       = 0
  Multiplicity = 1
  Basis Set: 6-31G*
  Basis Set:

    Orbital Energies (a.u.)
    -----------------------

    Doubly Occupied:

       1A    -20.614983     2A    -20.560909     3A    -11.380802
       4A    -11.290023     5A     -1.478224     6A     -1.376882
       7A     -0.997205     8A     -0.820121     9A     -0.744117
      10A     -0.681418    11A     -0.678818    12A     -0.602980
      13A     -0.557959    14A     -0.532205    15A     -0.465755
      16A     -0.457802

  @DF-RHF Final Energy:  -227.78665002297362

   => Energetics <=

    Nuclear Repulsion Energy =            123.5695454389775705
    One-Electron Energy =                -556.2319869610475962
    Two-Electron Energy =                 204.8757914990963513
    DFT Exchange-Correlation Energy =       0.0000000000000000
    Empirical Dispersion Energy =           0.0000000000000000
    PCM Polarization Energy =               0.0000000000000000
    EFP Energy =                            0.0000000000000000
    Total Energy =                       -227.7866500229736744
    Molecular point group: c1
  Basis Set: 6-31G*
  Basis Set:

  -Total Gradient:
     Atom            X                  Y                   Z
    ------   -----------------  -----------------  -----------------
       1       -0.000000092119    -0.000022099818     0.000018194281
       2        0.001422595962     0.001548568859     0.005071297098
       3       -0.002266844660    -0.002270185570    -0.011429338589
       4       -0.000001912495    -0.000002743260     0.000008824463
       5        0.000002691298     0.000000188931     0.000018274246
       6        0.001119649406     0.000755962500     0.013583251660
       7       -0.000301640971     0.000025973928    -0.007272860039
       8        0.000025553579    -0.000035665570     0.000002356879

  **** Optimization is complete! (in 6 steps) ****
    Final optimized geometry and variables:
    Molecular point group: c1

    Geometry (in Angstrom), charge = 0, multiplicity = 1:

    H            1.661925887161    -1.733235313835     0.265530008542
    C            0.679404229377    -1.289528842323     0.283010934615
    O            0.849704207705     0.049933311631    -0.154849655088
    H            0.279129224953    -1.305564588005     1.286964208959
    H            0.013961427107    -1.826026798992    -0.377213015832
    C           -0.207279200176     0.836915541733    -0.100238883363
    O           -1.333118966800     0.477968717544    -0.045342164562
    H            0.095614653092     1.875827438861    -0.174327250617

  Mulliken Charges: (a.u.)
   Center  Symbol    Alpha    Beta     Spin     Total
       1     H     0.40552  0.40552  0.00000  0.18896
       2     C     3.09556  3.09556  0.00000 -0.19112
       3     O     4.28583  4.28583  0.00000 -0.57167
       4     H     0.40977  0.40977  0.00000  0.18045
       5     H     0.40457  0.40457  0.00000  0.19086
       6     C     2.72940  2.72940  0.00000  0.54120
       7     O     4.25871  4.25871  0.00000 -0.51742
       8     H     0.41063  0.41063  0.00000  0.17873

   Total alpha = 16.00000, Total beta = 16.00000, Total charge = -0.00000
