                              Psi4 1.0.54 Driver

  ==> Input File <==

--------------------------------------------------------------------------
set {
	reference rhf
	basis cc-pvtz
}

set_num_threads( 4 )
memory 2 gb

molecule MOL {
0 1

H	 -1.201923	 -1.005868	 0.618362
N	 -1.173824	 -0.310545	 -0.096857
C	 -0.022588	 0.563366	 0.065815
H	 -1.136330	 -0.789405	 -0.972585
C	 1.270420	 -0.230572	 -0.014245
H	 -0.045354	 1.293678	 -0.735129
H	 -0.043155	 1.123061	 1.001180
H	 1.336273	 -0.754933	 -0.959364
H	 2.130728	 0.422015	 0.082222
H	 1.323344	 -0.967006	 0.781773

	symmetry c1
}
set optking {
	frozen_dihedral = ("
		1 2 3 6
	")
}

ee,wfn = optimize('scf', return_wfn=True)
oeprop( wfn, 'DIPOLE', 'QUADRUPOLE', 'MULLIKEN_CHARGES')
f=open( 'psi4out.xyz', 'w' )
f.write( "10  " )
f.write( str(ee) + "\n" )
f.write( MOL.save_string_xyz() )
f.close()
--------------------------------------------------------------------------

    Molecular point group: c1
  Charge       = 0
  Multiplicity = 1
  Basis Set: CC-PVTZ
  Basis Set:
  @DF-RHF Final Energy:  -134.30262431364719
    Total Energy =                       -134.3026243136472431
    Molecular point group: c1
  Basis Set: CC-PVTZ
  Basis Set:
  Basis Set: CC-PVTZ
  Basis Set:
  @DF-RHF Final Energy:  -134.30432753867279
    Total Energy =                       -134.3043275386728226
  Basis Set: CC-PVTZ
  Basis Set:
  Basis Set: CC-PVTZ
  Basis Set:
  @DF-RHF Final Energy:  -134.30460287027472
    Total Energy =                       -134.3046028702747208
  Basis Set: CC-PVTZ
  Basis Set:
  Basis Set: CC-PVTZ
  Basis Set:
  @DF-RHF Final Energy:  -134.30460550367320
    Total Energy =                       -134.3046055036732298
  Basis Set: CC-PVTZ
  Basis Set:
  Charge       = 0
  Multiplicity = 1
  Basis Set: CC-PVTZ
  Basis Set:

    Orbital Energies (a.u.)
    -----------------------

    Doubly Occupied:

       1A    -15.527324     2A    -11.241311     3A    -11.208458
       4A     -1.178808     5A     -0.988377     6A     -0.832402
       7A     -0.675577     8A     -0.599891     9A     -0.571801
      10A     -0.564058    11A     -0.507290    12A     -0.483340
      13A     -0.384356

  @DF-RHF Final Energy:  -134.30460569478578

   => Energetics <=

    Nuclear Repulsion Energy =             83.3336108364254216
    One-Electron Energy =                -345.7504476201512489
    Two-Electron Energy =                 128.1122310889400069
    DFT Exchange-Correlation Energy =       0.0000000000000000
    Empirical Dispersion Energy =           0.0000000000000000
    PCM Polarization Energy =               0.0000000000000000
    EFP Energy =                            0.0000000000000000
    Total Energy =                       -134.3046056947858347
    Molecular point group: c1
  Basis Set: CC-PVTZ
  Basis Set:

  -Total Gradient:
     Atom            X                  Y                   Z
    ------   -----------------  -----------------  -----------------
       1        0.000179832915    -0.000224130155    -0.000198633019
       2       -0.000198003149     0.000229437987     0.000223095070
       3       -0.000119250668     0.000187911873     0.000152809606
       4        0.000010773084    -0.000000001017     0.000000358271
       5       -0.000030760691    -0.000015852117     0.000010969035
       6        0.000158390176    -0.000179926986    -0.000198929211
       7       -0.000010394357    -0.000003793878     0.000010534726
       8       -0.000003396457     0.000004322056     0.000009547188
       9        0.000001915811     0.000006223141     0.000001281035
      10        0.000010893338    -0.000004190903    -0.000011032701

  **** Optimization is complete! (in 5 steps) ****
    Final optimized geometry and variables:
    Molecular point group: c1

    Geometry (in Angstrom), charge = 0, multiplicity = 1:

    H           -1.227410535855    -1.030236855853     0.606901000999
    N           -1.213145620762    -0.324000227142    -0.099246828460
    C           -0.065107746157     0.551567017008     0.063838007097
    H           -1.181511424207    -0.792660977023    -0.980603745773
    C            1.293924143830    -0.140558254062     0.049136153773
    H           -0.100513727115     1.294361905155    -0.725176995083
    H           -0.186914384925     1.091017065510     0.996455797024
    H            1.454791680107    -0.660882584440    -0.889741345195
    H            2.098836040348     0.576025980039     0.176043163158
    H            1.367286202218    -0.869662818353     0.849928343342

  Mulliken Charges: (a.u.)
   Center  Symbol    Alpha    Beta     Spin     Total
       1     H     0.43211  0.43211  0.00000  0.13579
       2     N     3.68640  3.68640  0.00000 -0.37280
       3     C     3.02882  3.02882  0.00000 -0.05763
       4     H     0.43200  0.43200  0.00000  0.13601
       5     C     3.13770  3.13770  0.00000 -0.27541
       6     H     0.45412  0.45412  0.00000  0.09176
       7     H     0.45399  0.45399  0.00000  0.09202
       8     H     0.45949  0.45949  0.00000  0.08102
       9     H     0.45584  0.45584  0.00000  0.08832
      10     H     0.45954  0.45954  0.00000  0.08093

   Total alpha = 13.00000, Total beta = 13.00000, Total charge = -0.00000

*** Psi4 exiting successfully. Buy a developer a beer!
