  ==> Input File <==

--------------------------------------------------------------------------
set {
	reference rhf
	basis 6-31G*
}

set_num_threads( 4 )
memory 2 gb

molecule MOL {
0 1

H	 -2.284017	 0.838993	 -0.852774
C	 -1.554391	 1.143036	 -0.109440
N	 -0.528168	 0.128977	 -0.000000
H	 -2.070761	 1.242754	 0.838429
H	 -1.175126	 2.126760	 -0.398769
C	 0.248044	 -0.037491	 -1.209632
H	 0.079704	 0.344137	 0.765001
H	 0.998722	 0.743888	 -1.266824
H	 -0.398417	 0.061950	 -2.074060
H	 0.763621	 -0.999315	 -1.275517

	symmetry c1
}
set optking {
	frozen_dihedral = ("
		2 3 6 8
	")
}

ee = optimize('scf')
oeprop('DIPOLE', 'QUADRUPOLE', 'MULLIKEN_CHARGES')
f=open( 'psi4out.xyz', 'w' )
f.write( "10  " )
f.write( str(ee) + "\n" )
f.write( MOL.save_string_xyz() )
f.close()
--------------------------------------------------------------------------

    Molecular point group: c1
  Charge       = 0
  Multiplicity = 1
  Basis Set: 6-31G*
  Basis Set:
  @DF-RHF Final Energy:  -134.23560463559113
    Total Energy =                       -134.2356046355910735
    Molecular point group: c1
  Basis Set: 6-31G*
  Basis Set:
  Basis Set: 6-31G*
  Basis Set:
  @DF-RHF Final Energy:  -134.23689258508705
    Total Energy =                       -134.2368925850870482
  Basis Set: 6-31G*
  Basis Set:
  Basis Set: 6-31G*
  Basis Set:
  @DF-RHF Final Energy:  -134.23705311818878
    Total Energy =                       -134.2370531181887827
  Basis Set: 6-31G*
  Basis Set:
  Basis Set: 6-31G*
  Basis Set:
  @DF-RHF Final Energy:  -134.23705784743879
    Total Energy =                       -134.2370578474387912
  Basis Set: 6-31G*
  Basis Set:
  Charge       = 0
  Multiplicity = 1
  Basis Set: 6-31G*
  Basis Set:

    Orbital Energies (a.u.)
    -----------------------

    Doubly Occupied:

       1A    -15.536102     2A    -11.236006     3A    -11.235754
       4A     -1.197067     5A     -0.947870     6A     -0.854410
       7A     -0.662218     8A     -0.608131     9A     -0.590210
      10A     -0.541729    11A     -0.513377    12A     -0.506911
      13A     -0.356792

  @DF-RHF Final Energy:  -134.23705848932866

   => Energetics <=

    Nuclear Repulsion Energy =             84.5373147369468256
    One-Electron Energy =                -347.9755909004778687
    Two-Electron Energy =                 129.2012176742024678
    DFT Exchange-Correlation Energy =       0.0000000000000000
    Empirical Dispersion Energy =           0.0000000000000000
    PCM Polarization Energy =               0.0000000000000000
    EFP Energy =                            0.0000000000000000
    Total Energy =                       -134.2370584893285752
    Molecular point group: c1
  Basis Set: 6-31G*
  Basis Set:

  -Total Gradient:
     Atom            X                  Y                   Z
    ------   -----------------  -----------------  -----------------
       1        0.000021857528    -0.000020005970     0.000001503444
       2       -0.001930178818    -0.001985852004    -0.000987689669
       3        0.003433769077     0.002179499366     0.002016969820
       4        0.000013325589    -0.000015960155    -0.000000648247
       5        0.000011461606    -0.000026733366     0.000005448272
       6       -0.004047483942     0.002178156600    -0.003031082585
       7       -0.000012319077     0.000014149948     0.000000516775
       8        0.002493189106    -0.002305320903     0.001951396069
       9        0.000005315786    -0.000001164135     0.000042182374
      10        0.000011063146    -0.000016769382     0.000001403750

  **** Optimization is complete! (in 5 steps) ****
    Final optimized geometry and variables:
    Molecular point group: c1

    Geometry (in Angstrom), charge = 0, multiplicity = 1:

    H           -1.684527509319     0.415016554020    -0.401956107954
    C           -0.958993672344     0.707702791807     0.349267241586
    N            0.074017304099    -0.300765347995     0.436415904068
    H           -1.477662849396     0.776450695838     1.298743043574
    H           -0.593211716181     1.704855655837     0.089291235114
    C            0.862561926901    -0.458286199576    -0.768122376424
    H            0.666982057117    -0.131559839492     1.223175331787
    H            1.644330894712     0.294736535997    -0.887832107624
    H            0.213980900985    -0.422205641756    -1.635340692419
    H            1.349882145671    -1.428115501382    -0.762559802476

  Mulliken Charges: (a.u.)
   Center  Symbol    Alpha    Beta     Spin     Total
       1     H     0.41810  0.41810  0.00000  0.16381
       2     C     3.14314  3.14314  0.00000 -0.28629
       3     N     3.84224  3.84224  0.00000 -0.68449
       4     H     0.41750  0.41750  0.00000  0.16499
       5     H     0.43517  0.43517  0.00000  0.12966
       6     C     3.14392  3.14392  0.00000 -0.28784
       7     H     0.33171  0.33171  0.00000  0.33659
       8     H     0.43292  0.43292  0.00000  0.13417
       9     H     0.41911  0.41911  0.00000  0.16178
      10     H     0.41619  0.41619  0.00000  0.16762

   Total alpha = 13.00000, Total beta = 13.00000, Total charge = -0.00000
