                              Psi4 1.0.54 Driver

  ==> Input File <==

--------------------------------------------------------------------------
set {
	reference rhf
	basis cc-pvtz
}

set_num_threads( 4 )
memory 2 gb

molecule MOL {
0 1

O	 0.623971	 1.347241	 -0.000777
C	 0.485107	 0.171416	 -0.000134
C	 1.606966	 -0.836201	 0.000174
O	 -0.695554	 -0.422406	 0.000602
C	 2.988788	 -0.202529	 -0.000115
H	 1.465110	 -1.474645	 -0.864821
H	 1.465209	 -1.474077	 0.865596
H	 3.131767	 0.419673	 -0.873407
H	 3.750876	 -0.972315	 0.000098
H	 3.131883	 0.420264	 0.872742
C	 -1.650404	 0.001890	 0.963162
C	 -2.904331	 -0.816297	 0.761358
H	 -1.839894	 1.057781	 0.830747
H	 -1.240012	 -0.138357	 1.953229
H	 -3.305481	 -0.668603	 -0.233447
H	 -3.656109	 -0.516924	 1.482077
H	 -2.702222	 -1.871538	 0.895486

	symmetry c1
}
set optking {
	frozen_dihedral = ("
		11 4 2 3
	")
}

ee,wfn = optimize('scf', return_wfn=True)
oeprop( wfn, 'DIPOLE', 'QUADRUPOLE', 'MULLIKEN_CHARGES')
f=open( 'psi4out.xyz', 'w' )
f.write( "17  " )
f.write( str(ee) + "\n" )
f.write( MOL.save_string_xyz() )
f.close()
--------------------------------------------------------------------------

    Molecular point group: c1
  Charge       = 0
  Multiplicity = 1
  Basis Set: CC-PVTZ
  Basis Set:
  @DF-RHF Final Energy:  -345.02962267694255
    Total Energy =                       -345.0296226769424948
    Molecular point group: c1
  Basis Set: CC-PVTZ
  Basis Set:
  Basis Set: CC-PVTZ
  Basis Set:
  @DF-RHF Final Energy:  -345.02800257757866
    Total Energy =                       -345.0280025775787180
  Basis Set: CC-PVTZ
  Basis Set:
  Basis Set: CC-PVTZ
  Basis Set:
  @DF-RHF Final Energy:  -345.03011970362280
    Total Energy =                       -345.0301197036226881
  Basis Set: CC-PVTZ
  Basis Set:
  Basis Set: CC-PVTZ
  Basis Set:
  @DF-RHF Final Energy:  -345.03036689197620
    Total Energy =                       -345.0303668919762572
  Basis Set: CC-PVTZ
  Basis Set:
  Basis Set: CC-PVTZ
  Basis Set:
  @DF-RHF Final Energy:  -345.03039847760948
    Total Energy =                       -345.0303984776093671
  Basis Set: CC-PVTZ
  Basis Set:
  Basis Set: CC-PVTZ
  Basis Set:
  @DF-RHF Final Energy:  -345.03040076507830
    Total Energy =                       -345.0304007650782410
  Basis Set: CC-PVTZ
  Basis Set:
  Charge       = 0
  Multiplicity = 1
  Basis Set: CC-PVTZ
  Basis Set:

    Orbital Energies (a.u.)
    -----------------------

    Doubly Occupied:

       1A    -20.582359     2A    -20.538705     3A    -11.365511
       4A    -11.286771     5A    -11.238032     6A    -11.221003
       7A    -11.215182     8A     -1.464106     9A     -1.366181
      10A     -1.068877    11A     -1.034025    12A     -0.909321
      13A     -0.854226    14A     -0.771896    15A     -0.701570
      16A     -0.684926    17A     -0.664993    18A     -0.632451
      19A     -0.596330    20A     -0.567368    21A     -0.558057
      22A     -0.527634    23A     -0.522840    24A     -0.518172
      25A     -0.503927    26A     -0.495668    27A     -0.454036
      28A     -0.436416

  @DF-RHF Final Energy:  -345.03040096515514

   => Energetics <=

    Nuclear Repulsion Energy =            314.8422615261275155
    One-Electron Energy =               -1094.1841591376528413
    Two-Electron Energy =                 434.3114966463699602
    DFT Exchange-Correlation Energy =       0.0000000000000000
    Empirical Dispersion Energy =           0.0000000000000000
    PCM Polarization Energy =               0.0000000000000000
    EFP Energy =                            0.0000000000000000
    Total Energy =                       -345.0304009651554225
    Molecular point group: c1
  Basis Set: CC-PVTZ
  Basis Set:

  -Total Gradient:
     Atom            X                  Y                   Z
    ------   -----------------  -----------------  -----------------
       1       -0.000049383237    -0.000060571421    -0.000034630622
       2        0.001545013620    -0.002143777239    -0.007126464804
       3       -0.000192829959    -0.000274071209     0.006628358922
       4       -0.003546003830     0.007755143798    -0.004096467496
       5       -0.000020937266    -0.000008780136    -0.000000810832
       6        0.000001842250     0.000017376562     0.000012297671
       7        0.000002613437     0.000002230550    -0.000002415228
       8        0.000001988031    -0.000000360593    -0.000000778664
       9       -0.000003428621     0.000002057062     0.000001089005
      10       -0.000002508530    -0.000002694201     0.000000851664
      11        0.002267097964    -0.005293774114     0.004613031414
      12        0.000000078421     0.000002688305     0.000003241788
      13       -0.000001790542     0.000007432354     0.000001548686
      14       -0.000001026440    -0.000001675863    -0.000001869011
      15        0.000001525106     0.000000776572     0.000001719393
      16       -0.000002780672    -0.000001129477     0.000001039660
      17        0.000000530260    -0.000000870953     0.000000258454

  **** Optimization is complete! (in 7 steps) ****
    Final optimized geometry and variables:
    Molecular point group: c1

    Geometry (in Angstrom), charge = 0, multiplicity = 1:

    O            0.606747531351     1.436914058610    -0.093759738093
    C            0.450783580795     0.273097545711    -0.214393649301
    C            1.557015160152    -0.749126937463    -0.217464525615
    O           -0.756679684978    -0.295528833973    -0.274161220291
    C            2.948352424128    -0.151795022034    -0.349236943457
    H            1.352725641300    -1.468281384123    -1.002037540485
    H            1.449629792995    -1.293758618626     0.716365894163
    H            3.054888232564     0.381478036039    -1.285176039646
    H            3.695863889529    -0.935062235995    -0.317777252070
    H            3.148972689569     0.546954391883     0.451159695209
    C           -1.725232962402     0.122485116574     0.677870899077
    C           -2.992138635303    -0.661805413373     0.431475838205
    H           -1.894500341552     1.184793742390     0.579218505352
    H           -1.337205603433    -0.068652568183     1.672198721048
    H           -3.372754041863    -0.466870646684    -0.562978506163
    H           -3.748329337403    -0.373071479090     1.152056348165
    H           -2.812866242411    -1.725148917437     0.527706986139

  Mulliken Charges: (a.u.)
   Center  Symbol    Alpha    Beta     Spin     Total
       1     O     4.18459  4.18459  0.00000 -0.36918
       2     C     2.80540  2.80540  0.00000  0.38920
       3     C     3.09376  3.09376  0.00000 -0.18752
       4     O     4.16491  4.16491  0.00000 -0.32983
       5     C     3.13994  3.13994  0.00000 -0.27987
       6     H     0.43886  0.43886  0.00000  0.12228
       7     H     0.44669  0.44669  0.00000  0.10663
       8     H     0.44953  0.44953  0.00000  0.10095
       9     H     0.45058  0.45058  0.00000  0.09883
      10     H     0.44637  0.44637  0.00000  0.10726
      11     C     2.97788  2.97788  0.00000  0.04423
      12     C     3.13435  3.13435  0.00000 -0.26871
      13     H     0.44572  0.44572  0.00000  0.10856
      14     H     0.46520  0.46520  0.00000  0.06960
      15     H     0.44858  0.44858  0.00000  0.10284
      16     H     0.45580  0.45580  0.00000  0.08841
      17     H     0.45184  0.45184  0.00000  0.09631

   Total alpha = 28.00000, Total beta = 28.00000, Total charge = -0.00000

*** Psi4 exiting successfully. Buy a developer a beer!
