  ==> Input File <==

--------------------------------------------------------------------------
set {
	reference rhf
	basis 6-31G*
}

set_num_threads( 4 )
memory 2 gb

molecule MOL {
0 1

O	 -2.439739	 -0.935931	 -0.423848
C	 -1.921153	 0.064240	 -0.045697
C	 -2.624470	 1.379923	 0.150949
O	 -0.632575	 0.154573	 0.251549
H	 -2.168117	 2.136577	 -0.476876
H	 -3.669540	 1.273223	 -0.098610
H	 -2.519365	 1.700893	 1.180846
C	 0.160891	 -1.019931	 0.106212
C	 1.589627	 -0.672828	 0.480843
H	 0.089836	 -1.367806	 -0.916050
H	 -0.238459	 -1.792301	 0.749618
C	 1.784830	 0.785047	 0.901431
H	 2.215800	 -0.890914	 -0.381873
H	 1.914297	 -1.335565	 1.278732
C	 3.238575	 1.106168	 1.245678
H	 1.450920	 1.437763	 0.097338
H	 1.152618	 0.999559	 1.756798
H	 3.350608	 2.144444	 1.541422
H	 3.892472	 0.932010	 0.395756
H	 3.592497	 0.488795	 2.066451

	symmetry c1
}
set optking {
	frozen_dihedral = ("
		12 9 8 10
	")
}

ee = optimize('scf')
oeprop('DIPOLE', 'QUADRUPOLE', 'MULLIKEN_CHARGES')
f=open( 'psi4out.xyz', 'w' )
f.write( "20  " )
f.write( str(ee) + "\n" )
f.write( MOL.save_string_xyz() )
f.close()
--------------------------------------------------------------------------

    Molecular point group: c1
  Charge       = 0
  Multiplicity = 1
  Basis Set: 6-31G*
  Basis Set:
  @DF-RHF Final Energy:  -383.93547542437972
    Total Energy =                       -383.9354754243798880
    Molecular point group: c1
  Basis Set: 6-31G*
  Basis Set:
  Basis Set: 6-31G*
  Basis Set:
  @DF-RHF Final Energy:  -383.93577636826370
    Total Energy =                       -383.9357763682635323
  Basis Set: 6-31G*
  Basis Set:
  Basis Set: 6-31G*
  Basis Set:
  @DF-RHF Final Energy:  -383.93691162582655
    Total Energy =                       -383.9369116258264967
  Basis Set: 6-31G*
  Basis Set:
  Basis Set: 6-31G*
  Basis Set:
  @DF-RHF Final Energy:  -383.93587268451569
    Total Energy =                       -383.9358726845157435
  Basis Set: 6-31G*
  Basis Set:
  @DF-RHF Final Energy:  -383.93706939184864
    Total Energy =                       -383.9370693918486950
  @DF-RHF Final Energy:  -383.93707587767568
    Total Energy =                       -383.9370758776758521
  Basis Set: 6-31G*
  Basis Set:
  @DF-RHF Final Energy:  -383.93707607767965
    Total Energy =                       -383.9370760776798761
  Basis Set: 6-31G*
  Basis Set:
  Basis Set: 6-31G*
  Basis Set:
  @DF-RHF Final Energy:  -383.93708060483726
    Total Energy =                       -383.9370806048375471
  Basis Set: 6-31G*
  Basis Set:
  Basis Set: 6-31G*
  Basis Set:
  @DF-RHF Final Energy:  -383.93708170722005
    Total Energy =                       -383.9370817072201589
  Basis Set: 6-31G*
  Basis Set:
  Charge       = 0
  Multiplicity = 1
  Basis Set: 6-31G*
  Basis Set:

    Orbital Energies (a.u.)
    -----------------------

    Doubly Occupied:

       1A    -20.601645     2A    -20.544064     3A    -11.374490
       4A    -11.283019     5A    -11.233423     6A    -11.226239
       7A    -11.219385     8A    -11.212151     9A     -1.468112
      10A     -1.362161    11A     -1.081237    12A     -1.027777
      13A     -0.978980    14A     -0.881320    15A     -0.818128
      16A     -0.760461    17A     -0.690387    18A     -0.689203
      19A     -0.667044    20A     -0.633915    21A     -0.594140
      22A     -0.592766    23A     -0.573534    24A     -0.546483
      25A     -0.545112    26A     -0.532534    27A     -0.506848
      28A     -0.482739    29A     -0.477633    30A     -0.468921
      31A     -0.443056    32A     -0.438735

  @DF-RHF Final Energy:  -383.93708173187872

   => Energetics <=

    Nuclear Repulsion Energy =            386.4894415782044916
    One-Electron Energy =               -1288.9417548463088679
    Two-Electron Energy =                 518.5152315362258832
    DFT Exchange-Correlation Energy =       0.0000000000000000
    Empirical Dispersion Energy =           0.0000000000000000
    PCM Polarization Energy =               0.0000000000000000
    EFP Energy =                            0.0000000000000000
    Total Energy =                       -383.9370817318784930
    Molecular point group: c1
  Basis Set: 6-31G*
  Basis Set:

  -Total Gradient:
     Atom            X                  Y                   Z
    ------   -----------------  -----------------  -----------------
       1       -0.000000509275    -0.000005940198     0.000002220729
       2        0.000008970641     0.000015944782    -0.000048814722
       3       -0.000008052331    -0.000002794528     0.000024266265
       4        0.000004951021     0.000005335965    -0.000008769873
       5        0.000001285338    -0.000004838760    -0.000001623716
       6       -0.000000922055     0.000000540126     0.000001782995
       7       -0.000001725515     0.000005472023    -0.000000212348
       8       -0.000030816504     0.000005849914     0.000100213339
       9        0.000013514001     0.000019152192    -0.000057701938
      10       -0.000000965292    -0.000026668353    -0.000010340729
      11        0.000021242943     0.000001725602    -0.000020801089
      12        0.000001575750    -0.000001637422    -0.000006203073
      13        0.000009836172    -0.000001686522     0.000003305360
      14       -0.000015976799    -0.000004901257     0.000000917832
      15       -0.000000495523    -0.000003438034     0.000010122377
      16       -0.000005324940     0.000000239053     0.000001952435
      17        0.000004336028    -0.000002657816     0.000007220803
      18       -0.000000461564    -0.000000075487     0.000001829529
      19       -0.000004632508     0.000000671378    -0.000000030486
      20        0.000004170412    -0.000000292659     0.000000666310

  **** Optimization is complete! (in 10 steps) ****
    Final optimized geometry and variables:
    Molecular point group: c1

    Geometry (in Angstrom), charge = 0, multiplicity = 1:

    O           -2.335234083532    -1.088238399996    -0.751669943330
    C           -1.848464988120    -0.067237734535    -0.386578239463
    C           -2.595653721134     1.225683751810    -0.199028869224
    O           -0.564131706671     0.069833247285    -0.091726687197
    H           -2.166723677731     1.991989978564    -0.834363905961
    H           -3.636986627089     1.081185364825    -0.445235817126
    H           -2.499485921047     1.558787730678     0.827914945569
    C            0.264894126466    -1.081213303731    -0.224927389251
    C            1.718517383558    -0.736335429977     0.153555632798
    H            0.195425662500    -1.430866602071    -1.245036989806
    H           -0.133761909020    -1.859465789517     0.409937305005
    C            1.979388924869     0.712344729166     0.578287936949
    H            2.361079119428    -0.970770035050    -0.690352158753
    H            2.032158957663    -1.394734592138     0.958643642795
    C            3.449182877718     0.940805306529     0.929532423646
    H            1.686347271552     1.386973394372    -0.219195704585
    H            1.357987397453     0.961857366853     1.431848258474
    H            3.622124337303     1.969688845547     1.229206285527
    H            4.095356254328     0.731127148095     0.081620861649
    H            3.763662854506     0.301104867836     1.749505918187

  Mulliken Charges: (a.u.)
   Center  Symbol    Alpha    Beta     Spin     Total
       1     O     4.28383  4.28383  0.00000 -0.56766
       2     C     2.61868  2.61868  0.00000  0.76265
       3     C     3.28139  3.28139  0.00000 -0.56277
       4     O     4.31052  4.31052  0.00000 -0.62103
       5     H     0.40077  0.40077  0.00000  0.19846
       6     H     0.39691  0.39691  0.00000  0.20619
       7     H     0.40077  0.40077  0.00000  0.19846
       8     C     2.99749  2.99749  0.00000  0.00503
       9     C     3.17941  3.17941  0.00000 -0.35882
      10     H     0.40834  0.40834  0.00000  0.18332
      11     H     0.40844  0.40844  0.00000  0.18312
      12     C     3.14485  3.14485  0.00000 -0.28969
      13     H     0.41597  0.41597  0.00000  0.16806
      14     H     0.41599  0.41599  0.00000  0.16802
      15     C     3.24203  3.24203  0.00000 -0.48406
      16     H     0.41669  0.41669  0.00000  0.16662
      17     H     0.41665  0.41665  0.00000  0.16671
      18     H     0.41771  0.41771  0.00000  0.16457
      19     H     0.42179  0.42179  0.00000  0.15641
      20     H     0.42179  0.42179  0.00000  0.15641

   Total alpha = 32.00000, Total beta = 32.00000, Total charge =  0.00000
