  ==> Input File <==

--------------------------------------------------------------------------
set {
	reference rhf
	basis 6-31G*
}

set_num_threads( 1 )
memory 2 gb

molecule MOL {
0 1

H	 2.023234	 1.392169	 0.856238
O	 1.142749	 1.032153	 0.900075
C	 1.050492	 0.053836	 0.000068
C	 -0.318135	 -0.576402	 0.000164
O	 1.962096	 -0.251630	 -0.697547
C	 -1.454360	 0.441875	 -0.000474
H	 -0.374042	 -1.230163	 -0.866135
H	 -0.374274	 -1.229227	 0.867154
C	 -2.826123	 -0.230780	 0.000056
H	 -1.357605	 1.085198	 -0.868380
H	 -1.357504	 1.086451	 0.866496
H	 -2.959731	 -0.858053	 -0.876869
H	 -3.619374	 0.509403	 -0.000080
H	 -2.959371	 -0.857318	 0.877556

	symmetry c1
}
set optking {
	frozen_dihedral = ("
		7 4 6 10,
		1 2 3 5
	")
}

ee = energy('scf')
oeprop('DIPOLE', 'QUADRUPOLE', 'MULLIKEN_CHARGES')
f=open( 'psi4out.xyz', 'w' )
f.write( "14  " )
f.write( str(ee) + "\n" )
f.write( MOL.save_string_xyz() )
f.close()
--------------------------------------------------------------------------

    Molecular point group: c1

    Geometry (in Angstrom), charge = 0, multiplicity = 1:

       Center              X                  Y                   Z               Mass
    ------------   -----------------  -----------------  -----------------  -----------------
           H          2.068438394270     1.293995534039     0.809676375721     1.007825032070
           O          1.187953394270     0.933979534039     0.853513375721    15.994914619560
           C          1.095696394270    -0.044337465961    -0.046493624279    12.000000000000
           C         -0.272930605730    -0.674575465961    -0.046397624279    12.000000000000
           O          2.007300394270    -0.349803465961    -0.744108624279    15.994914619560
           C         -1.409155605730     0.343701534039    -0.047035624279    12.000000000000
           H         -0.328837605730    -1.328336465961    -0.912696624279     1.007825032070
           H         -0.329069605730    -1.327400465961     0.820592375721     1.007825032070
           C         -2.780918605730    -0.328953465961    -0.046505624279    12.000000000000
           H         -1.312400605730     0.987024534039    -0.914941624279     1.007825032070
           H         -1.312299605730     0.988277534039     0.819934375721     1.007825032070
           H         -2.914526605730    -0.956226465961    -0.923430624279     1.007825032070
           H         -3.574169605730     0.411229534039    -0.046641624279     1.007825032070
           H         -2.914166605730    -0.955491465961     0.830994375721     1.007825032070

  Charge       = 0
  Multiplicity = 1
  Basis Set: 6-31G*
  Basis Set:

    Orbital Energies (a.u.)
    -----------------------

    Doubly Occupied:

       1A    -20.613862     2A    -20.550656     3A    -11.381036
       4A    -11.240149     5A    -11.231607     6A    -11.220038
       7A     -1.475181     8A     -1.365406     9A     -1.086918
      10A     -0.978852    11A     -0.847683    12A     -0.816025
      13A     -0.701187    14A     -0.684126    15A     -0.652799
      16A     -0.624453    17A     -0.592106    18A     -0.566047
      19A     -0.549220    20A     -0.522014    21A     -0.500421
      22A     -0.485178    23A     -0.474327    24A     -0.437591

  @DF-RHF Final Energy:  -305.87880286502400

   => Energetics <=

    Nuclear Repulsion Energy =            240.9558117169288209
    One-Electron Energy =                -894.4754402712251249
    Two-Electron Energy =                 347.6408256892724467
    DFT Exchange-Correlation Energy =       0.0000000000000000
    Empirical Dispersion Energy =           0.0000000000000000
    PCM Polarization Energy =               0.0000000000000000
    EFP Energy =                            0.0000000000000000
    Total Energy =                       -305.8788028650238857

  Mulliken Charges: (a.u.)
   Center  Symbol    Alpha    Beta     Spin     Total
       1     H     0.26746  0.26746  0.00000  0.46508
       2     O     4.34710  4.34710  0.00000 -0.69420
       3     C     2.62752  2.62752  0.00000  0.74496
       4     C     3.20473  3.20473  0.00000 -0.40947
       5     O     4.27986  4.27986  0.00000 -0.55971
       6     C     3.16153  3.16153  0.00000 -0.32306
       7     H     0.39740  0.39740  0.00000  0.20520
       8     H     0.40075  0.40075  0.00000  0.19851
       9     C     3.24223  3.24223  0.00000 -0.48446
      10     H     0.41460  0.41460  0.00000  0.17079
      11     H     0.40404  0.40404  0.00000  0.19192
      12     H     0.41881  0.41881  0.00000  0.16237
      13     H     0.41470  0.41470  0.00000  0.17060
      14     H     0.41927  0.41927  0.00000  0.16146

   Total alpha = 24.00000, Total beta = 24.00000, Total charge = -0.00000
