  ==> Input File <==

--------------------------------------------------------------------------
set {
	reference rhf
	basis cc-pvtz
}

set_num_threads( 4 )
memory 2 gb

molecule MOL {
0 1

H	 -0.125910	 2.041876	 1.604655
C	 0.742473	 1.393640	 1.427584
C	 0.692262	 0.592428	 0.156232
O	 1.625723	 1.360804	 2.212713
C	 -0.554654	 -0.292621	 0.086567
H	 1.597667	 0.004136	 0.085588
H	 0.681212	 1.297375	 -0.672506
C	 -1.846385	 0.513195	 -0.016346
H	 -0.473986	 -0.956115	 -0.769708
H	 -0.597929	 -0.929215	 0.966651
C	 -3.089953	 -0.365049	 -0.098564
H	 -1.798267	 1.154820	 -0.891143
H	 -1.925398	 1.173265	 0.842889
H	 -3.055079	 -1.012299	 -0.968245
H	 -3.988403	 0.236438	 -0.170014
H	 -3.183055	 -0.995885	 0.779079

	symmetry c1
}
set optking {
	frozen_dihedral = ("
		6 3 5 9
	")
}

ee = optimize('scf')
oeprop('DIPOLE', 'QUADRUPOLE', 'MULLIKEN_CHARGES')
f=open( 'psi4out.xyz', 'w' )
f.write( "16  " )
f.write( str(ee) + "\n" )
f.write( MOL.save_string_xyz() )
f.close()
--------------------------------------------------------------------------

    Molecular point group: c1
  Charge       = 0
  Multiplicity = 1
  Basis Set: CC-PVTZ
  Basis Set:
  @DF-RHF Final Energy:  -270.11599322041081
    Total Energy =                       -270.1159932204109282
    Molecular point group: c1
  Basis Set: CC-PVTZ
  Basis Set:
  Basis Set: CC-PVTZ
  Basis Set:
  @DF-RHF Final Energy:  -270.11638040790410
    Total Energy =                       -270.1163804079041029
  Basis Set: CC-PVTZ
  Basis Set:
  Basis Set: CC-PVTZ
  Basis Set:
  @DF-RHF Final Energy:  -270.11677618738338
    Total Energy =                       -270.1167761873832660
  Basis Set: CC-PVTZ
  Basis Set:
  Basis Set: CC-PVTZ
  Basis Set:
  @DF-RHF Final Energy:  -270.11689277540069
    Total Energy =                       -270.1168927754005153
  Basis Set: CC-PVTZ
  Basis Set:
  @DF-RHF Final Energy:  -270.11690812057867
    Total Energy =                       -270.1169081205783868
  @DF-RHF Final Energy:  -270.11692079978718
    Total Energy =                       -270.1169207997872945
  Basis Set: CC-PVTZ
  Basis Set:
  @DF-RHF Final Energy:  -270.11692535514612
    Total Energy =                       -270.1169253551464067
  Basis Set: CC-PVTZ
  Basis Set:
  Basis Set: CC-PVTZ
  Basis Set:
  @DF-RHF Final Energy:  -270.11693400105594
    Total Energy =                       -270.1169340010558813
  Basis Set: CC-PVTZ
  Basis Set:
  Basis Set: CC-PVTZ
  Basis Set:
  @DF-RHF Final Energy:  -270.11693674391768
    Total Energy =                       -270.1169367439178473
  Basis Set: CC-PVTZ
  Basis Set:
  Charge       = 0
  Multiplicity = 1
  Basis Set: CC-PVTZ
  Basis Set:

    Orbital Energies (a.u.)
    -----------------------

    Doubly Occupied:

       1A    -20.551650     2A    -11.320295     3A    -11.234514
       4A    -11.233696     5A    -11.228762     6A    -11.217449
       7A     -1.406004     8A     -1.096829     9A     -1.018338
      10A     -0.906030    11A     -0.829448    12A     -0.779491
      13A     -0.681273    14A     -0.655035    15A     -0.620226
      16A     -0.603571    17A     -0.584374    18A     -0.557094
      19A     -0.535023    20A     -0.516468    21A     -0.489189
      22A     -0.481182    23A     -0.473140    24A     -0.410600

  @DF-RHF Final Energy:  -270.11693684076783

   => Energetics <=

    Nuclear Repulsion Energy =            232.5073289798253313
    One-Electron Energy =                -826.3891687491362745
    Two-Electron Energy =                 323.7649029285431084
    DFT Exchange-Correlation Energy =       0.0000000000000000
    Empirical Dispersion Energy =           0.0000000000000000
    PCM Polarization Energy =               0.0000000000000000
    EFP Energy =                            0.0000000000000000
    Total Energy =                       -270.1169368407678917
    Molecular point group: c1
  Basis Set: CC-PVTZ
  Basis Set:

  -Total Gradient:
     Atom            X                  Y                   Z
    ------   -----------------  -----------------  -----------------
       1       -0.000005351070    -0.000001039263    -0.000000090318
       2        0.000010750922    -0.000011276591    -0.000014434257
       3        0.000065565069    -0.000008207733     0.000231924531
       4       -0.000004457175     0.000003851231     0.000004320405
       5       -0.000125340121     0.000126031121    -0.000155812313
       6       -0.000014325062     0.000005042015    -0.000166100304
       7       -0.000005682019    -0.000002566854     0.000005669957
       8        0.000012684171    -0.000000562574     0.000010405997
       9        0.000074410614    -0.000109077934     0.000091340579
      10        0.000000745316     0.000004735397    -0.000001732066
      11       -0.000004896128    -0.000006665094    -0.000003553205
      12       -0.000000378682    -0.000002931406     0.000000150988
      13       -0.000004415307     0.000003103609    -0.000001543082
      14       -0.000001151796    -0.000001377899    -0.000000516946
      15        0.000001235802    -0.000000058111     0.000000628295
      16        0.000000605470     0.000001000088    -0.000000658261

  **** Optimization is complete! (in 10 steps) ****
    Final optimized geometry and variables:
    Molecular point group: c1

    Geometry (in Angstrom), charge = 0, multiplicity = 1:

    H            0.488125406071     1.704675062473     0.904819070682
    C            1.223022132396     0.902216261333     0.776051671682
    C            1.105735775882     0.092100465492    -0.487268964193
    O            2.042017673905     0.717185019687     1.609666148444
    C           -0.161621297105    -0.775070968129    -0.535368073352
    H            1.986720739029    -0.531284304370    -0.558926855793
    H            1.105343877350     0.779225256635    -1.330012091859
    C           -1.473711339531     0.000313804019    -0.645812770662
    H           -0.073738858036    -1.438701426898    -1.389162691282
    H           -0.187285973513    -1.413923823407     0.342593206425
    C           -2.684651849782    -0.918225782380    -0.771781974074
    H           -1.428841965504     0.658507654260    -1.509211337666
    H           -1.606025825356     0.640755888424     0.220323187522
    H           -2.608273421819    -1.546772952582    -1.652513902423
    H           -3.601987539419    -0.347025214515    -0.850912992379
    H           -2.773145043051    -1.568803866178     0.091542000738

  Mulliken Charges: (a.u.)
   Center  Symbol    Alpha    Beta     Spin     Total
       1     H     0.46212  0.46212  0.00000  0.07576
       2     C     2.90391  2.90391  0.00000  0.19219
       3     C     3.08931  3.08931  0.00000 -0.17862
       4     O     4.16623  4.16623  0.00000 -0.33247
       5     C     3.10429  3.10429  0.00000 -0.20859
       6     H     0.43732  0.43732  0.00000  0.12536
       7     H     0.45065  0.45065  0.00000  0.09870
       8     C     3.08945  3.08945  0.00000 -0.17890
       9     H     0.44563  0.44563  0.00000  0.10875
      10     H     0.44503  0.44503  0.00000  0.10994
      11     C     3.14836  3.14836  0.00000 -0.29672
      12     H     0.45261  0.45261  0.00000  0.09477
      13     H     0.45216  0.45216  0.00000  0.09568
      14     H     0.45356  0.45356  0.00000  0.09287
      15     H     0.44667  0.44667  0.00000  0.10667
      16     H     0.45269  0.45269  0.00000  0.09462

   Total alpha = 24.00000, Total beta = 24.00000, Total charge = -0.00000
