  ==> Input File <==

--------------------------------------------------------------------------
set {
	reference rhf
	basis 6-31G*
}

set_num_threads( 1 )
memory 2 gb

molecule MOL {
0 1

H	 -2.795996	 0.222505	 0.698346
C	 -2.454765	 1.156676	 0.256727
O	 -1.074489	 1.163264	 0.083143
H	 -2.906706	 1.268126	 -0.719218
H	 -2.782701	 1.978573	 0.891843
C	 -0.350443	 1.033391	 1.265572
C	 1.122449	 0.943568	 0.941954
H	 -0.523618	 1.895033	 1.911544
H	 -0.653293	 0.140557	 1.808834
O	 1.392611	 -0.295398	 0.366430
H	 1.390671	 1.751784	 0.264569
H	 1.699247	 1.068206	 1.859267
C	 2.706965	 -0.449871	 -0.062409
H	 2.756559	 -0.644779	 -1.131878
H	 3.305899	 0.433456	 0.155466
H	 3.125548	 -1.294566	 0.467107

	symmetry c1
}
set optking {
	frozen_dihedral = ("
		3 6 7 11,
		2 3 6 7
	")
}

ee = energy('scf')
oeprop('DIPOLE', 'QUADRUPOLE', 'MULLIKEN_CHARGES')
f=open( 'psi4out.xyz', 'w' )
f.write( "16  " )
f.write( str(ee) + "\n" )
f.write( MOL.save_string_xyz() )
f.close()
--------------------------------------------------------------------------

    Molecular point group: c1

    Geometry (in Angstrom), charge = 0, multiplicity = 1:

       Center              X                  Y                   Z               Mass
    ------------   -----------------  -----------------  -----------------  -----------------
           H         -3.018215498390    -0.365482041603     0.229062640492     1.007825032070
           C         -2.676984498390     0.568688958397    -0.212556359508    12.000000000000
           O         -1.296708498390     0.575276958397    -0.386140359508    15.994914619560
           H         -3.128925498390     0.680138958397    -1.188501359508     1.007825032070
           H         -3.004920498390     1.390585958397     0.422559640492     1.007825032070
           C         -0.572662498390     0.445403958397     0.796288640492    12.000000000000
           C          0.900229501610     0.355580958397     0.472670640492    12.000000000000
           H         -0.745837498390     1.307045958397     1.442260640492     1.007825032070
           H         -0.875512498390    -0.447430041603     1.339550640492     1.007825032070
           O          1.170391501610    -0.883385041603    -0.102853359508    15.994914619560
           H          1.168451501610     1.163796958397    -0.204714359508     1.007825032070
           H          1.477027501610     0.480218958397     1.389983640492     1.007825032070
           C          2.484745501610    -1.037858041603    -0.531692359508    12.000000000000
           H          2.534339501610    -1.232766041603    -1.601161359508     1.007825032070
           H          3.083679501610    -0.154531041603    -0.313817359508     1.007825032070
           H          2.903328501610    -1.882553041603    -0.002176359508     1.007825032070

  Charge       = 0
  Multiplicity = 1
  Basis Set: 6-31G*
  Basis Set:

    Orbital Energies (a.u.)
    -----------------------

    Doubly Occupied:

       1A    -20.553350     2A    -20.550234     3A    -11.269399
       4A    -11.268174     5A    -11.263352     6A    -11.262455
       7A     -1.387538     8A     -1.369876     9A     -1.030332
      10A     -0.935372    11A     -0.892104    12A     -0.824887
      13A     -0.682482    14A     -0.679627    15A     -0.657598
      16A     -0.633552    17A     -0.629364    18A     -0.596086
      19A     -0.553241    20A     -0.538122    21A     -0.506458
      22A     -0.478178    23A     -0.463405    24A     -0.417369
      25A     -0.406905

  @DF-RHF Final Energy:  -306.97320055475387

   => Energetics <=

    Nuclear Repulsion Energy =            258.8648988711805146
    One-Electron Energy =                -931.9771979371801081
    Two-Electron Energy =                 366.1390985112462317
    DFT Exchange-Correlation Energy =       0.0000000000000000
    Empirical Dispersion Energy =           0.0000000000000000
    PCM Polarization Energy =               0.0000000000000000
    EFP Energy =                            0.0000000000000000
    Total Energy =                       -306.9732005547534186

  Mulliken Charges: (a.u.)
   Center  Symbol    Alpha    Beta     Spin     Total
       1     H     0.42807  0.42807  0.00000  0.14386
       2     C     3.07945  3.07945  0.00000 -0.15889
       3     O     4.30088  4.30088  0.00000 -0.60175
       4     H     0.41136  0.41136  0.00000  0.17729
       5     H     0.43195  0.43195  0.00000  0.13610
       6     C     2.99350  2.99350  0.00000  0.01301
       7     C     2.99546  2.99546  0.00000  0.00908
       8     H     0.43245  0.43245  0.00000  0.13510
       9     H     0.42281  0.42281  0.00000  0.15438
      10     O     4.30289  4.30289  0.00000 -0.60579
      11     H     0.42191  0.42191  0.00000  0.15619
      12     H     0.43208  0.43208  0.00000  0.13584
      13     C     3.07673  3.07673  0.00000 -0.15347
      14     H     0.41910  0.41910  0.00000  0.16180
      15     H     0.43065  0.43065  0.00000  0.13871
      16     H     0.42073  0.42073  0.00000  0.15855

   Total alpha = 25.00000, Total beta = 25.00000, Total charge =  0.00000
