  ==> Input File <==

--------------------------------------------------------------------------
set {
	reference rhf
	basis 6-31G*
}

set_num_threads( 1 )
memory 2 gb

molecule MOL {
0 1

H	 3.893188	 0.355400	 -0.101367
N	 3.092854	 -0.246221	 -0.068770
C	 1.865559	 0.531981	 0.018834
H	 3.199514	 -0.826043	 0.741946
C	 0.645745	 -0.382037	 -0.029944
H	 1.841966	 1.207024	 -0.831236
H	 1.815756	 1.155410	 0.915079
C	 -0.679275	 0.379305	 0.025956
H	 0.698998	 -0.976915	 -0.937203
H	 0.693479	 -1.083846	 0.802235
C	 -1.149677	 0.666303	 1.453096
H	 -1.446126	 -0.192473	 -0.494485
H	 -0.582238	 1.319939	 -0.514080
C	 -2.476084	 1.423628	 1.504222
H	 -1.248602	 -0.272130	 1.994181
H	 -0.386476	 1.239838	 1.974859
H	 -3.268389	 0.859749	 1.019858
H	 -2.783018	 1.611486	 2.528480
H	 -2.399570	 2.383309	 1.000684

	symmetry c1
}
set optking {
	frozen_dihedral = ("
		6 3 5 9,
		12 8 11 15,
		1 2 3 6
	")
}

ee = energy('scf')
oeprop('DIPOLE', 'QUADRUPOLE', 'MULLIKEN_CHARGES')
f=open( 'psi4out.xyz', 'w' )
f.write( "19  " )
f.write( str(ee) + "\n" )
f.write( MOL.save_string_xyz() )
f.close()
--------------------------------------------------------------------------

    Molecular point group: c1

    Geometry (in Angstrom), charge = 0, multiplicity = 1:

       Center              X                  Y                   Z               Mass
    ------------   -----------------  -----------------  -----------------  -----------------
           H          3.642761106587    -0.044303769680    -0.593478828930     1.007825032070
           N          2.842427106587    -0.645924769680    -0.560881828930    14.003074004780
           C          1.615132106587     0.132277230320    -0.473277828930    12.000000000000
           H          2.949087106587    -1.225746769680     0.249834171070     1.007825032070
           C          0.395318106587    -0.781740769680    -0.522055828930    12.000000000000
           H          1.591539106587     0.807320230320    -1.323347828930     1.007825032070
           H          1.565329106587     0.755706230320     0.422967171070     1.007825032070
           C         -0.929701893413    -0.020398769680    -0.466155828930    12.000000000000
           H          0.448571106587    -1.376618769680    -1.429314828930     1.007825032070
           H          0.443052106587    -1.483549769680     0.310123171070     1.007825032070
           C         -1.400103893413     0.266599230320     0.960984171070    12.000000000000
           H         -1.696552893413    -0.592176769680    -0.986596828930     1.007825032070
           H         -0.832664893413     0.920235230320    -1.006191828930     1.007825032070
           C         -2.726510893413     1.023924230320     1.012110171070    12.000000000000
           H         -1.499028893413    -0.671833769680     1.502069171070     1.007825032070
           H         -0.636902893413     0.840134230320     1.482747171070     1.007825032070
           H         -3.518815893413     0.460045230320     0.527746171070     1.007825032070
           H         -3.033444893413     1.211782230320     2.036368171070     1.007825032070
           H         -2.649996893413     1.983605230320     0.508572171070     1.007825032070

  Charge       = 0
  Multiplicity = 1
  Basis Set: 6-31G*
  Basis Set:

    Orbital Energies (a.u.)
    -----------------------

    Doubly Occupied:

       1A    -15.532464     2A    -11.239680     3A    -11.214681
       4A    -11.212254     5A    -11.208753     6A    -11.208076
       7A     -1.176669     8A     -1.073943     9A     -0.997444
      10A     -0.899395    11A     -0.823154    12A     -0.782946
      13A     -0.658649    14A     -0.636494    15A     -0.626450
      16A     -0.589917    17A     -0.566026    18A     -0.550022
      19A     -0.530254    20A     -0.500380    21A     -0.481957
      22A     -0.465964    23A     -0.457941    24A     -0.448639
      25A     -0.380312

  @DF-RHF Final Energy:  -251.34885055346913

   => Energetics <=

    Nuclear Repulsion Energy =            248.6244426936083016
    One-Electron Energy =                -831.4217453677913454
    Two-Electron Energy =                 331.4484521207137391
    DFT Exchange-Correlation Energy =       0.0000000000000000
    Empirical Dispersion Energy =           0.0000000000000000
    PCM Polarization Energy =               0.0000000000000000
    EFP Energy =                            0.0000000000000000
    Total Energy =                       -251.3488505534692763

  Mulliken Charges: (a.u.)
   Center  Symbol    Alpha    Beta     Spin     Total
       1     H     0.33257  0.33257  0.00000  0.33486
       2     N     3.92186  3.92186  0.00000 -0.84371
       3     C     3.06179  3.06179  0.00000 -0.12359
       4     H     0.33531  0.33531  0.00000  0.32937
       5     C     3.15379  3.15379  0.00000 -0.30759
       6     H     0.42053  0.42053  0.00000  0.15894
       7     H     0.43396  0.43396  0.00000  0.13208
       8     C     3.15782  3.15782  0.00000 -0.31564
       9     H     0.41087  0.41087  0.00000  0.17826
      10     H     0.42686  0.42686  0.00000  0.14627
      11     C     3.15264  3.15264  0.00000 -0.30529
      12     H     0.41996  0.41996  0.00000  0.16009
      13     H     0.42352  0.42352  0.00000  0.15297
      14     C     3.23913  3.23913  0.00000 -0.47826
      15     H     0.42274  0.42274  0.00000  0.15453
      16     H     0.42343  0.42343  0.00000  0.15315
      17     H     0.42151  0.42151  0.00000  0.15698
      18     H     0.41977  0.41977  0.00000  0.16046
      19     H     0.42194  0.42194  0.00000  0.15611

   Total alpha = 25.00000, Total beta = 25.00000, Total charge =  0.00000
