  ==> Input File <==

--------------------------------------------------------------------------
set {
	reference rhf
	basis cc-pvtz
}

set_num_threads( 4 )
memory 2 gb

molecule MOL {
0 1

H	 1.957332	 -1.453166	 -0.714745
C	 1.218446	 -1.394168	 0.076283
N	 0.526300	 -0.128137	 0.000000
H	 1.741948	 -1.470146	 1.020854
H	 0.560430	 -2.260326	 -0.020444
C	 -0.247113	 0.037112	 -1.209233
H	 -0.060619	 -0.012889	 0.797436
H	 -0.996493	 -0.743733	 -1.271440
H	 0.397975	 -0.057351	 -2.073512
H	 -0.763794	 0.997171	 -1.271673

	symmetry c1
}
set optking {
	frozen_dihedral = ("
		2 3 6 8
	")
}

ee = optimize('scf')
oeprop('DIPOLE', 'QUADRUPOLE', 'MULLIKEN_CHARGES')
f=open( 'psi4out.xyz', 'w' )
f.write( "10  " )
f.write( str(ee) + "\n" )
f.write( MOL.save_string_xyz() )
f.close()
--------------------------------------------------------------------------

    Molecular point group: c1
  Charge       = 0
  Multiplicity = 1
  Basis Set: CC-PVTZ
  Basis Set:
  @DF-RHF Final Energy:  -134.29184504116739
    Total Energy =                       -134.2918450411674200
    Molecular point group: c1
  Basis Set: CC-PVTZ
  Basis Set:
  Basis Set: CC-PVTZ
  Basis Set:
  @DF-RHF Final Energy:  -134.29288836536034
    Total Energy =                       -134.2928883653602838
  Basis Set: CC-PVTZ
  Basis Set:
  Basis Set: CC-PVTZ
  Basis Set:
  @DF-RHF Final Energy:  -134.29303662852985
    Total Energy =                       -134.2930366285298192
  Basis Set: CC-PVTZ
  Basis Set:
  Charge       = 0
  Multiplicity = 1
  Basis Set: CC-PVTZ
  Basis Set:

    Orbital Energies (a.u.)
    -----------------------

    Doubly Occupied:

       1A    -15.532348     2A    -11.234265     3A    -11.234223
       4A     -1.200897     5A     -0.948265     6A     -0.854781
       7A     -0.662984     8A     -0.612836     9A     -0.592375
      10A     -0.539416    11A     -0.511384    12A     -0.507191
      13A     -0.363811

  @DF-RHF Final Energy:  -134.29303798032981

   => Energetics <=

    Nuclear Repulsion Energy =             84.7509512704548911
    One-Electron Energy =                -348.4984263331439251
    Two-Electron Energy =                 129.4544370823592203
    DFT Exchange-Correlation Energy =       0.0000000000000000
    Empirical Dispersion Energy =           0.0000000000000000
    PCM Polarization Energy =               0.0000000000000000
    EFP Energy =                            0.0000000000000000
    Total Energy =                       -134.2930379803298138
    Molecular point group: c1
  Basis Set: CC-PVTZ
  Basis Set:

  -Total Gradient:
     Atom            X                  Y                   Z
    ------   -----------------  -----------------  -----------------
       1        0.000025687872    -0.000005915195    -0.000004417669
       2        0.000426276635     0.000136813207    -0.000402970782
       3       -0.000741035155    -0.000091706703     0.000538578733
       4       -0.000045890538     0.000066898483    -0.000004955618
       5        0.000000261497     0.000004405900     0.000025272875
       6        0.000780839831    -0.000552709333    -0.000610095483
       7       -0.000046628302     0.000008805779    -0.000023776709
       8       -0.000465124588     0.000433050288     0.000404832815
       9        0.000033266477    -0.000000162432     0.000026390433
      10        0.000032346271     0.000000520004     0.000051141404

  **** Optimization is complete! (in 4 steps) ****
    Final optimized geometry and variables:
    Molecular point group: c1

    Geometry (in Angstrom), charge = 0, multiplicity = 1:

    H            1.473374017030    -0.940982148529    -0.329871150447
    C            0.738204220506    -0.874708501511     0.463932893336
    N            0.041231903445     0.387793586649     0.375126110651
    H            1.266446763542    -0.935767807153     1.406922213377
    H            0.083555138620    -1.745080891920     0.382708710956
    C           -0.740967086722     0.535087786697    -0.830522502505
    H           -0.538471064187     0.516065678071     1.175795465089
    H           -1.517711888540    -0.223740591014    -0.945910955106
    H           -0.089984925123     0.477706921499    -1.695088754776
    H           -1.217201575333     1.507464583056    -0.841769431666

  Mulliken Charges: (a.u.)
   Center  Symbol    Alpha    Beta     Spin     Total
       1     H     0.45691  0.45691  0.00000  0.08618
       2     C     3.08073  3.08073  0.00000 -0.16146
       3     N     3.62900  3.62900  0.00000 -0.25801
       4     H     0.45245  0.45245  0.00000  0.09510
       5     H     0.47531  0.47531  0.00000  0.04939
       6     C     3.08143  3.08143  0.00000 -0.16285
       7     H     0.44045  0.44045  0.00000  0.11910
       8     H     0.47428  0.47428  0.00000  0.05143
       9     H     0.45722  0.45722  0.00000  0.08556
      10     H     0.45222  0.45222  0.00000  0.09556

   Total alpha = 13.00000, Total beta = 13.00000, Total charge = -0.00000
