  ==> Input File <==

--------------------------------------------------------------------------
set {
	reference rhf
	basis 6-31G*
}

set_num_threads( 1 )
memory 2 gb

molecule MOL {
0 1

O	 0.719185	 0.918941	 1.832588
C	 -0.245068	 1.048580	 1.150180
C	 -1.180308	 2.226658	 1.192666
O	 -0.632575	 0.154573	 0.251549
H	 -2.181736	 1.890673	 1.435986
H	 -0.837853	 2.934943	 1.932188
H	 -1.220103	 2.697862	 0.217402
C	 0.160891	 -1.019931	 0.106212
C	 1.589627	 -0.672828	 0.480843
H	 0.089836	 -1.367806	 -0.916050
H	 -0.238459	 -1.792301	 0.749618
C	 2.246377	 0.346236	 -0.452210
H	 2.163194	 -1.597435	 0.473358
H	 1.604769	 -0.303424	 1.502885
C	 3.691736	 0.652107	 -0.061850
H	 2.219579	 -0.032311	 -1.472055
H	 1.666466	 1.263317	 -0.447249
H	 4.134505	 1.377213	 -0.737283
H	 4.305508	 -0.243868	 -0.089969
H	 3.748266	 1.059562	 0.943567

	symmetry c1
}
set optking {
	frozen_dihedral = ("
		16 12 9 8,
		12 9 8 10,
		1 2 4 8
	")
}

ee = energy('scf')
oeprop('DIPOLE', 'QUADRUPOLE', 'MULLIKEN_CHARGES')
f=open( 'psi4out.xyz', 'w' )
f.write( "20  " )
f.write( str(ee) + "\n" )
f.write( MOL.save_string_xyz() )
f.close()
--------------------------------------------------------------------------

    Molecular point group: c1

    Geometry (in Angstrom), charge = 0, multiplicity = 1:

       Center              X                  Y                   Z               Mass
    ------------   -----------------  -----------------  -----------------  -----------------
           O         -0.074373922341     0.453129680770     1.264496380152    15.994914619560
           C         -1.038626922341     0.582768680770     0.582088380152    12.000000000000
           C         -1.973866922341     1.760846680770     0.624574380152    12.000000000000
           O         -1.426133922341    -0.311238319230    -0.316542619848    15.994914619560
           H         -2.975294922341     1.424861680770     0.867894380152     1.007825032070
           H         -1.631411922341     2.469131680770     1.364096380152     1.007825032070
           H         -2.013661922341     2.232050680770    -0.350689619848     1.007825032070
           C         -0.632667922341    -1.485742319230    -0.461879619848    12.000000000000
           C          0.796068077659    -1.138639319230    -0.087248619848    12.000000000000
           H         -0.703722922341    -1.833617319230    -1.484141619848     1.007825032070
           H         -1.032017922341    -2.258112319230     0.181526380152     1.007825032070
           C          1.452818077659    -0.119575319230    -1.020301619848    12.000000000000
           H          1.369635077659    -2.063246319230    -0.094733619848     1.007825032070
           H          0.811210077659    -0.769235319230     0.934793380152     1.007825032070
           C          2.898177077659     0.186295680770    -0.629941619848    12.000000000000
           H          1.426020077659    -0.498122319230    -2.040146619848     1.007825032070
           H          0.872907077659     0.797505680770    -1.015340619848     1.007825032070
           H          3.340946077659     0.911401680770    -1.305374619848     1.007825032070
           H          3.511949077659    -0.709679319230    -0.658060619848     1.007825032070
           H          2.954707077659     0.593750680770     0.375475380152     1.007825032070

  Charge       = 0
  Multiplicity = 1
  Basis Set: 6-31G*
  Basis Set:

    Orbital Energies (a.u.)
    -----------------------

    Doubly Occupied:

       1A    -20.605392     2A    -20.542761     3A    -11.385220
       4A    -11.281291     5A    -11.237510     6A    -11.207969
       7A    -11.200764     8A    -11.183963     9A     -1.479483
      10A     -1.373821    11A     -1.076228    12A     -1.025993
      13A     -0.972460    14A     -0.886403    15A     -0.806951
      16A     -0.770825    17A     -0.701352    18A     -0.688410
      19A     -0.674242    20A     -0.623119    21A     -0.597479
      22A     -0.588794    23A     -0.567628    24A     -0.561697
      25A     -0.541332    26A     -0.528688    27A     -0.511262
      28A     -0.481563    29A     -0.475620    30A     -0.460072
      31A     -0.438185    32A     -0.383216

  @DF-RHF Final Energy:  -383.88531228660679

   => Energetics <=

    Nuclear Repulsion Energy =            411.4012918152269549
    One-Electron Energy =               -1338.8537792845322656
    Two-Electron Energy =                 543.5671751826988611
    DFT Exchange-Correlation Energy =       0.0000000000000000
    Empirical Dispersion Energy =           0.0000000000000000
    PCM Polarization Energy =               0.0000000000000000
    EFP Energy =                            0.0000000000000000
    Total Energy =                       -383.8853122866064496

  Mulliken Charges: (a.u.)
   Center  Symbol    Alpha    Beta     Spin     Total
       1     O     4.29258  4.29258  0.00000 -0.58516
       2     C     2.60882  2.60882  0.00000  0.78235
       3     C     3.28185  3.28185  0.00000 -0.56370
       4     O     4.31062  4.31062  0.00000 -0.62124
       5     H     0.39837  0.39837  0.00000  0.20325
       6     H     0.39662  0.39662  0.00000  0.20677
       7     H     0.39904  0.39904  0.00000  0.20191
       8     C     2.99861  2.99861  0.00000  0.00279
       9     C     3.21293  3.21293  0.00000 -0.42587
      10     H     0.40973  0.40973  0.00000  0.18053
      11     H     0.41249  0.41249  0.00000  0.17503
      12     C     3.14452  3.14452  0.00000 -0.28903
      13     H     0.43055  0.43055  0.00000  0.13890
      14     H     0.34998  0.34998  0.00000  0.30004
      15     C     3.23864  3.23864  0.00000 -0.47727
      16     H     0.42815  0.42815  0.00000  0.14369
      17     H     0.42556  0.42556  0.00000  0.14888
      18     H     0.42221  0.42221  0.00000  0.15557
      19     H     0.42286  0.42286  0.00000  0.15429
      20     H     0.41587  0.41587  0.00000  0.16826

   Total alpha = 32.00000, Total beta = 32.00000, Total charge = -0.00000
