  ==> Input File <==

--------------------------------------------------------------------------
set {
	reference rhf
	basis 6-31G*
}

set_num_threads( 4 )
memory 2 gb

molecule MOL {
0 1

O	 1.296871	 1.171044	 -0.530828
C	 1.122059	 0.121804	 -0.000188
C	 -0.170150	 -0.657997	 -0.000612
O	 2.067439	 -0.514996	 0.679310
C	 -1.412532	 0.227344	 -0.000452
H	 -0.153702	 -1.313099	 -0.867402
H	 -0.153924	 -1.313811	 0.865644
C	 -2.706999	 -0.587347	 -0.000541
H	 -1.388000	 0.879466	 -0.868000
H	 -1.387972	 0.879138	 0.867341
C	 -3.956778	 0.291888	 0.000910
H	 -2.726114	 -1.239230	 -0.871609
H	 -2.725217	 -1.240844	 0.869333
H	 -3.985213	 0.933254	 -0.875158
H	 -4.860123	 -0.309979	 0.000519
H	 -3.984618	 0.931166	 0.878514
C	 3.335046	 0.111246	 0.757629
H	 3.754497	 0.244893	 -0.229127
H	 3.955665	 -0.550684	 1.341264
H	 3.254235	 1.073453	 1.242536

	symmetry c1
}
set optking {
	frozen_dihedral = ("
		1 2 3 6
	")
}

ee = optimize('scf')
oeprop('DIPOLE', 'QUADRUPOLE', 'MULLIKEN_CHARGES')
f=open( 'psi4out.xyz', 'w' )
f.write( "20  " )
f.write( str(ee) + "\n" )
f.write( MOL.save_string_xyz() )
f.close()
--------------------------------------------------------------------------

    Molecular point group: c1
  Charge       = 0
  Multiplicity = 1
  Basis Set: 6-31G*
  Basis Set:
  @DF-RHF Final Energy:  -383.94060425668096
    Total Energy =                       -383.9406042566813539
    Molecular point group: c1
  Basis Set: 6-31G*
  Basis Set:
  Basis Set: 6-31G*
  Basis Set:
  @DF-RHF Final Energy:  -383.94004697963209
    Total Energy =                       -383.9400469796319157
  Basis Set: 6-31G*
  Basis Set:
  Basis Set: 6-31G*
  Basis Set:
  @DF-RHF Final Energy:  -383.94072893781629
    Total Energy =                       -383.9407289378159476
  Basis Set: 6-31G*
  Basis Set:
  Basis Set: 6-31G*
  Basis Set:
  @DF-RHF Final Energy:  -383.94096521065416
    Total Energy =                       -383.9409652106535304
  Basis Set: 6-31G*
  Basis Set:
  Charge       = 0
  Multiplicity = 1
  Basis Set: 6-31G*
  Basis Set:

    Orbital Energies (a.u.)
    -----------------------

    Doubly Occupied:

       1A    -20.605112     2A    -20.544122     3A    -11.372345
       4A    -11.280955     5A    -11.235184     6A    -11.221412
       7A    -11.220675     8A    -11.211206     9A     -1.469820
      10A     -1.362401    11A     -1.089084    12A     -1.024195
      13A     -0.969484    14A     -0.886374    15A     -0.804360
      16A     -0.769187    17A     -0.696290    18A     -0.682837
      19A     -0.672200    20A     -0.646581    21A     -0.597549
      22A     -0.592604    23A     -0.577155    24A     -0.545182
      25A     -0.534496    26A     -0.523130    27A     -0.501492
      28A     -0.477982    29A     -0.474921    30A     -0.470535
      31A     -0.455945    32A     -0.435304

  @DF-RHF Final Energy:  -383.94096588000832

   => Energetics <=

    Nuclear Repulsion Energy =            381.1462474188780334
    One-Electron Energy =               -1278.2741857265489216
    Two-Electron Energy =                 513.1869724276623401
    DFT Exchange-Correlation Energy =       0.0000000000000000
    Empirical Dispersion Energy =           0.0000000000000000
    PCM Polarization Energy =               0.0000000000000000
    EFP Energy =                            0.0000000000000000
    Total Energy =                       -383.9409658800085481
    Molecular point group: c1
  Basis Set: 6-31G*
  Basis Set:

  -Total Gradient:
     Atom            X                  Y                   Z
    ------   -----------------  -----------------  -----------------
       1        0.000260906636    -0.000528903678    -0.000775014893
       2       -0.000532249968     0.000946468959     0.001008557469
       3        0.000602699641    -0.000980517442     0.000248595232
       4        0.000035322844    -0.000033872931     0.000122541913
       5        0.000028413954     0.000007285792    -0.000083962177
       6       -0.000405083138     0.000672228663    -0.000501576726
       7        0.000022383161    -0.000011910655     0.000006134865
       8       -0.000005272361    -0.000016232384     0.000032466868
       9       -0.000004161456    -0.000000639596    -0.000011053273
      10        0.000017802933    -0.000015694228     0.000013434567
      11        0.000011731418     0.000007799219     0.000006753561
      12        0.000010132851     0.000009614667     0.000001376794
      13       -0.000009868484    -0.000014446997     0.000003552991
      14        0.000000108310     0.000000960758    -0.000000120910
      15        0.000005273494    -0.000002401607     0.000000934673
      16       -0.000004874529     0.000001435246     0.000000381727
      17       -0.000037120647    -0.000082932795    -0.000129666225
      18        0.000034058579     0.000019603948     0.000022326253
      19        0.000003032866     0.000010798180     0.000019338166
      20       -0.000033236114     0.000011356878     0.000014999125

  **** Optimization is complete! (in 5 steps) ****
    Final optimized geometry and variables:
    Molecular point group: c1

    Geometry (in Angstrom), charge = 0, multiplicity = 1:

    O            1.278158265085     1.151775719389    -0.593792531001
    C            1.131734487515     0.096627073929    -0.065015209703
    C           -0.154392075947    -0.694454005813    -0.052865274646
    O            2.111491047831    -0.544664230642     0.557092026602
    C           -1.398095309777     0.192815253989    -0.096608646766
    H           -0.126988502578    -1.336098305432    -0.931443444990
    H           -0.158204861237    -1.347328510307     0.811645669373
    C           -2.692090194988    -0.620436062558    -0.150479331961
    H           -1.335273539610     0.848708677811    -0.957714937235
    H           -1.410439945198     0.837209048913     0.779110637763
    C           -3.940337445223     0.260187393616    -0.187468499587
    H           -2.678250317326    -1.263105242984    -1.028421221153
    H           -2.742975435730    -1.282427304037     0.711487304491
    H           -3.934589295895     0.910743611654    -1.057106133490
    H           -4.843283544896    -0.340817568874    -0.228798573565
    H           -4.001790739214     0.890013430823     0.695344036146
    C            3.384572352456     0.075798448463     0.559573991276
    H            3.744459899715     0.209423202929    -0.450441725424
    H            4.036007039284    -0.589785003422     1.104143600196
    H            3.336624016691     1.037468774420     1.049679048595

  Mulliken Charges: (a.u.)
   Center  Symbol    Alpha    Beta     Spin     Total
       1     O     4.28658  4.28658  0.00000 -0.57316
       2     C     2.60402  2.60402  0.00000  0.79197
       3     C     3.20888  3.20888  0.00000 -0.41776
       4     O     4.30632  4.30632  0.00000 -0.61264
       5     C     3.15518  3.15518  0.00000 -0.31036
       6     H     0.40038  0.40038  0.00000  0.19925
       7     H     0.40060  0.40060  0.00000  0.19881
       8     C     3.15383  3.15383  0.00000 -0.30766
       9     H     0.40499  0.40499  0.00000  0.19002
      10     H     0.41731  0.41731  0.00000  0.16538
      11     C     3.23953  3.23953  0.00000 -0.47906
      12     H     0.42230  0.42230  0.00000  0.15540
      13     H     0.42265  0.42265  0.00000  0.15471
      14     H     0.41938  0.41938  0.00000  0.16123
      15     H     0.41853  0.41853  0.00000  0.16294
      16     H     0.42047  0.42047  0.00000  0.15905
      17     C     3.09319  3.09319  0.00000 -0.18637
      18     H     0.40908  0.40908  0.00000  0.18184
      19     H     0.40835  0.40835  0.00000  0.18329
      20     H     0.40844  0.40844  0.00000  0.18312

   Total alpha = 32.00000, Total beta = 32.00000, Total charge = -0.00000
