                              Psi4 1.0.54 Driver

  ==> Input File <==

--------------------------------------------------------------------------
set {
	reference rhf
	basis cc-pvtz
}

set_num_threads( 4 )
memory 2 gb

molecule MOL {
0 1

O	 -2.071633	 -1.227563	 -0.223463
C	 -1.652164	 -0.152425	 0.058082
C	 -0.327811	 0.006324	 0.778296
C	 -2.402515	 1.108629	 -0.298924
C	 0.843231	 -0.001575	 -0.211665
H	 -0.319484	 0.928173	 1.350354
H	 -0.227804	 -0.823091	 1.466705
C	 0.781475	 1.153780	 -1.206437
H	 0.857779	 -0.941958	 -0.756791
H	 1.771108	 0.046953	 0.347848
C	 1.950887	 1.157245	 -2.185021
H	 -0.152383	 1.103666	 -1.759538
H	 0.763905	 2.092859	 -0.661128
H	 1.974678	 0.244304	 -2.770690
H	 2.897689	 1.238561	 -1.662219
H	 1.880927	 1.990330	 -2.874569
H	 -3.240910	 0.874416	 -0.936711
H	 -1.747554	 1.818823	 -0.790984
H	 -2.760419	 1.579708	 0.610998

	symmetry c1
}
set optking {
	frozen_dihedral = ("
		9 5 3 2
	")
}

ee,wfn = optimize('scf', return_wfn=True)
oeprop( wfn, 'DIPOLE', 'QUADRUPOLE', 'MULLIKEN_CHARGES')
f=open( 'psi4out.xyz', 'w' )
f.write( "19  " )
f.write( str(ee) + "\n" )
f.write( MOL.save_string_xyz() )
f.close()
--------------------------------------------------------------------------

    Molecular point group: c1
  Charge       = 0
  Multiplicity = 1
  Basis Set: CC-PVTZ
  Basis Set:
  @DF-RHF Final Energy:  -309.17235337781005
    Total Energy =                       -309.1723533778100546
    Molecular point group: c1
  Basis Set: CC-PVTZ
  Basis Set:
  Basis Set: CC-PVTZ
  Basis Set:
  @DF-RHF Final Energy:  -309.17500611966216
    Total Energy =                       -309.1750061196621573
  Basis Set: CC-PVTZ
  Basis Set:
  Basis Set: CC-PVTZ
  Basis Set:
  @DF-RHF Final Energy:  -309.17413324674197
    Total Energy =                       -309.1741332467418601
  Basis Set: CC-PVTZ
  Basis Set:
  Basis Set: CC-PVTZ
  Basis Set:
  @DF-RHF Final Energy:  -309.17570466602655
    Total Energy =                       -309.1757046660269452
  Basis Set: CC-PVTZ
  Basis Set:
  @DF-RHF Final Energy:  -309.17604653329158
    Total Energy =                       -309.1760465332918102
  @DF-RHF Final Energy:  -309.17632018169815
    Total Energy =                       -309.1763201816982587
  @DF-RHF Final Energy:  -309.17655684224098
    Total Energy =                       -309.1765568422406432
  @DF-RHF Final Energy:  -309.17660879081956
    Total Energy =                       -309.1766087908196141
  @DF-RHF Final Energy:  -309.17710608056916
    Total Energy =                       -309.1771060805690468
  @DF-RHF Final Energy:  -309.17747471191694
    Total Energy =                       -309.1774747119165454
  @DF-RHF Final Energy:  -309.17768495606049
    Total Energy =                       -309.1776849560606024
  @DF-RHF Final Energy:  -309.17679802392678
    Total Energy =                       -309.1767980239268354
  @DF-RHF Final Energy:  -309.17798411569800
    Total Energy =                       -309.1779841156978250
  @DF-RHF Final Energy:  -309.17756839643118
    Total Energy =                       -309.1775683964308428
  @DF-RHF Final Energy:  -309.17798755193127
    Total Energy =                       -309.1779875519314373
  Basis Set: CC-PVTZ
  Basis Set:
  @DF-RHF Final Energy:  -309.17790610824318
    Total Energy =                       -309.1779061082433486
  Basis Set: CC-PVTZ
  Basis Set:
  Basis Set: CC-PVTZ
  Basis Set:
  @DF-RHF Final Energy:  -309.17803156270162
    Total Energy =                       -309.1780315627011078
  Basis Set: CC-PVTZ
  Basis Set:
  Basis Set: CC-PVTZ
  Basis Set:
  @DF-RHF Final Energy:  -309.17803325639528
    Total Energy =                       -309.1780332563953380
  Basis Set: CC-PVTZ
  Basis Set:
  Charge       = 0
  Multiplicity = 1
  Basis Set: CC-PVTZ
  Basis Set:

    Orbital Energies (a.u.)
    -----------------------

    Doubly Occupied:

       1A    -20.538976     2A    -11.321588     3A    -11.231187
       4A    -11.227337     5A    -11.217325     6A    -11.211094
       7A    -11.204773     8A     -1.399546     9A     -1.085050
      10A     -1.029794    11A     -0.983499    12A     -0.885524
      13A     -0.803968    14A     -0.728528    15A     -0.667399
      16A     -0.632968    17A     -0.627960    18A     -0.614890
      19A     -0.578802    20A     -0.572297    21A     -0.562210
      22A     -0.524779    23A     -0.515479    24A     -0.497189
      25A     -0.475634    26A     -0.467955    27A     -0.461488
      28A     -0.401929

  @DF-RHF Final Energy:  -309.17803342685880

   => Energetics <=

    Nuclear Repulsion Energy =            307.7577771420853310
    One-Electron Energy =               -1028.9332904607917953
    Two-Electron Energy =                 411.9974798918474903
    DFT Exchange-Correlation Energy =       0.0000000000000000
    Empirical Dispersion Energy =           0.0000000000000000
    PCM Polarization Energy =               0.0000000000000000
    EFP Energy =                            0.0000000000000000
    Total Energy =                       -309.1780334268589172
    Molecular point group: c1
  Basis Set: CC-PVTZ
  Basis Set:

  -Total Gradient:
     Atom            X                  Y                   Z
    ------   -----------------  -----------------  -----------------
       1       -0.000009470171    -0.000008041040    -0.000009955140
       2        0.000076338409     0.001766366937    -0.000616383941
       3        0.000214302074    -0.002660721661     0.001391105887
       4       -0.000015624117    -0.000002900338     0.000028630608
       5       -0.001344609857     0.001479807942    -0.002941922243
       6       -0.000011748115     0.000001275498    -0.000002239895
       7       -0.000005432102     0.000000981027     0.000002562614
       8        0.000015209659     0.000003443679    -0.000005464382
       9        0.001101006487    -0.000598528510     0.002164236585
      10       -0.000006721274    -0.000002727899     0.000001902017
      11       -0.000006503295     0.000001637840    -0.000005451226
      12        0.000008254489     0.000002142847     0.000000493652
      13       -0.000000264071     0.000007740838    -0.000001868519
      14       -0.000001862770    -0.000003576761    -0.000000716567
      15       -0.000003901061     0.000003172664     0.000004724123
      16        0.000001363605     0.000000385075     0.000000331230
      17       -0.000010501406    -0.000003832983    -0.000004792812
      18        0.000001724218     0.000012311003    -0.000011708403
      19       -0.000001560700     0.000001063843     0.000006516410

  **** Optimization is complete! (in 19 steps) ****
    Final optimized geometry and variables:
    Molecular point group: c1

    Geometry (in Angstrom), charge = 0, multiplicity = 1:

    O           -1.382362078136    -0.904432897181    -0.602519011158
    C           -1.368204558645    -0.235732110939     0.378868839603
    C           -0.100160175183     0.016378343542     1.171887865710
    C           -2.630829732857     0.391252071036     0.923253378848
    C            1.204000623559    -0.265854989172     0.432985457092
    H           -0.119987154866     1.039817082597     1.536525339883
    H           -0.171941609583    -0.610401644785     2.058266878979
    C            1.459035238852     0.636062706343    -0.771914024000
    H            1.229337855203    -1.307961991459     0.136194554576
    H            2.016466181219    -0.136748617201     1.143357945937
    C            2.801338318923     0.353918779426    -1.438530996189
    H            0.665165508881     0.508819124441    -1.496686285195
    H            1.429964764515     1.675146195135    -0.451284872446
    H            2.848888468281    -0.668105364292    -1.798549918347
    H            3.624066688448     0.499380339627    -0.745937355913
    H            2.962584257756     1.010135896868    -2.285938277958
    H           -3.491605739600    -0.004610317540     0.406493262193
    H           -2.587120646321     1.465747792051     0.777428615045
    H           -2.721690223255     0.213974120858     1.988836333747

  Mulliken Charges: (a.u.)
   Center  Symbol    Alpha    Beta     Spin     Total
       1     O     4.17372  4.17372  0.00000 -0.34743
       2     C     2.85805  2.85805  0.00000  0.28391
       3     C     3.12407  3.12407  0.00000 -0.24814
       4     C     3.15135  3.15135  0.00000 -0.30270
       5     C     3.08575  3.08575  0.00000 -0.17150
       6     H     0.44428  0.44428  0.00000  0.11145
       7     H     0.43519  0.43519  0.00000  0.12961
       8     C     3.08744  3.08744  0.00000 -0.17488
       9     H     0.44624  0.44624  0.00000  0.10751
      10     H     0.44861  0.44861  0.00000  0.10277
      11     C     3.15122  3.15122  0.00000 -0.30245
      12     H     0.44170  0.44170  0.00000  0.11659
      13     H     0.45870  0.45870  0.00000  0.08261
      14     H     0.45233  0.45233  0.00000  0.09533
      15     H     0.45700  0.45700  0.00000  0.08599
      16     H     0.44840  0.44840  0.00000  0.10319
      17     H     0.43588  0.43588  0.00000  0.12824
      18     H     0.44942  0.44942  0.00000  0.10116
      19     H     0.45064  0.45064  0.00000  0.09872

   Total alpha = 28.00000, Total beta = 28.00000, Total charge =  0.00000

*** Psi4 exiting successfully. Buy a developer a beer!
