  ==> Input File <==

--------------------------------------------------------------------------
set {
	reference rhf
	basis 6-31G*
}

set_num_threads( 1 )
memory 2 gb

molecule MOL {
0 1

O	 1.401501	 2.072622	 -0.264135
C	 0.392077	 2.405168	 -0.796672
C	 -0.904306	 1.632472	 -0.782618
O	 0.272480	 3.532062	 -1.487283
C	 -0.823008	 0.326187	 0.001381
H	 -1.669026	 2.288734	 -0.376123
H	 -1.187245	 1.454237	 -1.816493
C	 -2.149452	 -0.435131	 -0.000098
H	 -0.521352	 0.539859	 1.021938
H	 -0.039923	 -0.295976	 -0.420518
C	 -3.368779	 0.488503	 -0.000883
H	 -2.193746	 -1.087250	 -0.871175
H	 -2.195311	 -1.087803	 0.870418
C	 -4.693822	 -0.272754	 -0.001129
H	 -3.325798	 1.139422	 -0.871284
H	 -3.326423	 1.139959	 0.869145
H	 -4.781274	 -0.907928	 -0.878124
H	 -5.538651	 0.408946	 -0.001420
H	 -4.781694	 -0.907783	 0.875984
C	 1.420897	 4.355438	 -1.577542
H	 1.739491	 4.672321	 -0.594887
H	 1.126578	 5.208674	 -2.168507
H	 2.230480	 3.826994	 -2.060064

	symmetry c1
}
set optking {
	frozen_dihedral = ("
		15 11 8 12,
		1 2 3 6,
		9 5 3 6,
		1 2 4 20
	")
}

ee = energy('scf')
oeprop('DIPOLE', 'QUADRUPOLE', 'MULLIKEN_CHARGES')
f=open( 'psi4out.xyz', 'w' )
f.write( "23  " )
f.write( str(ee) + "\n" )
f.write( MOL.save_string_xyz() )
f.close()
--------------------------------------------------------------------------

    Molecular point group: c1

    Geometry (in Angstrom), charge = 0, multiplicity = 1:

       Center              X                  Y                   Z               Mass
    ------------   -----------------  -----------------  -----------------  -----------------
           O          2.319236794526     0.472570442096     0.292177174111    15.994914619560
           C          1.309812794526     0.805116442096    -0.240359825889    12.000000000000
           C          0.013429794526     0.032420442096    -0.226305825889    12.000000000000
           O          1.190215794526     1.932010442096    -0.930970825889    15.994914619560
           C          0.094727794526    -1.273864557904     0.557693174111    12.000000000000
           H         -0.751290205474     0.688682442096     0.180189174111     1.007825032070
           H         -0.269509205474    -0.145814557904    -1.260180825889     1.007825032070
           C         -1.231716205474    -2.035182557904     0.556214174111    12.000000000000
           H          0.396383794526    -1.060192557904     1.578250174111     1.007825032070
           H          0.877812794526    -1.896027557904     0.135794174111     1.007825032070
           C         -2.451043205474    -1.111548557904     0.555429174111    12.000000000000
           H         -1.276010205474    -2.687301557904    -0.314862825889     1.007825032070
           H         -1.277575205474    -2.687854557904     1.426730174111     1.007825032070
           C         -3.776086205474    -1.872805557904     0.555183174111    12.000000000000
           H         -2.408062205474    -0.460629557904    -0.314971825889     1.007825032070
           H         -2.408687205474    -0.460092557904     1.425457174111     1.007825032070
           H         -3.863538205474    -2.507979557904    -0.321811825889     1.007825032070
           H         -4.620915205474    -1.191105557904     0.554892174111     1.007825032070
           H         -3.863958205474    -2.507834557904     1.432296174111     1.007825032070
           C          2.338632794526     2.755386442096    -1.021229825889    12.000000000000
           H          2.657226794526     3.072269442096    -0.038574825889     1.007825032070
           H          2.044313794526     3.608622442096    -1.612194825889     1.007825032070
           H          3.148215794526     2.226942442096    -1.503751825889     1.007825032070

  Charge       = 0
  Multiplicity = 1
  Basis Set: 6-31G*
  Basis Set:

    Orbital Energies (a.u.)
    -----------------------

    Doubly Occupied:

       1A    -20.603162     2A    -20.544587     3A    -11.371246
       4A    -11.280547     5A    -11.234038     6A    -11.218739
       7A    -11.218611     8A    -11.217244     9A    -11.210988
      10A     -1.468726    11A     -1.362078    12A     -1.097917
      13A     -1.039261    14A     -0.986921    15A     -0.932843
      16A     -0.854507    17A     -0.793575    18A     -0.759195
      19A     -0.701471    20A     -0.682579    21A     -0.671020
      22A     -0.645920    23A     -0.613739    24A     -0.600490
      25A     -0.578938    26A     -0.559493    27A     -0.553262
      28A     -0.526491    29A     -0.520504    30A     -0.512402
      31A     -0.493723    32A     -0.467909    33A     -0.460244
      34A     -0.456479    35A     -0.452433    36A     -0.436420

  @DF-RHF Final Energy:  -422.96838561352229

   => Energetics <=

    Nuclear Repulsion Energy =            461.6940624644468016
    One-Electron Energy =               -1491.0694134514667439
    Two-Electron Energy =                 606.4069653734991334
    DFT Exchange-Correlation Energy =       0.0000000000000000
    Empirical Dispersion Energy =           0.0000000000000000
    PCM Polarization Energy =               0.0000000000000000
    EFP Energy =                            0.0000000000000000
    Total Energy =                       -422.9683856135206952

  Mulliken Charges: (a.u.)
   Center  Symbol    Alpha    Beta     Spin     Total
       1     O     4.28619  4.28619  0.00000 -0.57238
       2     C     2.60260  2.60260  0.00000  0.79480
       3     C     3.21795  3.21795  0.00000 -0.43590
       4     O     4.30735  4.30735  0.00000 -0.61469
       5     C     3.15284  3.15284  0.00000 -0.30568
       6     H     0.39623  0.39623  0.00000  0.20754
       7     H     0.40079  0.40079  0.00000  0.19843
       8     C     3.15375  3.15375  0.00000 -0.30751
       9     H     0.41120  0.41120  0.00000  0.17760
      10     H     0.40937  0.40937  0.00000  0.18126
      11     C     3.16208  3.16208  0.00000 -0.32417
      12     H     0.42211  0.42211  0.00000  0.15579
      13     H     0.41809  0.41809  0.00000  0.16383
      14     C     3.23753  3.23753  0.00000 -0.47506
      15     H     0.41914  0.41914  0.00000  0.16172
      16     H     0.42204  0.42204  0.00000  0.15592
      17     H     0.42138  0.42138  0.00000  0.15724
      18     H     0.41908  0.41908  0.00000  0.16183
      19     H     0.42114  0.42114  0.00000  0.15772
      20     C     3.09235  3.09235  0.00000 -0.18471
      21     H     0.40911  0.40911  0.00000  0.18178
      22     H     0.40854  0.40854  0.00000  0.18291
      23     H     0.40914  0.40914  0.00000  0.18172

   Total alpha = 36.00000, Total beta = 36.00000, Total charge =  0.00000
