                              Psi4 1.0.54 Driver

  ==> Input File <==

--------------------------------------------------------------------------
set {
	reference rhf
	basis cc-pvtz
}

set_num_threads( 4 )
memory 2 gb

molecule MOL {
0 1

H	 1.183963	 -0.594819	 1.377689
O	 1.347060	 -0.504033	 0.455947
C	 0.706474	 0.636793	 -0.025501
C	 -0.793473	 0.591216	 0.050087
H	 1.008250	 0.744151	 -1.060734
H	 1.057597	 1.526845	 0.493363
C	 -1.534243	 -0.493009	 -0.013340
H	 -1.266611	 1.552628	 0.164437
H	 -1.101195	 -1.466332	 -0.144046
H	 -2.604242	 -0.437780	 0.050785

	symmetry c1
}
set optking {
	frozen_dihedral = ("
		5 3 4 7
	")
}

ee,wfn = optimize('scf', return_wfn=True)
oeprop( wfn, 'DIPOLE', 'QUADRUPOLE', 'MULLIKEN_CHARGES')
f=open( 'psi4out.xyz', 'w' )
f.write( "10  " )
f.write( str(ee) + "\n" )
f.write( MOL.save_string_xyz() )
f.close()
--------------------------------------------------------------------------

    Molecular point group: c1
  Charge       = 0
  Multiplicity = 1
  Basis Set: CC-PVTZ
  Basis Set:
  @DF-RHF Final Energy:  -191.99681693727518
    Total Energy =                       -191.9968169372751845
    Molecular point group: c1
  Basis Set: CC-PVTZ
  Basis Set:
  Basis Set: CC-PVTZ
  Basis Set:
  @DF-RHF Final Energy:  -191.99729617851074
    Total Energy =                       -191.9972961785106520
  Basis Set: CC-PVTZ
  Basis Set:
  Basis Set: CC-PVTZ
  Basis Set:
  @DF-RHF Final Energy:  -191.99735505108225
    Total Energy =                       -191.9973550510822236
  Basis Set: CC-PVTZ
  Basis Set:
  Basis Set: CC-PVTZ
  Basis Set:
  @DF-RHF Final Energy:  -191.99735857928601
    Total Energy =                       -191.9973585792858728
  Basis Set: CC-PVTZ
  Basis Set:
  Charge       = 0
  Multiplicity = 1
  Basis Set: CC-PVTZ
  Basis Set:

    Orbital Energies (a.u.)
    -----------------------

    Doubly Occupied:

       1A    -20.552159     2A    -11.276902     3A    -11.230220
       4A    -11.218730     5A     -1.371710     6A     -1.062219
       7A     -0.929751     8A     -0.774453     9A     -0.686390
      10A     -0.665363    11A     -0.615097    12A     -0.577130
      13A     -0.548295    14A     -0.487100    15A     -0.453320
      16A     -0.370268

  @DF-RHF Final Energy:  -191.99735905639807

   => Energetics <=

    Nuclear Repulsion Energy =            119.3746545098901066
    One-Electron Energy =                -497.1058077876569996
    Two-Electron Energy =                 185.7337942213687541
    DFT Exchange-Correlation Energy =       0.0000000000000000
    Empirical Dispersion Energy =           0.0000000000000000
    PCM Polarization Energy =               0.0000000000000000
    EFP Energy =                            0.0000000000000000
    Total Energy =                       -191.9973590563981531
    Molecular point group: c1
  Basis Set: CC-PVTZ
  Basis Set:

  -Total Gradient:
     Atom            X                  Y                   Z
    ------   -----------------  -----------------  -----------------
       1       -0.000006347174     0.000027145365    -0.000029834915
       2        0.000029212287    -0.000032924192     0.000030232884
       3       -0.000359721711     0.004297801477    -0.001418724760
       4        0.000406823632    -0.000988600318     0.004812783781
       5        0.000204739227    -0.003391580256    -0.000171693835
       6       -0.000025040647    -0.000042276548    -0.000007765324
       7       -0.000251703375     0.000112974009    -0.003182783642
       8       -0.000000139309    -0.000012026891    -0.000000201317
       9       -0.000004100347     0.000023694108    -0.000006959920
      10        0.000006277416     0.000005793248    -0.000025052951

  **** Optimization is complete! (in 5 steps) ****
    Final optimized geometry and variables:
    Molecular point group: c1

    Geometry (in Angstrom), charge = 0, multiplicity = 1:

    H            1.120255400040    -0.648755326608     1.178889121602
    O            1.353014941172    -0.499604462085     0.279824731704
    C            0.680450451766     0.629811561531    -0.197267279870
    C           -0.820135720173     0.538266066326    -0.085801847220
    H            0.957411014259     0.704228893660    -1.241751384425
    H            1.030075455630     1.528890273361     0.302325214373
    C           -1.509170053836    -0.581983492657    -0.090445729616
    H           -1.341426605356     1.480358852946    -0.057180605921
    H           -1.025622621373    -1.539548231552    -0.136276974388
    H           -2.581383772200    -0.574611554842    -0.039649517583

  Mulliken Charges: (a.u.)
   Center  Symbol    Alpha    Beta     Spin     Total
       1     H     0.39223  0.39223  0.00000  0.21553
       2     O     4.20036  4.20036  0.00000 -0.40072
       3     C     2.95283  2.95283  0.00000  0.09435
       4     C     3.09498  3.09498  0.00000 -0.18997
       5     H     0.45166  0.45166  0.00000  0.09668
       6     H     0.46494  0.46494  0.00000  0.07013
       7     C     3.17251  3.17251  0.00000 -0.34501
       8     H     0.42232  0.42232  0.00000  0.15536
       9     H     0.42069  0.42069  0.00000  0.15862
      10     H     0.42749  0.42749  0.00000  0.14502

   Total alpha = 16.00000, Total beta = 16.00000, Total charge = -0.00000

*** Psi4 exiting successfully. Buy a developer a beer!
