  ==> Input File <==

--------------------------------------------------------------------------
set {
	reference rhf
	basis 6-31G*
}

set_num_threads( 4 )
memory 2 gb

molecule MOL {
0 1

H	 -2.365627	 -1.312883	 -0.379134
C	 -1.358347	 -1.274295	 0.019669
C	 -0.681945	 0.000119	 -0.470601
H	 -0.826096	 -2.155117	 -0.321105
H	 -1.409554	 -1.292283	 1.100109
C	 -1.357790	 1.274691	 0.020220
N	 0.739525	 -0.000142	 0.006128
H	 -0.594190	 0.000341	 -1.545128
H	 -2.364980	 1.313977	 -0.378631
H	 -0.825080	 2.155361	 -0.320114
H	 -1.409060	 1.292170	 1.100671
O	 1.003598	 0.679273	 0.949124
O	 1.517352	 -0.681998	 -0.590076

	symmetry c1
}
set optking {
	frozen_dihedral = ("
		12 7 3 8
	")
}

ee = optimize('scf')
oeprop('DIPOLE', 'QUADRUPOLE', 'MULLIKEN_CHARGES')
f=open( 'psi4out.xyz', 'w' )
f.write( "13  " )
f.write( str(ee) + "\n" )
f.write( MOL.save_string_xyz() )
f.close()
--------------------------------------------------------------------------

    Molecular point group: c1
  Charge       = 0
  Multiplicity = 1
  Basis Set: 6-31G*
  Basis Set:
  @DF-RHF Final Energy:  -321.73784354464340
    Total Energy =                       -321.7378435446433969
    Molecular point group: c1
  Basis Set: 6-31G*
  Basis Set:
  Basis Set: 6-31G*
  Basis Set:
  @DF-RHF Final Energy:  -321.73611167531323
    Total Energy =                       -321.7361116753133956
  Basis Set: 6-31G*
  Basis Set:
  Basis Set: 6-31G*
  Basis Set:
  @DF-RHF Final Energy:  -321.73403631892279
    Total Energy =                       -321.7340363189226764
  Basis Set: 6-31G*
  Basis Set:
  Basis Set: 6-31G*
  Basis Set:
  @DF-RHF Final Energy:  -321.73845752854942
    Total Energy =                       -321.7384575285491906
  Basis Set: 6-31G*
  Basis Set:
  Basis Set: 6-31G*
  Basis Set:
  @DF-RHF Final Energy:  -321.73853317909845
    Total Energy =                       -321.7385331790986243
  Basis Set: 6-31G*
  Basis Set:
  Basis Set: 6-31G*
  Basis Set:
  @DF-RHF Final Energy:  -321.73856649569399
    Total Energy =                       -321.7385664956939308
  Basis Set: 6-31G*
  Basis Set:
  Basis Set: 6-31G*
  Basis Set:
  @DF-RHF Final Energy:  -321.73857000420395
    Total Energy =                       -321.7385700042037797
  Basis Set: 6-31G*
  Basis Set:
  Charge       = 0
  Multiplicity = 1
  Basis Set: 6-31G*
  Basis Set:

    Orbital Energies (a.u.)
    -----------------------

    Doubly Occupied:

       1A    -20.601665     2A    -20.597152     3A    -15.843529
       4A    -11.306873     5A    -11.247963     6A    -11.241146
       7A     -1.628924     8A     -1.414251     9A     -1.143181
      10A     -0.972375    11A     -0.958235    12A     -0.813442
      13A     -0.755559    14A     -0.726116    15A     -0.721790
      16A     -0.646342    17A     -0.593353    18A     -0.587618
      19A     -0.572002    20A     -0.528692    21A     -0.522102
      22A     -0.481635    23A     -0.470536    24A     -0.446765

  @DF-RHF Final Energy:  -321.73857029576072

   => Energetics <=

    Nuclear Repulsion Energy =            256.8158999254823129
    One-Electron Energy =                -947.4664483386695792
    Two-Electron Energy =                 368.9119781174266564
    DFT Exchange-Correlation Energy =       0.0000000000000000
    Empirical Dispersion Energy =           0.0000000000000000
    PCM Polarization Energy =               0.0000000000000000
    EFP Energy =                            0.0000000000000000
    Total Energy =                       -321.7385702957606100
    Molecular point group: c1
  Basis Set: 6-31G*
  Basis Set:

  -Total Gradient:
     Atom            X                  Y                   Z
    ------   -----------------  -----------------  -----------------
       1        0.000004354598     0.000008898426    -0.000001238343
       2       -0.000007188054     0.000002790761     0.000003989876
       3        0.000022853765    -0.000650223973    -0.000195098981
       4        0.000006274884     0.000002300943    -0.000006038764
       5        0.000002163246     0.000006020147     0.000002063572
       6        0.000005836950    -0.000015370449    -0.000001122513
       7       -0.000261752794    -0.000635435706     0.000625512888
       8        0.000008584806     0.000733957324    -0.000007434014
       9        0.000003621348    -0.000005575850     0.000001362911
      10       -0.000002130688    -0.000003359715    -0.000001678730
      11       -0.000002497247     0.000006291249     0.000009436816
      12        0.000203570156     0.000530440787    -0.000467503355
      13        0.000016309033     0.000019266058     0.000037748633

  **** Optimization is complete! (in 8 steps) ****
    Final optimized geometry and variables:
    Molecular point group: c1

    Geometry (in Angstrom), charge = 0, multiplicity = 1:

    H           -2.365324135261    -1.289871160064    -0.348734839460
    C           -1.347486197582    -1.256453248556     0.021617090661
    C           -0.683496825885     0.031979431693    -0.459239562242
    H           -0.817002895218    -2.125263070616    -0.344362378476
    H           -1.376768217450    -1.289413480015     1.105122544102
    C           -1.383707702355     1.293856247097     0.014618820090
    N            0.743785513089    -0.000745706740     0.008756895059
    H           -0.592968035998     0.022929730997    -1.535272683549
    H           -2.377782130599     1.316060175015    -0.418569661281
    H           -0.854052560580     2.183281490804    -0.302154223814
    H           -1.473447832907     1.315047162907     1.092032368564
    O            1.053770698410     0.669858909086     0.943675626793
    O            1.478001802080    -0.729625202565    -0.586609438952

  Mulliken Charges: (a.u.)
   Center  Symbol    Alpha    Beta     Spin     Total
       1     H     0.40637  0.40637  0.00000  0.18726
       2     C     3.25020  3.25020  0.00000 -0.50040
       3     C     3.02328  3.02328  0.00000 -0.04657
       4     H     0.39410  0.39410  0.00000  0.21180
       5     H     0.40390  0.40390  0.00000  0.19221
       6     C     3.24345  3.24345  0.00000 -0.48690
       7     N     3.21824  3.21824  0.00000  0.56352
       8     H     0.38673  0.38673  0.00000  0.22653
       9     H     0.41212  0.41212  0.00000  0.17577
      10     H     0.40268  0.40268  0.00000  0.19463
      11     H     0.40007  0.40007  0.00000  0.19986
      12     O     4.22808  4.22808  0.00000 -0.45615
      13     O     4.23078  4.23078  0.00000 -0.46155

   Total alpha = 24.00000, Total beta = 24.00000, Total charge = -0.00000
