  ==> Input File <==

--------------------------------------------------------------------------
set {
	reference rhf
	basis 6-31G*
}

set_num_threads( 4 )
memory 2 gb

molecule MOL {
0 1

H	 1.148083	 -1.049780	 0.784252
O	 1.319262	 -0.618148	 -0.041729
C	 0.709265	 0.639550	 -0.033818
C	 1.662212	 1.788929	 -0.232314
H	 0.221659	 0.733081	 0.929871
H	 -0.076668	 0.693212	 -0.786450
C	 2.976548	 1.694188	 -0.249851
H	 1.192888	 2.751672	 -0.364012
H	 3.478106	 0.754750	 -0.103817
H	 3.597802	 2.559171	 -0.397581

	symmetry c1
}
set optking {
	frozen_dihedral = ("
		5 3 2 1
	")
}

ee = optimize('scf')
oeprop('DIPOLE', 'QUADRUPOLE', 'MULLIKEN_CHARGES')
f=open( 'psi4out.xyz', 'w' )
f.write( "10  " )
f.write( str(ee) + "\n" )
f.write( MOL.save_string_xyz() )
f.close()
--------------------------------------------------------------------------

    Molecular point group: c1
  Charge       = 0
  Multiplicity = 1
  Basis Set: 6-31G*
  Basis Set:
  @DF-RHF Final Energy:  -191.91302637223095
    Total Energy =                       -191.9130263722310019
    Molecular point group: c1
  Basis Set: 6-31G*
  Basis Set:
  Basis Set: 6-31G*
  Basis Set:
  @DF-RHF Final Energy:  -191.91417139633973
    Total Energy =                       -191.9141713963397535
  Basis Set: 6-31G*
  Basis Set:
  Basis Set: 6-31G*
  Basis Set:
  @DF-RHF Final Energy:  -191.91456593838939
    Total Energy =                       -191.9145659383893872
  Basis Set: 6-31G*
  Basis Set:
  Basis Set: 6-31G*
  Basis Set:
  @DF-RHF Final Energy:  -191.91457482983145
    Total Energy =                       -191.9145748298313947
  Basis Set: 6-31G*
  Basis Set:
  Basis Set: 6-31G*
  Basis Set:
  @DF-RHF Final Energy:  -191.91457590547043
    Total Energy =                       -191.9145759054704286
  Basis Set: 6-31G*
  Basis Set:
  Charge       = 0
  Multiplicity = 1
  Basis Set: 6-31G*
  Basis Set:

    Orbital Energies (a.u.)
    -----------------------

    Doubly Occupied:

       1A    -20.558891     2A    -11.278787     3A    -11.223526
       4A    -11.210121     5A     -1.367005     6A     -1.053051
       7A     -0.923731     8A     -0.756354     9A     -0.704362
      10A     -0.648233    11A     -0.609900    12A     -0.577655
      13A     -0.508568    14A     -0.503209    15A     -0.445898
      16A     -0.356225

  @DF-RHF Final Energy:  -191.91457595453232

   => Energetics <=

    Nuclear Repulsion Energy =            119.2591015149021132
    One-Electron Energy =                -496.8963196620661051
    Two-Electron Energy =                 185.7226421926316959
    DFT Exchange-Correlation Energy =       0.0000000000000000
    Empirical Dispersion Energy =           0.0000000000000000
    PCM Polarization Energy =               0.0000000000000000
    EFP Energy =                            0.0000000000000000
    Total Energy =                       -191.9145759545322960
    Molecular point group: c1
  Basis Set: 6-31G*
  Basis Set:

  -Total Gradient:
     Atom            X                  Y                   Z
    ------   -----------------  -----------------  -----------------
       1       -0.000462387809    -0.000255783124    -0.000249127261
       2        0.000687034632     0.000360969077     0.000373526051
       3       -0.000629406903    -0.000333092766    -0.000314713499
       4       -0.000016659197     0.000001116775    -0.000036346156
       5        0.000399397408     0.000211783906     0.000218613390
       6        0.000008768559     0.000013399011    -0.000002584355
       7        0.000004508617    -0.000004132875    -0.000025012765
       8        0.000003812228     0.000000785720     0.000011055959
       9        0.000001753079     0.000002488553     0.000009566587
      10        0.000003179385     0.000002465727     0.000015022049

  **** Optimization is complete! (in 6 steps) ****
    Final optimized geometry and variables:
    Molecular point group: c1

    Geometry (in Angstrom), charge = 0, multiplicity = 1:

    H           -0.475760448439    -1.846353475991     0.911110707320
    O           -0.285026600314    -1.395191123779     0.103669064885
    C           -0.939660423229    -0.155147985055     0.076465683453
    C            0.018107312523     0.991149972176    -0.096549211521
    H           -1.514194319109     0.001417882652     0.987649309439
    H           -1.653212452296    -0.152236972637    -0.743705476303
    C            1.328721061695     0.885279979582    -0.167086027406
    H           -0.450233911806     1.960801916731    -0.170236359366
    H            1.817642073484    -0.068668835415    -0.106135562619
    H            1.951259005950     1.752725590417    -0.295390077133

  Mulliken Charges: (a.u.)
   Center  Symbol    Alpha    Beta     Spin     Total
       1     H     0.27742  0.27742  0.00000  0.44516
       2     O     4.36987  4.36987  0.00000 -0.73973
       3     C     3.00129  3.00129  0.00000 -0.00258
       4     C     3.08908  3.08908  0.00000 -0.17817
       5     H     0.42669  0.42669  0.00000  0.14662
       6     H     0.41700  0.41700  0.00000  0.16600
       7     C     3.19129  3.19129  0.00000 -0.38257
       8     H     0.41299  0.41299  0.00000  0.17402
       9     H     0.40014  0.40014  0.00000  0.19972
      10     H     0.41423  0.41423  0.00000  0.17154

   Total alpha = 16.00000, Total beta = 16.00000, Total charge = -0.00000
