  ==> Input File <==

--------------------------------------------------------------------------
set {
	reference rhf
	basis 6-31G*
}

set_num_threads( 4 )
memory 2 gb

molecule MOL {
0 1

O	 1.807713	 1.250445	 -0.338081
C	 1.705091	 0.115954	 0.001797
C	 0.436059	 -0.546325	 0.480138
O	 2.721346	 -0.737485	 -0.000216
C	 -0.766969	 0.391741	 0.500140
H	 0.255735	 -1.404299	 -0.161796
H	 0.634605	 -0.953157	 1.467957
C	 -2.038210	 -0.304995	 0.987548
H	 -0.924648	 0.792313	 -0.496288
H	 -0.545916	 1.243314	 1.135961
C	 -3.255235	 0.621318	 1.013101
H	 -2.252498	 -1.160086	 0.348098
H	 -1.872936	 -0.706557	 1.986204
C	 -4.524841	 -0.075079	 1.501345
H	 -3.423238	 1.021301	 0.015640
H	 -3.043046	 1.475551	 1.652162
H	 -4.783024	 -0.914114	 0.861364
H	 -5.369269	 0.607082	 1.508410
H	 -4.399627	 -0.456682	 2.510806
C	 4.024888	 -0.184556	 -0.001949
H	 4.179030	 0.422472	 -0.882452
H	 4.701782	 -1.024608	 -0.003642
H	 4.181981	 0.421185	 0.878906

	symmetry c1
}
set optking {
	frozen_dihedral = ("
		1 2 4 20
	")
}

ee = optimize('scf')
oeprop('DIPOLE', 'QUADRUPOLE', 'MULLIKEN_CHARGES')
f=open( 'psi4out.xyz', 'w' )
f.write( "23  " )
f.write( str(ee) + "\n" )
f.write( MOL.save_string_xyz() )
f.close()
--------------------------------------------------------------------------

    Molecular point group: c1
  Charge       = 0
  Multiplicity = 1
  Basis Set: 6-31G*
  Basis Set:
  @DF-RHF Final Energy:  -422.97382998574955
    Total Energy =                       -422.9738299857489210
    Molecular point group: c1
  Basis Set: 6-31G*
  Basis Set:
  Basis Set: 6-31G*
  Basis Set:
  @DF-RHF Final Energy:  -422.97072051727844
    Total Energy =                       -422.9707205172785507
  Basis Set: 6-31G*
  Basis Set:
  Basis Set: 6-31G*
  Basis Set:
  @DF-RHF Final Energy:  -422.97404620343889
    Total Energy =                       -422.9740462034395705
  Basis Set: 6-31G*
  Basis Set:
  Basis Set: 6-31G*
  Basis Set:
  @DF-RHF Final Energy:  -422.97408982375811
    Total Energy =                       -422.9740898237580495
  Basis Set: 6-31G*
  Basis Set:
  Basis Set: 6-31G*
  Basis Set:
  @DF-RHF Final Energy:  -422.97409673122701
    Total Energy =                       -422.9740967312272915
  Basis Set: 6-31G*
  Basis Set:
  Basis Set: 6-31G*
  Basis Set:
  @DF-RHF Final Energy:  -422.97409800538856
    Total Energy =                       -422.9740980053881003
  Basis Set: 6-31G*
  Basis Set:
  Charge       = 0
  Multiplicity = 1
  Basis Set: 6-31G*
  Basis Set:

    Orbital Energies (a.u.)
    -----------------------

    Doubly Occupied:

       1A    -20.601615     2A    -20.546494     3A    -11.372569
       4A    -11.281900     5A    -11.235653     6A    -11.219333
       7A    -11.217959     8A    -11.216520     9A    -11.209692
      10A     -1.467881    11A     -1.363123    12A     -1.093221
      13A     -1.043430    14A     -0.986603    15A     -0.932695
      16A     -0.844057    17A     -0.795149    18A     -0.767002
      19A     -0.696545    20A     -0.682844    21A     -0.671499
      22A     -0.651533    23A     -0.609540    24A     -0.600213
      25A     -0.573361    26A     -0.561818    27A     -0.554355
      28A     -0.526015    29A     -0.518768    30A     -0.507762
      31A     -0.484508    32A     -0.469881    33A     -0.466322
      34A     -0.462369    35A     -0.454459    36A     -0.434753

  @DF-RHF Final Energy:  -422.97409793296185

   => Energetics <=

    Nuclear Repulsion Energy =            451.9914036040783003
    One-Electron Energy =               -1471.6881186495299971
    Two-Electron Energy =                 596.7226171124895018
    DFT Exchange-Correlation Energy =       0.0000000000000000
    Empirical Dispersion Energy =           0.0000000000000000
    PCM Polarization Energy =               0.0000000000000000
    EFP Energy =                            0.0000000000000000
    Total Energy =                       -422.9740979329621950
    Molecular point group: c1
  Basis Set: 6-31G*
  Basis Set:

  -Total Gradient:
     Atom            X                  Y                   Z
    ------   -----------------  -----------------  -----------------
       1       -0.001852307790    -0.001365787765    -0.006273466802
       2        0.002826540597     0.002013917377     0.011893506386
       3       -0.000029094076    -0.000071391456    -0.000157034843
       4       -0.001215278853    -0.000342264482    -0.010553053022
       5        0.000016051790     0.000022416680     0.000053368242
       6       -0.000028464473     0.000064657052     0.000000767600
       7        0.000034794285    -0.000036299704     0.000035786401
       8        0.000003555183    -0.000008532269    -0.000008799373
       9       -0.000011680538     0.000006434505    -0.000023764927
      10        0.000001841846    -0.000009454079    -0.000012508038
      11        0.000004595460     0.000004014334    -0.000007208405
      12        0.000000201225     0.000005882725    -0.000006499051
      13       -0.000002129059    -0.000008979547    -0.000000116267
      14        0.000006974837     0.000000067085     0.000015749868
      15       -0.000001420507    -0.000006124522    -0.000002874276
      16       -0.000000225500     0.000004176956    -0.000005952148
      17        0.000001176235     0.000004456484    -0.000002476683
      18        0.000003159223     0.000002160343     0.000003571574
      19       -0.000002087719    -0.000004982258     0.000000759296
      20        0.000282940164    -0.000270229581     0.004989511258
      21        0.000034524178     0.000003706278     0.000011779776
      22       -0.000018446958     0.000002601023     0.000014341381
      23       -0.000055219556    -0.000010445180     0.000034612057

  **** Optimization is complete! (in 7 steps) ****
    Final optimized geometry and variables:
    Molecular point group: c1

    Geometry (in Angstrom), charge = 0, multiplicity = 1:

    O            1.775194441006     1.222675392211    -0.687521124920
    C            1.664160512573     0.076043262997    -0.396800454868
    C            0.390091608371    -0.594525429504     0.054778660641
    O            2.661761904665    -0.797938575843    -0.492063471928
    C           -0.819448508677     0.335174751340     0.054052830313
    H            0.228974698047    -1.454083040315    -0.589537616478
    H            0.573263554867    -0.999933065411     1.046817213510
    C           -2.093333665737    -0.368932238563     0.523578979002
    H           -0.964653108739     0.731824663213    -0.946130842714
    H           -0.613830191500     1.189950273066     0.690508850112
    C           -3.316351182297     0.549736626906     0.529811289330
    H           -2.292761032436    -1.226300541220    -0.117545799478
    H           -1.940269129206    -0.767904138430     1.525299407397
    C           -4.588265498429    -0.153471231295     1.002065357611
    H           -3.472912564612     0.946159008442    -0.470894865673
    H           -3.118503696564     1.406854409869     1.169575599011
    H           -4.832393939620    -0.995510289441     0.360468877631
    H           -5.436909086328     0.523404060817     0.995952341708
    H           -4.474716220625    -0.532115499333     2.014014872124
    C            3.976050803502    -0.272223897700    -0.535295594585
    H            4.133802031759     0.296351899830    -1.440021315098
    H            4.637017771846    -1.124525448687    -0.510042539962
    H            4.155305026603     0.363428291924     0.320911427704

  Mulliken Charges: (a.u.)
   Center  Symbol    Alpha    Beta     Spin     Total
       1     O     4.28312  4.28312  0.00000 -0.56624
       2     C     2.60478  2.60478  0.00000  0.79043
       3     C     3.20908  3.20908  0.00000 -0.41816
       4     O     4.30845  4.30845  0.00000 -0.61690
       5     C     3.15255  3.15255  0.00000 -0.30511
       6     H     0.39944  0.39944  0.00000  0.20111
       7     H     0.40214  0.40214  0.00000  0.19572
       8     C     3.15330  3.15330  0.00000 -0.30659
       9     H     0.41204  0.41204  0.00000  0.17592
      10     H     0.41135  0.41135  0.00000  0.17730
      11     C     3.15155  3.15155  0.00000 -0.30310
      12     H     0.42383  0.42383  0.00000  0.15234
      13     H     0.42422  0.42422  0.00000  0.15156
      14     C     3.23958  3.23958  0.00000 -0.47917
      15     H     0.42126  0.42126  0.00000  0.15747
      16     H     0.42137  0.42137  0.00000  0.15726
      17     H     0.42176  0.42176  0.00000  0.15647
      18     H     0.41846  0.41846  0.00000  0.16308
      19     H     0.42188  0.42188  0.00000  0.15623
      20     C     3.09269  3.09269  0.00000 -0.18538
      21     H     0.40636  0.40636  0.00000  0.18728
      22     H     0.40799  0.40799  0.00000  0.18402
      23     H     0.41279  0.41279  0.00000  0.17443

   Total alpha = 36.00000, Total beta = 36.00000, Total charge = -0.00000
