  ==> Input File <==

--------------------------------------------------------------------------
set {
	reference rhf
	basis 6-31G*
}

set_num_threads( 4 )
memory 2 gb

molecule MOL {
0 1

H	 -2.273092	 1.173159	 0.000295
O	 -1.438904	 1.618192	 0.000114
C	 -0.409536	 0.736003	 0.000030
C	 0.580554	 0.935972	 -0.949144
C	 -0.335594	 -0.323451	 0.901712
H	 0.484411	 1.765226	 -1.625225
C	 1.661097	 0.076740	 -1.009622
C	 0.761988	 -1.171561	 0.817968
C	 -1.416954	 -0.540015	 1.936491
H	 2.425905	 0.237362	 -1.748380
C	 1.757959	 -0.984539	 -0.124026
H	 0.833849	 -1.994843	 1.507451
H	 -2.388997	 -0.712608	 1.479012
H	 -1.194047	 -1.405589	 2.547287
H	 -1.512852	 0.310258	 2.608679
H	 2.595560	 -1.656788	 -0.165302

	symmetry c1
}
set optking {
	frozen_dihedral = ("
		4 3 2 1
	")
}

ee = optimize('scf')
oeprop('DIPOLE', 'QUADRUPOLE', 'MULLIKEN_CHARGES')
f=open( 'psi4out.xyz', 'w' )
f.write( "16  " )
f.write( str(ee) + "\n" )
f.write( MOL.save_string_xyz() )
f.close()
--------------------------------------------------------------------------

    Molecular point group: c1
  Charge       = 0
  Multiplicity = 1
  Basis Set: 6-31G*
  Basis Set:
  @DF-RHF Final Energy:  -344.59165060215133
    Total Energy =                       -344.5916506021511623
    Molecular point group: c1
  Basis Set: 6-31G*
  Basis Set:
  Basis Set: 6-31G*
  Basis Set:
  @DF-RHF Final Energy:  -344.59205448444152
    Total Energy =                       -344.5920544844420306
  Basis Set: 6-31G*
  Basis Set:
  Basis Set: 6-31G*
  Basis Set:
  @DF-RHF Final Energy:  -344.59211658517825
    Total Energy =                       -344.5921165851784735
  Basis Set: 6-31G*
  Basis Set:
  Basis Set: 6-31G*
  Basis Set:
  @DF-RHF Final Energy:  -344.59212912393002
    Total Energy =                       -344.5921291239302491
  Basis Set: 6-31G*
  Basis Set:
  Basis Set: 6-31G*
  Basis Set:
  @DF-RHF Final Energy:  -344.59213070803713
    Total Energy =                       -344.5921307080371889
  Basis Set: 6-31G*
  Basis Set:
  Charge       = 0
  Multiplicity = 1
  Basis Set: 6-31G*
  Basis Set:

    Orbital Energies (a.u.)
    -----------------------

    Doubly Occupied:

       1A    -20.580512     2A    -11.286641     3A    -11.235238
       4A    -11.229892     5A    -11.229290     6A    -11.227285
       7A    -11.223215     8A    -11.221966     9A     -1.396346
      10A     -1.148750    11A     -1.046626    12A     -1.003603
      13A     -0.937303    14A     -0.824802    15A     -0.813098
      16A     -0.726684    17A     -0.672300    18A     -0.647059
      19A     -0.619324    20A     -0.593418    21A     -0.572449
      22A     -0.569605    23A     -0.549733    24A     -0.528138
      25A     -0.501170    26A     -0.483040    27A     -0.467153
      28A     -0.328677    29A     -0.312763

  @DF-RHF Final Energy:  -344.59213084163520

   => Energetics <=

    Nuclear Repulsion Energy =            349.9153336935808625
    One-Electron Energy =               -1161.0627686122011255
    Two-Electron Energy =                 466.5553040769849531
    DFT Exchange-Correlation Energy =       0.0000000000000000
    Empirical Dispersion Energy =           0.0000000000000000
    PCM Polarization Energy =               0.0000000000000000
    EFP Energy =                            0.0000000000000000
    Total Energy =                       -344.5921308416353668
    Molecular point group: c1
  Basis Set: 6-31G*
  Basis Set:

  -Total Gradient:
     Atom            X                  Y                   Z
    ------   -----------------  -----------------  -----------------
       1       -0.000022897430     0.000066136794    -0.001698586264
       2       -0.000284635310    -0.000389552213     0.001733673853
       3        0.000952230299     0.000986768746     0.000775274378
       4       -0.000648005602    -0.000649201648    -0.000814408619
       5       -0.000009243063     0.000000033509     0.000008216537
       6       -0.000000909070    -0.000007963007     0.000004768597
       7        0.000009879462    -0.000018982925     0.000004724151
       8       -0.000019020060     0.000028530056     0.000019443835
       9       -0.000007177810    -0.000004305414    -0.000024115528
      10        0.000004996406    -0.000000990023    -0.000002610831
      11        0.000010618522    -0.000000824181    -0.000019800110
      12       -0.000000110365    -0.000005302401     0.000003076802
      13        0.000006883732     0.000004424941    -0.000002219707
      14        0.000004857411    -0.000004145663     0.000012905492
      15        0.000007540139    -0.000005033972    -0.000000115556
      16       -0.000005007257     0.000000407403    -0.000000227031

  **** Optimization is complete! (in 6 steps) ****
    Final optimized geometry and variables:
    Molecular point group: c1

    Geometry (in Angstrom), charge = 0, multiplicity = 1:

    H           -2.334963115558     1.101064933499    -0.173469192969
    O           -1.501813222923     1.552058986345    -0.170317841227
    C           -0.470106979487     0.657448770609    -0.220346619970
    C            0.517828257694     0.862270202802    -1.166157927803
    C           -0.402961051354    -0.408771479158     0.673866419169
    H            0.424654686300     1.697007904183    -1.835965831307
    C            1.602024012472     0.002954706659    -1.229720181694
    C            0.686607001310    -1.264140435108     0.582844676205
    C           -1.486395048085    -0.610791962411     1.706335896224
    H            2.370985024294     0.167284068737    -1.963214169697
    C            1.686605223288    -1.066978687874    -0.356289652278
    H            0.756520219298    -2.093806754794     1.264739070951
    H           -2.434712026521    -0.889384678666     1.249853585020
    H           -1.219132909667    -1.402070307054     2.395872538770
    H           -1.655453245978     0.294918982542     2.279100980021
    H            2.522540516964    -1.741527943416    -0.401122651327

  Mulliken Charges: (a.u.)
   Center  Symbol    Alpha    Beta     Spin     Total
       1     H     0.27122  0.27122  0.00000  0.45756
       2     O     4.38507  4.38507  0.00000 -0.77015
       3     C     2.82834  2.82834  0.00000  0.34332
       4     C     3.11453  3.11453  0.00000 -0.22907
       5     C     3.00198  3.00198  0.00000 -0.00395
       6     H     0.39250  0.39250  0.00000  0.21500
       7     C     3.09947  3.09947  0.00000 -0.19895
       8     C     3.11058  3.11058  0.00000 -0.22115
       9     C     3.25909  3.25909  0.00000 -0.51817
      10     H     0.39892  0.39892  0.00000  0.20216
      11     C     3.10370  3.10370  0.00000 -0.20740
      12     H     0.40126  0.40126  0.00000  0.19747
      13     H     0.41991  0.41991  0.00000  0.16018
      14     H     0.40975  0.40975  0.00000  0.18050
      15     H     0.40321  0.40321  0.00000  0.19358
      16     H     0.40047  0.40047  0.00000  0.19907

   Total alpha = 29.00000, Total beta = 29.00000, Total charge = -0.00000
