                              Psi4 1.0.54 Driver

  ==> Input File <==

--------------------------------------------------------------------------
set {
	reference rhf
	basis cc-pvtz
}

set_num_threads( 4 )
memory 2 gb

molecule MOL {
0 1

H	 -3.525828	 0.117825	 0.670102
O	 -3.100036	 -0.268502	 -0.074081
C	 -1.771228	 -0.094630	 -0.020832
C	 -1.156563	 0.579874	 1.026864
C	 -1.015473	 -0.615569	 -1.057963
H	 -1.749626	 0.981210	 1.827884
C	 0.209881	 0.729873	 1.032028
H	 -1.509237	 -1.132240	 -1.856253
C	 0.351789	 -0.456775	 -1.037804
H	 0.696109	 1.248190	 1.834549
C	 0.981121	 0.213562	 0.000000
H	 0.939094	 -0.860520	 -1.841906
C	 2.447402	 0.371303	 0.000000
O	 3.227427	 -0.521847	 0.000000
H	 2.796538	 1.409525	 0.000000

	symmetry c1
}
set optking {
	frozen_dihedral = ("
		7 11 13 14
	")
}

ee,wfn = optimize('scf', return_wfn=True)
oeprop( wfn, 'DIPOLE', 'QUADRUPOLE', 'MULLIKEN_CHARGES')
f=open( 'psi4out.xyz', 'w' )
f.write( "15  " )
f.write( str(ee) + "\n" )
f.write( MOL.save_string_xyz() )
f.close()
--------------------------------------------------------------------------

    Molecular point group: c1
  Charge       = 0
  Multiplicity = 1
  Basis Set: CC-PVTZ
  Basis Set:
  @DF-RHF Final Energy:  -418.43056601761418
    Total Energy =                       -418.4305660176140691
    Molecular point group: c1
  Basis Set: CC-PVTZ
  Basis Set:
  Basis Set: CC-PVTZ
  Basis Set:
  @DF-RHF Final Energy:  -418.43001600856286
    Total Energy =                       -418.4300160085625748
  Basis Set: CC-PVTZ
  Basis Set:
  Basis Set: CC-PVTZ
  Basis Set:
  @DF-RHF Final Energy:  -418.43118085137780
    Total Energy =                       -418.4311808513779170
  Basis Set: CC-PVTZ
  Basis Set:
  Basis Set: CC-PVTZ
  Basis Set:
  @DF-RHF Final Energy:  -418.43174778172465
    Total Energy =                       -418.4317477817247664
  Basis Set: CC-PVTZ
  Basis Set:
  Basis Set: CC-PVTZ
  Basis Set:
  @DF-RHF Final Energy:  -418.43176049636867
    Total Energy =                       -418.4317604963690655
  Basis Set: CC-PVTZ
  Basis Set:
  Basis Set: CC-PVTZ
  Basis Set:
  @DF-RHF Final Energy:  -418.43176203329097
    Total Energy =                       -418.4317620332910792
  Basis Set: CC-PVTZ
  Basis Set:
  Charge       = 0
  Multiplicity = 1
  Basis Set: CC-PVTZ
  Basis Set:

    Orbital Energies (a.u.)
    -----------------------

    Doubly Occupied:

       1A    -20.599043     2A    -20.556505     3A    -11.328188
       4A    -11.314928     5A    -11.256098     6A    -11.250689
       7A    -11.241121     8A    -11.240291     9A    -11.234466
      10A     -1.431247    11A     -1.411197    12A     -1.173205
      13A     -1.043232    14A     -1.038510    15A     -0.893202
      16A     -0.860997    17A     -0.805731    18A     -0.758311
      19A     -0.703879    20A     -0.687316    21A     -0.651359
      22A     -0.631187    23A     -0.609843    24A     -0.608802
      25A     -0.593562    26A     -0.563604    27A     -0.539983
      28A     -0.506751    29A     -0.495087    30A     -0.424598
      31A     -0.358971    32A     -0.329238

  @DF-RHF Final Energy:  -418.43176235823148

   => Energetics <=

    Nuclear Repulsion Energy =            401.9107052843797874
    One-Electron Energy =               -1366.4026558915911664
    Two-Electron Energy =                 546.0601882489798982
    DFT Exchange-Correlation Energy =       0.0000000000000000
    Empirical Dispersion Energy =           0.0000000000000000
    PCM Polarization Energy =               0.0000000000000000
    EFP Energy =                            0.0000000000000000
    Total Energy =                       -418.4317623582314809
    Molecular point group: c1
  Basis Set: CC-PVTZ
  Basis Set:

  -Total Gradient:
     Atom            X                  Y                   Z
    ------   -----------------  -----------------  -----------------
       1        0.000007977253    -0.000001976156    -0.000002276280
       2       -0.000017233693    -0.000024021369     0.000016287143
       3        0.000011970910     0.000052260596    -0.000069408991
       4        0.000056789003    -0.000015448589     0.000020417697
       5       -0.000035778803    -0.000004019839     0.000057599878
       6       -0.000003926772     0.000000328362    -0.000002659027
       7        0.000200176514    -0.006050855623     0.003058387519
       8        0.000009952043     0.000003741250    -0.000001633940
       9        0.000028954379     0.000069272711    -0.000004302850
      10        0.000001573383     0.000026907133     0.000014717983
      11       -0.000574783885     0.008497650855    -0.000827717374
      12        0.000001122584    -0.000008629068    -0.000007700011
      13        0.000445948390    -0.002133208951    -0.010528406853
      14       -0.000217691349    -0.000497474854     0.008280311212
      15        0.000084950038     0.000085473538    -0.000003616107

  **** Optimization is complete! (in 7 steps) ****
    Final optimized geometry and variables:
    Molecular point group: c1

    Geometry (in Angstrom), charge = 0, multiplicity = 1:

    H           -3.520477972472     0.093029816017     0.720744218871
    O           -3.098771352655    -0.280274556467    -0.032214652347
    C           -1.769665122780    -0.080484998654     0.005190702880
    C           -1.150436172883     0.600155675291     1.037221998194
    C           -1.016393622013    -0.591841870870    -1.041163037916
    H           -1.730031093267     0.982823802176     1.857015568794
    C            0.218556206551     0.784131948083     1.009949334130
    H           -1.512042562066    -1.125074733963    -1.827780074241
    C            0.348026897452    -0.424239649839    -1.042000250857
    H            0.690291767412     1.318991922276     1.813869327976
    C            0.978288615842     0.289768335596    -0.031700263570
    H            0.935082842437    -0.849157988140    -1.833152048225
    C            2.464434467970     0.382371790003     0.028436590887
    O            3.186758009620    -0.553777665932     0.000464415337
    H            2.873813601786     1.387497986786     0.178807549740

  Mulliken Charges: (a.u.)
   Center  Symbol    Alpha    Beta     Spin     Total
       1     H     0.38640  0.38640  0.00000  0.22720
       2     O     4.16894  4.16894  0.00000 -0.33787
       3     C     2.85255  2.85255  0.00000  0.29491
       4     C     3.12860  3.12860  0.00000 -0.25721
       5     C     3.09868  3.09868  0.00000 -0.19735
       6     H     0.43226  0.43226  0.00000  0.13548
       7     C     3.08155  3.08155  0.00000 -0.16310
       8     H     0.41684  0.41684  0.00000  0.16632
       9     C     3.07117  3.07117  0.00000 -0.14234
      10     H     0.42274  0.42274  0.00000  0.15452
      11     C     2.97309  2.97309  0.00000  0.05381
      12     H     0.41620  0.41620  0.00000  0.16760
      13     C     2.93251  2.93251  0.00000  0.13497
      14     O     4.16146  4.16146  0.00000 -0.32292
      15     H     0.45701  0.45701  0.00000  0.08598

   Total alpha = 32.00000, Total beta = 32.00000, Total charge =  0.00000

*** Psi4 exiting successfully. Buy a developer a beer!
