  ==> Input File <==

--------------------------------------------------------------------------
set {
	reference rhf
	basis cc-pvtz
}

set_num_threads( 4 )
memory 2 gb

molecule MOL {
0 1

H	 -3.144994	 -1.202467	 -0.018751
O	 -2.321472	 -0.864941	 -0.318626
C	 -2.021813	 0.336996	 0.342658
C	 -0.669613	 0.837286	 -0.127252
H	 -2.780861	 1.084746	 0.127159
H	 -2.006390	 0.184138	 1.420053
C	 0.490865	 -0.082543	 0.241244
H	 -0.708709	 0.967192	 -1.204587
H	 -0.507562	 1.822272	 0.303070
C	 0.095434	 -1.555830	 0.282048
H	 0.887831	 0.213465	 1.205534
H	 1.295951	 0.052081	 -0.478364
C	 1.256476	 -2.476545	 0.642674
H	 -0.707158	 -1.691014	 1.001960
H	 -0.309494	 -1.848959	 -0.683248
H	 1.660437	 -2.231040	 1.619127
H	 0.943568	 -3.514273	 0.665325
H	 2.063022	 -2.390218	 -0.078073

	symmetry c1
}
set optking {
	frozen_dihedral = ("
		10 7 4 8
	")
}

ee = optimize('scf')
oeprop('DIPOLE', 'QUADRUPOLE', 'MULLIKEN_CHARGES')
f=open( 'psi4out.xyz', 'w' )
f.write( "18  " )
f.write( str(ee) + "\n" )
f.write( MOL.save_string_xyz() )
f.close()
--------------------------------------------------------------------------

    Molecular point group: c1
  Charge       = 0
  Multiplicity = 1
  Basis Set: CC-PVTZ
  Basis Set:
  @DF-RHF Final Energy:  -271.27100432109717
    Total Energy =                       -271.2710043210971094
    Molecular point group: c1
  Basis Set: CC-PVTZ
  Basis Set:
  Basis Set: CC-PVTZ
  Basis Set:
  @DF-RHF Final Energy:  -271.27853916561014
    Total Energy =                       -271.2785391656103116
  Basis Set: CC-PVTZ
  Basis Set:
  Basis Set: CC-PVTZ
  Basis Set:
  @DF-RHF Final Energy:  -271.27984087249331
    Total Energy =                       -271.2798408724927413
  Basis Set: CC-PVTZ
  Basis Set:
  Basis Set: CC-PVTZ
  Basis Set:
  @DF-RHF Final Energy:  -271.28019069123843
    Total Energy =                       -271.2801906912383743
  Basis Set: CC-PVTZ
  Basis Set:
  Basis Set: CC-PVTZ
  Basis Set:
  @DF-RHF Final Energy:  -271.28023989646340
    Total Energy =                       -271.2802398964633426
  Basis Set: CC-PVTZ
  Basis Set:
  Basis Set: CC-PVTZ
  Basis Set:
  @DF-RHF Final Energy:  -271.28024502300912
    Total Energy =                       -271.2802450230090585
  Basis Set: CC-PVTZ
  Basis Set:
  Basis Set: CC-PVTZ
  Basis Set:
  @DF-RHF Final Energy:  -271.28025247827634
    Total Energy =                       -271.2802524782765090
  Basis Set: CC-PVTZ
  Basis Set:
  Charge       = 0
  Multiplicity = 1
  Basis Set: CC-PVTZ
  Basis Set:

    Orbital Energies (a.u.)
    -----------------------

    Doubly Occupied:

       1A    -20.546243     2A    -11.267288     3A    -11.211773
       4A    -11.208680     5A    -11.202468     6A    -11.199813
       7A     -1.364503     8A     -1.072636     9A     -1.007573
      10A     -0.914246    11A     -0.831234    12A     -0.769459
      13A     -0.706163    14A     -0.650487    15A     -0.620384
      16A     -0.580571    17A     -0.569750    18A     -0.552888
      19A     -0.534212    20A     -0.503791    21A     -0.486137
      22A     -0.467775    23A     -0.449880    24A     -0.448501
      25A     -0.428775

  @DF-RHF Final Energy:  -271.28025266359367

   => Energetics <=

    Nuclear Repulsion Energy =            255.0642632560865763
    One-Electron Energy =                -873.4985718693316130
    Two-Electron Energy =                 347.1540559496515357
    DFT Exchange-Correlation Energy =       0.0000000000000000
    Empirical Dispersion Energy =           0.0000000000000000
    PCM Polarization Energy =               0.0000000000000000
    EFP Energy =                            0.0000000000000000
    Total Energy =                       -271.2802526635935578
    Molecular point group: c1
  Basis Set: CC-PVTZ
  Basis Set:

  -Total Gradient:
     Atom            X                  Y                   Z
    ------   -----------------  -----------------  -----------------
       1       -0.000001007324     0.000002422730    -0.000003125934
       2       -0.000009290907     0.000000028777     0.000022218906
       3       -0.000014896799     0.000017259869    -0.000030530777
       4       -0.004422425537    -0.005071822230     0.001190286883
       5       -0.000014974464    -0.000002241976     0.000005144791
       6       -0.000000169138    -0.000007874336    -0.000007505591
       7        0.002245340035     0.000560728640    -0.005464721837
       8        0.003191159250     0.004183608735     0.000468356100
       9        0.000002249327     0.000001792353    -0.000000003722
      10       -0.000981861932     0.000344222761     0.003823994358
      11       -0.000006907628    -0.000000153125    -0.000006303985
      12        0.000014233067    -0.000006942197     0.000002685891
      13       -0.000020547773    -0.000003268090    -0.000005613219
      14        0.000010028361    -0.000004331026     0.000003278497
      15        0.000002680441    -0.000002868089    -0.000001968445
      16        0.000000926653     0.000000959127    -0.000000595044
      17        0.000005407605    -0.000014189572     0.000002185699
      18        0.000000056761     0.000002667649     0.000002217429

  **** Optimization is complete! (in 8 steps) ****
    Final optimized geometry and variables:
    Molecular point group: c1

    Geometry (in Angstrom), charge = 0, multiplicity = 1:

    H           -2.854389664572    -0.246122918511    -0.268997442866
    O           -2.000774637053    -0.010165373053    -0.582035943484
    C           -1.481543990486     1.044474886946     0.185491985804
    C           -0.093574224703     1.409162397308    -0.306925483011
    H           -2.123812001180     1.916719703742     0.096647567204
    H           -1.447579650049     0.772261977456     1.238659793463
    C            1.070618272266     0.478747192271     0.078047733705
    H           -0.125207028751     1.551782288513    -1.381955238729
    H            0.133719076746     2.392764083423     0.096058432258
    C            0.782854288816    -1.021174125318     0.135506447606
    H            1.434833050507     0.778557128590     1.058353581471
    H            1.891311423264     0.660498381238    -0.608987554022
    C            2.023961045095    -1.826017404161     0.508838239279
    H           -0.000965750269    -1.217813414858     0.857389439774
    H            0.400777111609    -1.362505651821    -0.819739839737
    H            2.411343813921    -1.526796315724     1.477745632757
    H            1.803519844101    -2.886524892297     0.555296533889
    H            2.816920254780    -1.685866348096    -0.218653055944

  Mulliken Charges: (a.u.)
   Center  Symbol    Alpha    Beta     Spin     Total
       1     H     0.39640  0.39640  0.00000  0.20720
       2     O     4.19823  4.19823  0.00000 -0.39645
       3     C     2.98509  2.98509  0.00000  0.02982
       4     C     3.09331  3.09331  0.00000 -0.18663
       5     H     0.45847  0.45847  0.00000  0.08305
       6     H     0.46912  0.46912  0.00000  0.06176
       7     C     3.09669  3.09669  0.00000 -0.19337
       8     H     0.45017  0.45017  0.00000  0.09966
       9     H     0.45135  0.45135  0.00000  0.09730
      10     C     3.07620  3.07620  0.00000 -0.15240
      11     H     0.45665  0.45665  0.00000  0.08671
      12     H     0.45100  0.45100  0.00000  0.09800
      13     C     3.15155  3.15155  0.00000 -0.30310
      14     H     0.45629  0.45629  0.00000  0.08741
      15     H     0.44657  0.44657  0.00000  0.10685
      16     H     0.45794  0.45794  0.00000  0.08413
      17     H     0.44902  0.44902  0.00000  0.10195
      18     H     0.45595  0.45595  0.00000  0.08810

   Total alpha = 25.00000, Total beta = 25.00000, Total charge = -0.00000
