  ==> Input File <==

--------------------------------------------------------------------------
set {
	reference rhf
	basis 6-31G*
}

set_num_threads( 4 )
memory 2 gb

molecule MOL {
0 1

O	 -3.637849	 -0.349245	 -0.495998
C	 -2.668563	 0.129746	 -0.000350
C	 -2.654539	 1.466564	 0.695342
O	 -1.481751	 -0.454642	 0.000584
H	 -3.369213	 1.442702	 1.509304
H	 -1.673871	 1.713123	 1.074733
H	 -2.980470	 2.226521	 -0.004739
C	 -0.334255	 0.388708	 0.000906
C	 0.891947	 -0.504646	 0.000751
H	 -0.365390	 1.025305	 -0.873475
H	 -0.365484	 1.024911	 0.875569
C	 2.191998	 0.301789	 0.000897
H	 0.855148	 -1.151283	 -0.871571
H	 0.855132	 -1.151660	 0.872805
C	 3.441114	 -0.581407	 0.000108
H	 2.215074	 0.954890	 -0.869742
H	 2.215465	 0.953923	 0.872248
C	 4.739576	 0.224112	 -0.001102
H	 3.419457	 -1.233487	 -0.870178
H	 3.420834	 -1.233096	 0.870717
H	 4.804918	 0.861552	 -0.878265
H	 5.606527	 -0.429058	 -0.001824
H	 4.806469	 0.861674	 0.875853

	symmetry c1
}
set optking {
	frozen_dihedral = ("
		1 2 4 8
	")
}

ee = optimize('scf')
oeprop('DIPOLE', 'QUADRUPOLE', 'MULLIKEN_CHARGES')
f=open( 'psi4out.xyz', 'w' )
f.write( "23  " )
f.write( str(ee) + "\n" )
f.write( MOL.save_string_xyz() )
f.close()
--------------------------------------------------------------------------

    Molecular point group: c1
  Charge       = 0
  Multiplicity = 1
  Basis Set: 6-31G*
  Basis Set:
  @DF-RHF Final Energy:  -422.94666492087964
    Total Energy =                       -422.9466649208791296
    Molecular point group: c1
  Basis Set: 6-31G*
  Basis Set:
  Basis Set: 6-31G*
  Basis Set:
  @DF-RHF Final Energy:  -422.94853971571990
    Total Energy =                       -422.9485397157201305
  Basis Set: 6-31G*
  Basis Set:
  Basis Set: 6-31G*
  Basis Set:
  @DF-RHF Final Energy:  -422.95676098484711
    Total Energy =                       -422.9567609848462553
  Basis Set: 6-31G*
  Basis Set:
  Basis Set: 6-31G*
  Basis Set:
  @DF-RHF Final Energy:  -422.96103697557345
    Total Energy =                       -422.9610369755732791
  Basis Set: 6-31G*
  Basis Set:
  @DF-RHF Final Energy:  -422.96139993360401
    Total Energy =                       -422.9613999336046390
  @DF-RHF Final Energy:  -422.96204589823003
    Total Energy =                       -422.9620458982302580
  @DF-RHF Final Energy:  -422.96232733720592
    Total Energy =                       -422.9623273372063750
  @DF-RHF Final Energy:  -422.96254066285354
    Total Energy =                       -422.9625406628537121
  @DF-RHF Final Energy:  -422.96306052644451
    Total Energy =                       -422.9630605264445649
  @DF-RHF Final Energy:  -422.96329876918622
    Total Energy =                       -422.9632987691865083
  @DF-RHF Final Energy:  -422.96404614751265
    Total Energy =                       -422.9640461475133861
  Basis Set: 6-31G*
  Basis Set:
  @DF-RHF Final Energy:  -422.96434625417152
    Total Energy =                       -422.9643462541719146
  Basis Set: 6-31G*
  Basis Set:
  Basis Set: 6-31G*
  Basis Set:
  @DF-RHF Final Energy:  -422.96441632098509
    Total Energy =                       -422.9644163209857197
  Basis Set: 6-31G*
  Basis Set:
  Basis Set: 6-31G*
  Basis Set:
  @DF-RHF Final Energy:  -422.96442668447111
    Total Energy =                       -422.9644266844709364
  Basis Set: 6-31G*
  Basis Set:
  Charge       = 0
  Multiplicity = 1
  Basis Set: 6-31G*
  Basis Set:

    Orbital Energies (a.u.)
    -----------------------

    Doubly Occupied:

       1A    -20.595648     2A    -20.541640     3A    -11.375327
       4A    -11.296778     5A    -11.241043     6A    -11.229666
       7A    -11.228976     8A    -11.225210     9A    -11.216242
      10A     -1.460341    11A     -1.364746    12A     -1.097781
      13A     -1.036564    14A     -1.014636    15A     -0.942722
      16A     -0.847853    17A     -0.807717    18A     -0.778559
      19A     -0.699350    20A     -0.693924    21A     -0.659153
      22A     -0.650163    23A     -0.613249    24A     -0.595071
      25A     -0.581121    26A     -0.574827    27A     -0.569428
      28A     -0.542799    29A     -0.527403    30A     -0.504005
      31A     -0.497202    32A     -0.482323    33A     -0.475727
      34A     -0.473930    35A     -0.445969    36A     -0.430527

  @DF-RHF Final Energy:  -422.96442760038428

   => Energetics <=

    Nuclear Repulsion Energy =            449.4816871233452957
    One-Electron Energy =               -1466.2569947063332165
    Two-Electron Energy =                 593.8108799826032964
    DFT Exchange-Correlation Energy =       0.0000000000000000
    Empirical Dispersion Energy =           0.0000000000000000
    PCM Polarization Energy =               0.0000000000000000
    EFP Energy =                            0.0000000000000000
    Total Energy =                       -422.9644276003846244
    Molecular point group: c1
  Basis Set: 6-31G*
  Basis Set:

  -Total Gradient:
     Atom            X                  Y                   Z
    ------   -----------------  -----------------  -----------------
       1        0.000588690984     0.001115345614    -0.002755071114
       2       -0.000906914100    -0.001763127445     0.002482712912
       3        0.000014252087    -0.000015340637     0.000035173105
       4        0.000307807849     0.000935767814     0.002809979480
       5        0.000009552583    -0.000012409561    -0.000002158067
       6        0.000010107934     0.000003565675    -0.000016021036
       7        0.000002171844     0.000015815933    -0.000011818387
       8        0.000009087140    -0.000253534874    -0.002537496454
       9       -0.000012314006    -0.000011598215    -0.000003518801
      10       -0.000021491139     0.000000727951    -0.000003880572
      11        0.000011075106     0.000002010054    -0.000005749247
      12       -0.000015749673     0.000004115061     0.000003218837
      13        0.000002968631    -0.000008849072    -0.000000970713
      14        0.000015367836    -0.000004887288     0.000002877193
      15       -0.000005549266    -0.000008638133     0.000000924903
      16       -0.000005597586    -0.000001532713     0.000000862601
      17       -0.000000420741     0.000000471429     0.000000624328
      18       -0.000003090047     0.000003202779     0.000000718476
      19       -0.000000120768     0.000000351199     0.000000607026
      20        0.000000851916    -0.000001042670    -0.000000612511
      21        0.000000289069     0.000000167663     0.000000042547
      22       -0.000001269012    -0.000000661995    -0.000000056839
      23        0.000000293375     0.000000081432    -0.000000387667

  **** Optimization is complete! (in 15 steps) ****
    Final optimized geometry and variables:
    Molecular point group: c1

    Geometry (in Angstrom), charge = 0, multiplicity = 1:

    O           -3.599356537882    -0.599909978825    -0.406321965925
    C           -2.721954325947     0.048503526134     0.051477416121
    C           -2.933465868268     1.438076852922     0.607513680762
    O           -1.485064165043    -0.455506579722     0.113902368691
    H           -3.992509604811     1.646253200907     0.607167908566
    H           -2.545894786229     1.510602000577     1.617502619182
    H           -2.427360626563     2.182276525095     0.002206495476
    C           -0.335535852996     0.368512503463     0.040447600059
    C            0.877281854493    -0.543300941237     0.001970954479
    H           -0.381813110257     0.979416934904    -0.855261127275
    H           -0.287644461848     1.028418261297     0.899859480725
    C            2.189840267702     0.237446046498    -0.082873487084
    H            0.779559713533    -1.210015383433    -0.849040200968
    H            0.867551393812    -1.165936915105     0.891703513048
    C            3.419896339399    -0.671402385012    -0.122639208601
    H            2.183080970410     0.867617709931    -0.970834109098
    H            2.270853955498     0.910558749064     0.769274324335
    C            4.732021721273     0.106881460147    -0.207994941106
    H            3.341725187436    -1.343549363688    -0.973905926799
    H            3.429596123831    -1.301038518121     0.764033266082
    H            4.766654215835     0.720957754346    -1.103417975101
    H            5.584550104267    -0.564252197989    -0.234591686596
    H            4.855195006509     0.764060553256     0.648214664327

  Mulliken Charges: (a.u.)
   Center  Symbol    Alpha    Beta     Spin     Total
       1     O     4.26116  4.26116  0.00000 -0.52231
       2     C     2.61687  2.61687  0.00000  0.76626
       3     C     3.30673  3.30673  0.00000 -0.61346
       4     O     4.30837  4.30837  0.00000 -0.61674
       5     H     0.38887  0.38887  0.00000  0.22227
       6     H     0.40223  0.40223  0.00000  0.19553
       7     H     0.40351  0.40351  0.00000  0.19298
       8     C     2.99552  2.99552  0.00000  0.00897
       9     C     3.16213  3.16213  0.00000 -0.32427
      10     H     0.41875  0.41875  0.00000  0.16249
      11     H     0.42085  0.42085  0.00000  0.15831
      12     C     3.16115  3.16115  0.00000 -0.32229
      13     H     0.40801  0.40801  0.00000  0.18398
      14     H     0.41061  0.41061  0.00000  0.17878
      15     C     3.15182  3.15182  0.00000 -0.30365
      16     H     0.42180  0.42180  0.00000  0.15640
      17     H     0.42254  0.42254  0.00000  0.15491
      18     C     3.24007  3.24007  0.00000 -0.48014
      19     H     0.41961  0.41961  0.00000  0.16079
      20     H     0.42024  0.42024  0.00000  0.15953
      21     H     0.42097  0.42097  0.00000  0.15805
      22     H     0.41688  0.41688  0.00000  0.16624
      23     H     0.42131  0.42131  0.00000  0.15738

   Total alpha = 36.00000, Total beta = 36.00000, Total charge = -0.00000
