  ==> Input File <==

--------------------------------------------------------------------------
set {
	reference rhf
	basis 6-31G*
}

set_num_threads( 4 )
memory 2 gb

molecule MOL {
0 1

H	 1.831409	 -1.487637	 -1.037134
C	 0.988437	 -0.850284	 -1.249817
O	 0.464886	 -0.454746	 -0.000158
H	 0.254549	 -1.406058	 -1.821262
H	 1.323203	 0.007468	 -1.821005
C	 -0.590998	 0.343045	 0.000118
O	 -1.699443	 -0.054298	 0.000227
H	 -0.340329	 1.404368	 0.000207

	symmetry c1
}
set optking {
	frozen_dihedral = ("
		2 3 6 7
	")
}

ee = optimize('scf')
oeprop('DIPOLE', 'QUADRUPOLE', 'MULLIKEN_CHARGES')
f=open( 'psi4out.xyz', 'w' )
f.write( "8  " )
f.write( str(ee) + "\n" )
f.write( MOL.save_string_xyz() )
f.close()
--------------------------------------------------------------------------

    Molecular point group: c1
  Charge       = 0
  Multiplicity = 1
  Basis Set: 6-31G*
  Basis Set:
  @DF-RHF Final Energy:  -227.76816938187821
    Total Energy =                       -227.7681693818782378
    Molecular point group: c1
  Basis Set: 6-31G*
  Basis Set:
  Basis Set: 6-31G*
  Basis Set:
  @DF-RHF Final Energy:  -227.76719443845388
    Total Energy =                       -227.7671944384538563
  Basis Set: 6-31G*
  Basis Set:
  Basis Set: 6-31G*
  Basis Set:
  @DF-RHF Final Energy:  -227.76835142772202
    Total Energy =                       -227.7683514277218251
  Basis Set: 6-31G*
  Basis Set:
  Basis Set: 6-31G*
  Basis Set:
  @DF-RHF Final Energy:  -227.76867284446908
    Total Energy =                       -227.7686728444688811
  Basis Set: 6-31G*
  Basis Set:
  Basis Set: 6-31G*
  Basis Set:
  @DF-RHF Final Energy:  -227.76867939310944
    Total Energy =                       -227.7686793931093234
  Basis Set: 6-31G*
  Basis Set:
  Charge       = 0
  Multiplicity = 1
  Basis Set: 6-31G*
  Basis Set:

    Orbital Energies (a.u.)
    -----------------------

    Doubly Occupied:

       1A    -20.596720     2A    -20.574505     3A    -11.383809
       4A    -11.299244     5A     -1.469690     6A     -1.381681
       7A     -0.986361     8A     -0.834148     9A     -0.737691
      10A     -0.686388    11A     -0.665880    12A     -0.626971
      13A     -0.562998    14A     -0.509978    15A     -0.473049
      16A     -0.457289

  @DF-RHF Final Energy:  -227.76867987213382

   => Energetics <=

    Nuclear Repulsion Energy =            121.7666977314030561
    One-Electron Energy =                -552.5779476346313004
    Two-Electron Energy =                 203.0425700310943569
    DFT Exchange-Correlation Energy =       0.0000000000000000
    Empirical Dispersion Energy =           0.0000000000000000
    PCM Polarization Energy =               0.0000000000000000
    EFP Energy =                            0.0000000000000000
    Total Energy =                       -227.7686798721339017
    Molecular point group: c1
  Basis Set: 6-31G*
  Basis Set:

  -Total Gradient:
     Atom            X                  Y                   Z
    ------   -----------------  -----------------  -----------------
       1       -0.000011471225     0.000013810794     0.000017838075
       2        0.000419161474     0.000609917800    -0.000014885504
       3       -0.000622049076    -0.000892953017     0.000511315784
       4        0.000015017091    -0.000013970781    -0.000023602258
       5        0.000008551120     0.000000773553     0.000002695043
       6        0.000191333641     0.000262234424    -0.001502618887
       7        0.000002877141     0.000037141623     0.001005824383
       8       -0.000003420167    -0.000016954394     0.000003433362

  **** Optimization is complete! (in 6 steps) ****
    Final optimized geometry and variables:
    Molecular point group: c1

    Geometry (in Angstrom), charge = 0, multiplicity = 1:

    H            2.040694220084    -1.221294248358    -0.717260997409
    C            1.188583699196    -0.591578958475    -0.916647719864
    O            0.676197388585    -0.200123302850     0.343044112108
    H            0.444136613682    -1.146725515759    -1.472760145644
    H            1.507088225825     0.272244754824    -1.491371471488
    C           -0.398947165265     0.602369062400     0.320425066649
    O           -1.511441390660     0.219568103176     0.314779725131
    H           -0.138057556916     1.658695998465     0.340371935718

  Mulliken Charges: (a.u.)
   Center  Symbol    Alpha    Beta     Spin     Total
       1     H     0.40029  0.40029  0.00000  0.19941
       2     C     3.09384  3.09384  0.00000 -0.18769
       3     O     4.29667  4.29667  0.00000 -0.59335
       4     H     0.40758  0.40758  0.00000  0.18483
       5     H     0.41960  0.41960  0.00000  0.16081
       6     C     2.73416  2.73416  0.00000  0.53168
       7     O     4.22490  4.22490  0.00000 -0.44980
       8     H     0.42295  0.42295  0.00000  0.15410

   Total alpha = 16.00000, Total beta = 16.00000, Total charge = -0.00000
