  ==> Input File <==

--------------------------------------------------------------------------
set {
	reference rhf
	basis 6-31G*
}

set_num_threads( 4 )
memory 2 gb

molecule MOL {
0 1

H	 3.302550	 -0.414129	 0.010500
C	 2.242072	 -0.235798	 0.008243
C	 1.389618	 -1.151638	 -0.596255
C	 1.734569	 0.904874	 0.607649
H	 1.791177	 -2.034672	 -1.059428
C	 0.027196	 -0.925704	 -0.600960
H	 2.397050	 1.611023	 1.074251
C	 0.367571	 1.130388	 0.602258
H	 -0.648457	 -1.621014	 -1.062683
C	 -0.488460	 0.219100	 0.000000
H	 -0.032958	 2.015231	 1.066560
C	 -1.949954	 0.470334	 0.000000
O	 -2.781584	 -0.381627	 0.000000
H	 -2.238022	 1.526388	 0.000000

	symmetry c1
}
set optking {
	frozen_dihedral = ("
		8 10 12 14
	")
}

ee = optimize('scf')
oeprop('DIPOLE', 'QUADRUPOLE', 'MULLIKEN_CHARGES')
f=open( 'psi4out.xyz', 'w' )
f.write( "14  " )
f.write( str(ee) + "\n" )
f.write( MOL.save_string_xyz() )
f.close()
--------------------------------------------------------------------------

    Molecular point group: c1
  Charge       = 0
  Multiplicity = 1
  Basis Set: 6-31G*
  Basis Set:
  @DF-RHF Final Energy:  -343.42962258504934
    Total Energy =                       -343.4296225850495148
    Molecular point group: c1
  Basis Set: 6-31G*
  Basis Set:
  Basis Set: 6-31G*
  Basis Set:
  @DF-RHF Final Energy:  -343.42669699297784
    Total Energy =                       -343.4266969929777247
  Basis Set: 6-31G*
  Basis Set:
  Basis Set: 6-31G*
  Basis Set:
  @DF-RHF Final Energy:  -343.43005171543354
    Total Energy =                       -343.4300517154334216
  Basis Set: 6-31G*
  Basis Set:
  Basis Set: 6-31G*
  Basis Set:
  @DF-RHF Final Energy:  -343.43012752329253
    Total Energy =                       -343.4301275232924127
  Basis Set: 6-31G*
  Basis Set:
  Charge       = 0
  Multiplicity = 1
  Basis Set: 6-31G*
  Basis Set:

    Orbital Energies (a.u.)
    -----------------------

    Doubly Occupied:

       1A    -20.563844     2A    -11.331937     3A    -11.253289
       4A    -11.249894     5A    -11.247537     6A    -11.246296
       7A    -11.244796     8A    -11.242958     9A     -1.404164
      10A     -1.170643    11A     -1.046633    12A     -1.030973
      13A     -0.888818    14A     -0.843212    15A     -0.791420
      16A     -0.720759    17A     -0.677256    18A     -0.651648
      19A     -0.621083    20A     -0.617536    21A     -0.602254
      22A     -0.549869    23A     -0.526203    24A     -0.506263
      25A     -0.501938    26A     -0.421896    27A     -0.349213
      28A     -0.346459

  @DF-RHF Final Energy:  -343.43012814006539

   => Energetics <=

    Nuclear Repulsion Energy =            323.1994640323811723
    One-Electron Energy =               -1105.9616014466087108
    Two-Electron Energy =                 439.3320092741622602
    DFT Exchange-Correlation Energy =       0.0000000000000000
    Empirical Dispersion Energy =           0.0000000000000000
    PCM Polarization Energy =               0.0000000000000000
    EFP Energy =                            0.0000000000000000
    Total Energy =                       -343.4301281400652215
    Molecular point group: c1
  Basis Set: 6-31G*
  Basis Set:

  -Total Gradient:
     Atom            X                  Y                   Z
    ------   -----------------  -----------------  -----------------
       1       -0.000001583344    -0.000013151541     0.000029089624
       2        0.000008764883     0.000043483058    -0.000079748259
       3        0.000009524651     0.000034402098    -0.000060400826
       4       -0.000006748352    -0.000039590386     0.000075067311
       5        0.000000848825    -0.000001571706     0.000006814459
       6       -0.000005827123    -0.000069995216     0.000145345955
       7        0.000007201384     0.000004672950    -0.000011541315
       8       -0.000235619269    -0.002363729020     0.003834095249
       9        0.000002255321     0.000035779719    -0.000040168833
      10        0.000282509479     0.003522326659    -0.007420681752
      11       -0.000001500520    -0.000004395892    -0.000004661840
      12        0.000090248706    -0.001325777596     0.009071202342
      13       -0.000006876224    -0.000004429647     0.000000232178
      14       -0.000143198416     0.000181976521    -0.005544644291

  **** Optimization is complete! (in 5 steps) ****
    Final optimized geometry and variables:
    Molecular point group: c1

    Geometry (in Angstrom), charge = 0, multiplicity = 1:

    H            3.298886895719    -0.424445821711     0.026600931664
    C            2.239608596398    -0.239418261156     0.017279273785
    C            1.384617394192    -1.150429515794    -0.589599265064
    C            1.734491342556     0.903560391087     0.614428054068
    H            1.782312665369    -2.037972749428    -1.047476158739
    C            0.022160719078    -0.920623991190    -0.594284461977
    H            2.397118859086     1.601921532216     1.092504654272
    C            0.370148757136     1.143742944900     0.590894906471
    H           -0.654983808651    -1.624805029078    -1.040353101901
    C           -0.487478135673     0.239863057213    -0.020528443648
    H           -0.026278468624     2.034697136743     1.047336859808
    C           -1.954937316869     0.466885544021     0.025261025298
    O           -2.767745390883    -0.399871949146    -0.041916333371
    H           -2.265996892809     1.515229863391     0.069264771372

  Mulliken Charges: (a.u.)
   Center  Symbol    Alpha    Beta     Spin     Total
       1     H     0.39445  0.39445  0.00000  0.21110
       2     C     3.09221  3.09221  0.00000 -0.18442
       3     C     3.10384  3.10384  0.00000 -0.20768
       4     C     3.10336  3.10336  0.00000 -0.20672
       5     H     0.39416  0.39416  0.00000  0.21167
       6     C     3.08869  3.08869  0.00000 -0.17738
       7     H     0.39488  0.39488  0.00000  0.21025
       8     C     3.10225  3.10225  0.00000 -0.20451
       9     H     0.37976  0.37976  0.00000  0.24047
      10     C     3.04945  3.04945  0.00000 -0.09890
      11     H     0.39324  0.39324  0.00000  0.21352
      12     C     2.83711  2.83711  0.00000  0.32579
      13     O     4.24279  4.24279  0.00000 -0.48558
      14     H     0.42381  0.42381  0.00000  0.15237

   Total alpha = 28.00000, Total beta = 28.00000, Total charge = -0.00000
