  ==> Input File <==

--------------------------------------------------------------------------
set {
	reference rhf
	basis 6-31G*
}

set_num_threads( 4 )
memory 2 gb

molecule MOL {
0 1

H	 -3.161837	 0.500524	 -0.000234
C	 -2.367097	 -0.232926	 -0.000000
O	 -1.158440	 0.455814	 -0.000122
H	 -2.468853	 -0.861886	 -0.882833
H	 -2.468942	 -0.861421	 0.883154
C	 -0.029776	 -0.365156	 0.000148
C	 -0.188566	 -1.416449	 1.084689
H	 0.867103	 0.229753	 0.177885
H	 0.088394	 -0.841177	 -0.974197
C	 1.007137	 -2.364972	 1.158706
H	 -0.326086	 -0.911618	 2.035949
H	 -1.099299	 -1.975124	 0.891951
H	 1.926401	 -1.827893	 1.375328
H	 0.867020	 -3.104399	 1.940025
H	 1.148179	 -2.898531	 0.222850

	symmetry c1
}
set optking {
	frozen_dihedral = ("
		8 6 3 2
	")
}

ee = optimize('scf')
oeprop('DIPOLE', 'QUADRUPOLE', 'MULLIKEN_CHARGES')
f=open( 'psi4out.xyz', 'w' )
f.write( "15  " )
f.write( str(ee) + "\n" )
f.write( MOL.save_string_xyz() )
f.close()
--------------------------------------------------------------------------

    Molecular point group: c1
  Charge       = 0
  Multiplicity = 1
  Basis Set: 6-31G*
  Basis Set:
  @DF-RHF Final Energy:  -232.12583014967296
    Total Energy =                       -232.1258301496729928
    Molecular point group: c1
  Basis Set: 6-31G*
  Basis Set:
  Basis Set: 6-31G*
  Basis Set:
  @DF-RHF Final Energy:  -232.12590937868555
    Total Energy =                       -232.1259093786855487
  Basis Set: 6-31G*
  Basis Set:
  Basis Set: 6-31G*
  Basis Set:
  @DF-RHF Final Energy:  -232.13221772790428
    Total Energy =                       -232.1322177279041057
  Basis Set: 6-31G*
  Basis Set:
  Basis Set: 6-31G*
  Basis Set:
  @DF-RHF Final Energy:  -232.13441861260529
    Total Energy =                       -232.1344186126053728
  Basis Set: 6-31G*
  Basis Set:
  Basis Set: 6-31G*
  Basis Set:
  @DF-RHF Final Energy:  -232.13470134808949
    Total Energy =                       -232.1347013480896067
  Basis Set: 6-31G*
  Basis Set:
  Basis Set: 6-31G*
  Basis Set:
  @DF-RHF Final Energy:  -232.13477814791054
    Total Energy =                       -232.1347781479105379
  Basis Set: 6-31G*
  Basis Set:
  Basis Set: 6-31G*
  Basis Set:
  @DF-RHF Final Energy:  -232.13478594792304
    Total Energy =                       -232.1347859479229214
  Basis Set: 6-31G*
  Basis Set:
  Charge       = 0
  Multiplicity = 1
  Basis Set: 6-31G*
  Basis Set:

    Orbital Energies (a.u.)
    -----------------------

    Doubly Occupied:

       1A    -20.550885     2A    -11.266402     3A    -11.262671
       4A    -11.219475     5A    -11.216701     6A     -1.373014
       7A     -1.057864     8A     -0.960717     9A     -0.885556
      10A     -0.800893    11A     -0.671883    12A     -0.658678
      13A     -0.630091    14A     -0.605096    15A     -0.563896
      16A     -0.531669    17A     -0.526656    18A     -0.498502
      19A     -0.488200    20A     -0.449236    21A     -0.406767

  @DF-RHF Final Energy:  -232.13478726827492

   => Energetics <=

    Nuclear Repulsion Energy =            192.1186190134108642
    One-Electron Energy =                -695.2571122716326499
    Two-Electron Energy =                 271.0037059899468659
    DFT Exchange-Correlation Energy =       0.0000000000000000
    Empirical Dispersion Energy =           0.0000000000000000
    PCM Polarization Energy =               0.0000000000000000
    EFP Energy =                            0.0000000000000000
    Total Energy =                       -232.1347872682749198
    Molecular point group: c1
  Basis Set: 6-31G*
  Basis Set:

  -Total Gradient:
     Atom            X                  Y                   Z
    ------   -----------------  -----------------  -----------------
       1        0.000000936815    -0.000003622015     0.000011716491
       2       -0.000075496463    -0.000002875505     0.003471058554
       3       -0.000029421894    -0.000092045148    -0.004206230742
       4        0.000007372897    -0.000008611111    -0.000005553354
       5        0.000001041940     0.000003285522    -0.000019261302
       6        0.000616215862     0.000681712830    -0.003243654183
       7       -0.000001551426    -0.000026969745    -0.000023099443
       8       -0.000521713625    -0.000557496269     0.004009029092
       9        0.000006666026    -0.000017031025     0.000018982974
      10       -0.000001073153     0.000005316618     0.000010007111
      11        0.000001265479     0.000009316469    -0.000008891855
      12       -0.000003963582     0.000012774828    -0.000008622105
      13       -0.000004029174     0.000001679306    -0.000006649178
      14        0.000004587524    -0.000001823039     0.000001325180
      15       -0.000000837226    -0.000003611714    -0.000000157239

  **** Optimization is complete! (in 8 steps) ****
    Final optimized geometry and variables:
    Molecular point group: c1

    Geometry (in Angstrom), charge = 0, multiplicity = 1:

    H           -2.561881916683     1.507328802409    -0.658239483873
    C           -1.876430888143     0.692288346712    -0.468913882069
    O           -0.594114825094     1.235771010354    -0.443360672408
    H           -1.987153156567    -0.045022060878    -1.263042506216
    H           -2.145243554762     0.227630673622     0.474582647222
    C            0.477568783323     0.335125081123    -0.423377058529
    C            0.400422936095    -0.745411030772     0.654244144209
    H            1.352532548544     0.941695561827    -0.224087050072
    H            0.593307532209    -0.127244190734    -1.403823483262
    C            1.696609439027    -1.553567578302     0.725525438200
    H            0.206341560748    -0.269920080510     1.612019567421
    H           -0.428192248057    -1.420273094231     0.461876923389
    H            2.544246102024    -0.919915630174     0.969547223524
    H            1.632152520027    -2.325451641233     1.485001187563
    H            1.909930224734    -2.041102278184    -0.221704090673

  Mulliken Charges: (a.u.)
   Center  Symbol    Alpha    Beta     Spin     Total
       1     H     0.41230  0.41230  0.00000  0.17539
       2     C     3.08145  3.08145  0.00000 -0.16290
       3     O     4.30891  4.30891  0.00000 -0.61782
       4     H     0.43223  0.43223  0.00000  0.13553
       5     H     0.42722  0.42722  0.00000  0.14557
       6     C     2.97825  2.97825  0.00000  0.04350
       7     C     3.17603  3.17603  0.00000 -0.35207
       8     H     0.41711  0.41711  0.00000  0.16578
       9     H     0.43176  0.43176  0.00000  0.13648
      10     C     3.24581  3.24581  0.00000 -0.49162
      11     H     0.41480  0.41480  0.00000  0.17041
      12     H     0.41983  0.41983  0.00000  0.16033
      13     H     0.41893  0.41893  0.00000  0.16214
      14     H     0.41537  0.41537  0.00000  0.16925
      15     H     0.41999  0.41999  0.00000  0.16002

   Total alpha = 21.00000, Total beta = 21.00000, Total charge =  0.00000
