                              Psi4 1.0.54 Driver

  ==> Input File <==

--------------------------------------------------------------------------
set {
	reference rhf
	basis cc-pvtz
}

set_num_threads( 4 )
memory 2 gb

molecule MOL {
0 1

O	 -1.278239	 1.034789	 -0.784693
C	 -1.204115	 0.062668	 -0.112312
C	 -2.386398	 -0.667698	 0.460323
O	 -0.068058	 -0.518372	 0.226882
H	 -2.382952	 -1.693172	 0.114333
H	 -3.296656	 -0.175702	 0.158400
H	 -2.312537	 -0.685191	 1.540100
C	 1.169086	 0.037484	 -0.230612
C	 1.753518	 0.795806	 0.944335
C	 0.921870	 0.918308	 -1.442074
H	 1.818620	 -0.779989	 -0.504348
H	 1.909087	 0.134644	 1.787195
H	 2.707258	 1.229478	 0.668618
H	 1.090340	 1.594672	 1.254084
H	 1.855958	 1.349771	 -1.782397
H	 0.499352	 0.343973	 -2.254643
H	 0.243480	 1.726190	 -1.192280

	symmetry c1
}
set optking {
	frozen_dihedral = ("
		11 8 4 2
	")
}

ee,wfn = optimize('scf', return_wfn=True)
oeprop( wfn, 'DIPOLE', 'QUADRUPOLE', 'MULLIKEN_CHARGES')
f=open( 'psi4out.xyz', 'w' )
f.write( "17  " )
f.write( str(ee) + "\n" )
f.write( MOL.save_string_xyz() )
f.close()
--------------------------------------------------------------------------

    Molecular point group: c1
  Charge       = 0
  Multiplicity = 1
  Basis Set: CC-PVTZ
  Basis Set:
  @DF-RHF Final Energy:  -345.00200081652537
    Total Energy =                       -345.0020008165254239
    Molecular point group: c1
  Basis Set: CC-PVTZ
  Basis Set:
  Basis Set: CC-PVTZ
  Basis Set:
  @DF-RHF Final Energy:  -344.88522961674670
    Total Energy =                       -344.8852296167463010
  Basis Set: CC-PVTZ
  Basis Set:
  Basis Set: CC-PVTZ
  Basis Set:
  @DF-RHF Final Energy:  -344.99017368535431
    Total Energy =                       -344.9901736853541934
  Basis Set: CC-PVTZ
  Basis Set:
  Basis Set: CC-PVTZ
  Basis Set:
  @DF-RHF Final Energy:  -345.02936418284065
    Total Energy =                       -345.0293641828408795
  Basis Set: CC-PVTZ
  Basis Set:
  @DF-RHF Final Energy:  -345.03264929967855
    Total Energy =                       -345.0326492996786101
  @DF-RHF Final Energy:  -345.03290839538715
    Total Energy =                       -345.0329083953874942
  @DF-RHF Final Energy:  -345.03235266374702
    Total Energy =                       -345.0323526637470195
  @DF-RHF Final Energy:  -345.03343476378603
    Total Energy =                       -345.0334347637858627
  Basis Set: CC-PVTZ
  Basis Set:
  @DF-RHF Final Energy:  -345.03347628709832
    Total Energy =                       -345.0334762870987220
  Basis Set: CC-PVTZ
  Basis Set:
  Basis Set: CC-PVTZ
  Basis Set:
  @DF-RHF Final Energy:  -345.03349318917225
    Total Energy =                       -345.0334931891726455
  Basis Set: CC-PVTZ
  Basis Set:
  Basis Set: CC-PVTZ
  Basis Set:
  @DF-RHF Final Energy:  -345.03349614443829
    Total Energy =                       -345.0334961444383453
  Basis Set: CC-PVTZ
  Basis Set:
  Charge       = 0
  Multiplicity = 1
  Basis Set: CC-PVTZ
  Basis Set:

    Orbital Energies (a.u.)
    -----------------------

    Doubly Occupied:

       1A    -20.587623     2A    -20.527878     3A    -11.366468
       4A    -11.294400     5A    -11.228223     6A    -11.216924
       7A    -11.211358     8A     -1.462225     9A     -1.363090
      10A     -1.079324    11A     -1.002905    12A     -0.947063
      13A     -0.867935    14A     -0.736008    15A     -0.693151
      16A     -0.675121    17A     -0.661342    18A     -0.618117
      19A     -0.583964    20A     -0.580300    21A     -0.567977
      22A     -0.550925    23A     -0.531070    24A     -0.518477
      25A     -0.506495    26A     -0.481940    27A     -0.444331
      28A     -0.430946

  @DF-RHF Final Energy:  -345.03349684446727

   => Energetics <=

    Nuclear Repulsion Energy =            325.3834945249311090
    One-Electron Energy =               -1115.3628227234660244
    Two-Electron Energy =                 444.9458313540676500
    DFT Exchange-Correlation Energy =       0.0000000000000000
    Empirical Dispersion Energy =           0.0000000000000000
    PCM Polarization Energy =               0.0000000000000000
    EFP Energy =                            0.0000000000000000
    Total Energy =                       -345.0334968444672086
    Molecular point group: c1
  Basis Set: CC-PVTZ
  Basis Set:

  -Total Gradient:
     Atom            X                  Y                   Z
    ------   -----------------  -----------------  -----------------
       1        0.000265254637     0.000174193292     0.000169804078
       2        0.001337192474    -0.004183577632    -0.002171540707
       3       -0.000009861783     0.000009222862    -0.000190749442
       4       -0.002575421140     0.006021480771     0.002666643540
       5        0.000147104567    -0.000188333250     0.000021740121
       6       -0.000120120208    -0.000013494362    -0.000045221928
       7        0.000004512618     0.000133098656     0.000259063509
       8        0.001614013083     0.000667122429     0.002970131163
       9        0.000049985922    -0.000266146691     0.000052244013
      10       -0.000044107398     0.000111869383    -0.000065820353
      11       -0.000755540772    -0.002402333557    -0.003614720872
      12        0.000010713911     0.000027329160     0.000027186344
      13        0.000012219170    -0.000024284341    -0.000008337131
      14        0.000031221005    -0.000054215667    -0.000010191892
      15       -0.000013493700    -0.000005321920    -0.000038554217
      16        0.000027005397     0.000001508290     0.000001636683
      17        0.000019322211    -0.000008117426    -0.000023312911

  **** Optimization is complete! (in 12 steps) ****
    Final optimized geometry and variables:
    Molecular point group: c1

    Geometry (in Angstrom), charge = 0, multiplicity = 1:

    O           -1.500341100114    -0.128868406026    -0.663788325310
    C           -0.931462777636    -0.603100601648     0.259048875917
    C           -1.548185793025    -1.596998630221     1.206354872837
    O            0.305763935480    -0.322782593387     0.619710758684
    H           -0.988466883735    -2.523480364966     1.174462018500
    H           -2.574458039856    -1.773619024835     0.927308191687
    H           -1.495444732504    -1.216751571724     2.218550186602
    C            1.267282782220     0.413868889818    -0.155037843568
    C            1.372636015863     1.812562637108     0.419786008743
    C            1.060415716065     0.404591890330    -1.663539085125
    H            2.179178373891    -0.137312917931     0.029420061335
    H            1.566318157237     1.774884382946     1.484040022628
    H            2.181688434163     2.352574489047    -0.057861101678
    H            0.452207861454     2.359481596390     0.254168440441
    H            1.975779343679     0.771709806386    -2.115151778430
    H            0.887717226273    -0.598307301672    -2.031093207263
    H            0.239788339735     1.027909571049    -1.977447405877

  Mulliken Charges: (a.u.)
   Center  Symbol    Alpha    Beta     Spin     Total
       1     O     4.19888  4.19888  0.00000 -0.39777
       2     C     2.80468  2.80468  0.00000  0.39064
       3     C     3.13768  3.13768  0.00000 -0.27536
       4     O     4.16417  4.16417  0.00000 -0.32834
       5     H     0.44760  0.44760  0.00000  0.10481
       6     H     0.43925  0.43925  0.00000  0.12150
       7     H     0.44538  0.44538  0.00000  0.10923
       8     C     2.93779  2.93779  0.00000  0.12442
       9     C     3.14679  3.14679  0.00000 -0.29357
      10     C     3.15749  3.15749  0.00000 -0.31498
      11     H     0.44243  0.44243  0.00000  0.11513
      12     H     0.44637  0.44637  0.00000  0.10727
      13     H     0.45214  0.45214  0.00000  0.09573
      14     H     0.44719  0.44719  0.00000  0.10563
      15     H     0.45108  0.45108  0.00000  0.09784
      16     H     0.44561  0.44561  0.00000  0.10878
      17     H     0.43547  0.43547  0.00000  0.12906

   Total alpha = 28.00000, Total beta = 28.00000, Total charge = -0.00000

*** Psi4 exiting successfully. Buy a developer a beer!
