                              Psi4 1.0.54 Driver

  ==> Input File <==

--------------------------------------------------------------------------
set {
	reference rhf
	basis cc-pvtz
}

set_num_threads( 4 )
memory 2 gb

molecule MOL {
0 1

H	 -3.868578	 -1.843293	 0.814714
C	 -2.800452	 -1.742260	 0.847511
C	 -2.089950	 -2.268111	 1.911610
C	 -2.138945	 -1.087016	 -0.173786
H	 -2.604078	 -2.776576	 2.703971
C	 -0.717427	 -2.137886	 1.953051
H	 -2.690859	 -0.679569	 -0.998559
C	 -0.764653	 -0.955807	 -0.133725
H	 -0.151799	 -2.538948	 2.769306
C	 -0.049721	 -1.481387	 0.930769
H	 -0.249294	 -0.448937	 -0.923040
C	 1.434027	 -1.367148	 1.022218
O	 1.968286	 -0.725612	 -0.000027
O	 2.075146	 -1.804974	 1.918015
C	 3.373556	 -0.568203	 0.000011
H	 3.695416	 -0.031588	 -0.879663
H	 3.782700	 -1.565294	 -0.000152
H	 3.695405	 -0.031851	 0.879862

	symmetry c1
}
set optking {
	frozen_dihedral = ("
		12 13 15 16
	")
}

ee,wfn = optimize('scf', return_wfn=True)
oeprop( wfn, 'DIPOLE', 'QUADRUPOLE', 'MULLIKEN_CHARGES')
f=open( 'psi4out.xyz', 'w' )
f.write( "18  " )
f.write( str(ee) + "\n" )
f.write( MOL.save_string_xyz() )
f.close()
--------------------------------------------------------------------------

    Molecular point group: c1
  Charge       = 0
  Multiplicity = 1
  Basis Set: CC-PVTZ
  Basis Set:
  @DF-RHF Final Energy:  -457.50865864140894
    Total Energy =                       -457.5086586414091698
    Molecular point group: c1
  Basis Set: CC-PVTZ
  Basis Set:
  Basis Set: CC-PVTZ
  Basis Set:
  @DF-RHF Final Energy:  -457.50979663338882
    Total Energy =                       -457.5097966333891009
  Basis Set: CC-PVTZ
  Basis Set:
  Basis Set: CC-PVTZ
  Basis Set:
  @DF-RHF Final Energy:  -457.51003730745191
    Total Energy =                       -457.5100373074521940
  Basis Set: CC-PVTZ
  Basis Set:
  Basis Set: CC-PVTZ
  Basis Set:
  @DF-RHF Final Energy:  -457.50966016454811
    Total Energy =                       -457.5096601645482224
  Basis Set: CC-PVTZ
  Basis Set:
  Basis Set: CC-PVTZ
  Basis Set:
  @DF-RHF Final Energy:  -457.51024214927560
    Total Energy =                       -457.5102421492756548
  Basis Set: CC-PVTZ
  Basis Set:
  Charge       = 0
  Multiplicity = 1
  Basis Set: CC-PVTZ
  Basis Set:

    Orbital Energies (a.u.)
    -----------------------

    Doubly Occupied:

       1A    -20.601013     2A    -20.534490     3A    -11.371752
       4A    -11.281237     5A    -11.245017     6A    -11.243544
       7A    -11.242749     8A    -11.240104     9A    -11.236111
      10A    -11.235351    11A     -1.477091    12A     -1.368458
      13A     -1.170845    14A     -1.051908    15A     -1.029110
      16A     -0.980518    17A     -0.863278    18A     -0.838524
      19A     -0.781288    20A     -0.745089    21A     -0.687879
      22A     -0.681844    23A     -0.676426    24A     -0.634120
      25A     -0.630113    26A     -0.601356    27A     -0.587559
      28A     -0.564971    29A     -0.531959    30A     -0.520373
      31A     -0.509506    32A     -0.502302    33A     -0.464212
      34A     -0.449517    35A     -0.350253    36A     -0.346306

  @DF-RHF Final Energy:  -457.51024325121330

   => Energetics <=

    Nuclear Repulsion Energy =            494.0549736192920136
    One-Electron Energy =               -1602.5780882603389728
    Two-Electron Energy =                 651.0128713898334354
    DFT Exchange-Correlation Energy =       0.0000000000000000
    Empirical Dispersion Energy =           0.0000000000000000
    PCM Polarization Energy =               0.0000000000000000
    EFP Energy =                            0.0000000000000000
    Total Energy =                       -457.5102432512135238
    Molecular point group: c1
  Basis Set: CC-PVTZ
  Basis Set:

  -Total Gradient:
     Atom            X                  Y                   Z
    ------   -----------------  -----------------  -----------------
       1        0.000003190189     0.000001754900    -0.000003064446
       2        0.000000840718    -0.000003696277     0.000005500061
       3       -0.000005323179     0.000004522661     0.000000030016
       4        0.000005317641     0.000006825899    -0.000013401970
       5        0.000005642971     0.000000947154     0.000000002569
       6        0.000027610728    -0.000010702768     0.000015769215
       7       -0.000000136101     0.000000814656    -0.000000539840
       8        0.000004055728     0.000009093510    -0.000018496359
       9        0.000000671291     0.000000064870    -0.000000919518
      10        0.000064638656    -0.000001875801     0.000009776625
      11        0.000003254252     0.000002254960    -0.000000400654
      12       -0.000086824756     0.000021131597    -0.000045748877
      13       -0.000019631748     0.000038386304    -0.000051600956
      14        0.000040049371    -0.000031925612     0.000064479053
      15        0.000067378614    -0.000028305456     0.000035174465
      16       -0.000044272642    -0.000009786079     0.000008296586
      17       -0.000030141772     0.000000171222    -0.000004703443
      18       -0.000036319955     0.000000324260    -0.000000152530

  **** Optimization is complete! (in 6 steps) ****
    Final optimized geometry and variables:
    Molecular point group: c1

    Geometry (in Angstrom), charge = 0, multiplicity = 1:

    H           -4.005897160145    -0.561013398151     0.197220618134
    C           -2.940676476356    -0.430169997196     0.176559469398
    C           -2.163325782797    -0.935809117315     1.203206665871
    C           -2.349656059326     0.243051882356    -0.875756793095
    H           -2.622754822081    -1.458285107448     2.019755245615
    C           -0.794639115890    -0.767367339695     1.176041581703
    H           -2.953203908438     0.634850641585    -1.671470303450
    C           -0.979150302591     0.412593809481    -0.904382096834
    H           -0.177912732975    -1.152386364410     1.962537659572
    C           -0.197587012733    -0.092631005613     0.122329211317
    H           -0.518408915223     0.933573138798    -1.717983420760
    C            1.285247763607     0.062924244042     0.139703759953
    O            1.749711716629     0.718848257958    -0.907012363710
    O            1.982336203915    -0.356771065210     1.001781841023
    C            3.148082097441     0.914923507476    -0.976846469811
    H            3.325071495257     1.461122140437    -1.888964254155
    H            3.663597964761    -0.033279275572    -1.002652262952
    H            3.494574248050     1.483596104734    -0.127097630427

  Mulliken Charges: (a.u.)
   Center  Symbol    Alpha    Beta     Spin     Total
       1     H     0.42028  0.42028  0.00000  0.15944
       2     C     3.06974  3.06974  0.00000 -0.13949
       3     C     3.07550  3.07550  0.00000 -0.15100
       4     C     3.07493  3.07493  0.00000 -0.14986
       5     H     0.42037  0.42037  0.00000  0.15925
       6     C     3.07590  3.07590  0.00000 -0.15179
       7     H     0.42188  0.42188  0.00000  0.15625
       8     C     3.08211  3.08211  0.00000 -0.16422
       9     H     0.40667  0.40667  0.00000  0.18666
      10     C     3.01229  3.01229  0.00000 -0.02458
      11     H     0.41102  0.41102  0.00000  0.17795
      12     C     2.78241  2.78241  0.00000  0.43518
      13     O     4.14836  4.14836  0.00000 -0.29672
      14     O     4.21129  4.21129  0.00000 -0.42258
      15     C     3.03660  3.03660  0.00000 -0.07320
      16     H     0.44530  0.44530  0.00000  0.10939
      17     H     0.45267  0.45267  0.00000  0.09465
      18     H     0.45267  0.45267  0.00000  0.09467

   Total alpha = 36.00000, Total beta = 36.00000, Total charge =  0.00000

*** Psi4 exiting successfully. Buy a developer a beer!
