  ==> Input File <==

--------------------------------------------------------------------------
set {
	reference rhf
	basis cc-pvtz
}

set_num_threads( 4 )
memory 2 gb

molecule MOL {
0 1

H	 3.721907	 -0.933076	 -0.066039
O	 2.824271	 -1.154299	 0.131461
C	 2.076458	 -0.067370	 -0.038225
C	 0.626018	 -0.337582	 0.258241
O	 2.538288	 0.965419	 -0.381593
C	 -0.267326	 0.883135	 0.076490
H	 0.325620	 -1.161483	 -0.378003
H	 0.574537	 -0.713685	 1.275261
C	 -1.726822	 0.642622	 0.463839
H	 -0.210803	 1.217591	 -0.953497
H	 0.129920	 1.693110	 0.675679
C	 -2.480891	 -0.340606	 -0.429852
H	 -2.243098	 1.597649	 0.438609
H	 -1.776542	 0.301208	 1.495542
C	 -2.341272	 -1.786244	 0.036104
H	 -3.532951	 -0.068963	 -0.450171
H	 -2.125869	 -0.265529	 -1.452729
H	 -2.886376	 -2.462128	 -0.612530
H	 -2.725365	 -1.911439	 1.042829
H	 -1.301881	 -2.097388	 0.039174

	symmetry c1
}
set optking {
	frozen_dihedral = ("
		16 12 9 6
	")
}

ee = optimize('scf')
oeprop('DIPOLE', 'QUADRUPOLE', 'MULLIKEN_CHARGES')
f=open( 'psi4out.xyz', 'w' )
f.write( "20  " )
f.write( str(ee) + "\n" )
f.write( MOL.save_string_xyz() )
f.close()
--------------------------------------------------------------------------

    Molecular point group: c1
  Charge       = 0
  Multiplicity = 1
  Basis Set: CC-PVTZ
  Basis Set:
  @DF-RHF Final Energy:  -384.08832342399432
    Total Energy =                       -384.0883234239945523
    Molecular point group: c1
  Basis Set: CC-PVTZ
  Basis Set:
  Basis Set: CC-PVTZ
  Basis Set:
  @DF-RHF Final Energy:  -384.09003809682810
    Total Energy =                       -384.0900380968280388
  Basis Set: CC-PVTZ
  Basis Set:
  Basis Set: CC-PVTZ
  Basis Set:
  @DF-RHF Final Energy:  -384.09017543338473
    Total Energy =                       -384.0901754333845020
  Basis Set: CC-PVTZ
  Basis Set:
  Basis Set: CC-PVTZ
  Basis Set:
  @DF-RHF Final Energy:  -384.09009754681159
    Total Energy =                       -384.0900975468111938
  Basis Set: CC-PVTZ
  Basis Set:
  Basis Set: CC-PVTZ
  Basis Set:
  @DF-RHF Final Energy:  -384.09026436541802
    Total Energy =                       -384.0902643654175108
  Basis Set: CC-PVTZ
  Basis Set:
  Basis Set: CC-PVTZ
  Basis Set:
  @DF-RHF Final Energy:  -384.09026709272115
    Total Energy =                       -384.0902670927214331
  Basis Set: CC-PVTZ
  Basis Set:
  Charge       = 0
  Multiplicity = 1
  Basis Set: CC-PVTZ
  Basis Set:

    Orbital Energies (a.u.)
    -----------------------

    Doubly Occupied:

       1A    -20.603942     2A    -20.540651     3A    -11.373415
       4A    -11.238647     5A    -11.221078     6A    -11.219266
       7A    -11.218590     8A    -11.211477     9A     -1.477558
      10A     -1.369098    11A     -1.095714    12A     -1.039800
      13A     -0.965071    14A     -0.876418    15A     -0.813396
      16A     -0.776400    17A     -0.703829    18A     -0.693180
      19A     -0.667511    20A     -0.626057    21A     -0.613676
      22A     -0.599099    23A     -0.580190    24A     -0.555314
      25A     -0.536084    26A     -0.520460    27A     -0.498919
      28A     -0.484515    29A     -0.470067    30A     -0.465734
      31A     -0.456833    32A     -0.443692

  @DF-RHF Final Energy:  -384.09026748154264

   => Energetics <=

    Nuclear Repulsion Energy =            382.1422935279522903
    One-Electron Energy =               -1280.5537510463805120
    Two-Electron Energy =                 514.3211900368851275
    DFT Exchange-Correlation Energy =       0.0000000000000000
    Empirical Dispersion Energy =           0.0000000000000000
    PCM Polarization Energy =               0.0000000000000000
    EFP Energy =                            0.0000000000000000
    Total Energy =                       -384.0902674815431510
    Molecular point group: c1
  Basis Set: CC-PVTZ
  Basis Set:

  -Total Gradient:
     Atom            X                  Y                   Z
    ------   -----------------  -----------------  -----------------
       1       -0.000002806391     0.000001817060    -0.000000920910
       2       -0.000006569971    -0.000004242391     0.000000923350
       3       -0.000000507863     0.000016115557     0.000011410590
       4       -0.000007739516    -0.000009416938    -0.000008968157
       5       -0.000010882477    -0.000011739073    -0.000006618873
       6        0.000099275210    -0.000256492989     0.000235837693
       7        0.000011241583     0.000002815441    -0.000000360823
       8       -0.000003064607    -0.000005110306    -0.000001689527
       9       -0.000162306853     0.000340121941    -0.000245896740
      10       -0.000004034478    -0.000000448228     0.000006250588
      11        0.000006500511     0.000004422071     0.000001988907
      12        0.000131483411     0.000214592590    -0.000384032603
      13        0.000017947045     0.000009673845     0.000007461900
      14        0.000010213459     0.000006188101    -0.000003051694
      15       -0.000002425220    -0.000027322376    -0.000003316588
      16       -0.000083553357    -0.000267514874     0.000388521944
      17       -0.000001500731    -0.000014671325     0.000003238630
      18        0.000010360877    -0.000001949071     0.000008513209
      19        0.000006479232    -0.000000768193    -0.000010932370
      20       -0.000008109862     0.000003929160     0.000001641477

  **** Optimization is complete! (in 7 steps) ****
    Final optimized geometry and variables:
    Molecular point group: c1

    Geometry (in Angstrom), charge = 0, multiplicity = 1:

    H            3.575191836252    -0.676653824530    -0.047034307598
    O            2.677784547734    -0.932795236708     0.103871052754
    C            1.905049826574     0.141257273221    -0.033838101067
    C            0.453015318636    -0.186795563958     0.191993275486
    O            2.348334365760     1.203800013486    -0.302727437273
    C           -0.465608828402     1.017918783551     0.033813985888
    H            0.205671117619    -0.982428607247    -0.499437273324
    H            0.375818934991    -0.618133977276     1.184872899402
    C           -1.928844162896     0.787753093777     0.422723636407
    H           -0.416518925821     1.366659376184    -0.992058191479
    H           -0.074017730331     1.825860777611     0.639562440889
    C           -2.727883551996    -0.206947043307    -0.434345706871
    H           -2.418141102829     1.753983682094     0.363903104277
    H           -1.985624809107     0.489812066025     1.467169772679
    C           -2.680084449085    -1.662913561092     0.028632386640
    H           -3.768115844251     0.101336089874    -0.428182010657
    H           -2.402460757854    -0.138548146329    -1.468939230374
    H           -3.303434077671    -2.284617728714    -0.604033146369
    H           -3.050480346358    -1.753897779335     1.044280447509
    H           -1.681030451097    -2.077913596115     0.007607798978

  Mulliken Charges: (a.u.)
   Center  Symbol    Alpha    Beta     Spin     Total
       1     H     0.38224  0.38224  0.00000  0.23553
       2     O     4.16030  4.16030  0.00000 -0.32060
       3     C     2.80480  2.80480  0.00000  0.39039
       4     C     3.11817  3.11817  0.00000 -0.23634
       5     O     4.19047  4.19047  0.00000 -0.38093
       6     C     3.08952  3.08952  0.00000 -0.17903
       7     H     0.43572  0.43572  0.00000  0.12857
       8     H     0.43501  0.43501  0.00000  0.12999
       9     C     3.10464  3.10464  0.00000 -0.20928
      10     H     0.44633  0.44633  0.00000  0.10734
      11     H     0.43882  0.43882  0.00000  0.12236
      12     C     3.09688  3.09688  0.00000 -0.19376
      13     H     0.44142  0.44142  0.00000  0.11715
      14     H     0.45421  0.45421  0.00000  0.09158
      15     C     3.14996  3.14996  0.00000 -0.29992
      16     H     0.44539  0.44539  0.00000  0.10922
      17     H     0.45163  0.45163  0.00000  0.09673
      18     H     0.44616  0.44616  0.00000  0.10769
      19     H     0.45336  0.45336  0.00000  0.09328
      20     H     0.45499  0.45499  0.00000  0.09001

   Total alpha = 32.00000, Total beta = 32.00000, Total charge = -0.00000
