                              Psi4 1.0.54 Driver

  ==> Input File <==

--------------------------------------------------------------------------
set {
	reference rhf
	basis cc-pvtz
}

set_num_threads( 4 )
memory 2 gb

molecule MOL {
0 1

H	 2.808338	 0.364424	 1.557860
O	 2.110845	 0.905066	 1.236512
C	 1.135873	 0.113391	 0.608264
C	 0.027642	 1.012027	 0.090274
H	 0.714697	 -0.598526	 1.313638
H	 1.576794	 -0.457346	 -0.204330
C	 -1.138737	 0.285728	 -0.581921
H	 0.464661	 1.708096	 -0.618252
H	 -0.340737	 1.603071	 0.925246
C	 -1.933983	 -0.631436	 0.343653
H	 -0.763151	 -0.285569	 -1.422081
H	 -1.808359	 1.035291	 -0.992333
H	 -2.789188	 -1.049673	 -0.174718
H	 -1.335629	 -1.461368	 0.700418
H	 -2.305435	 -0.092167	 1.209725

	symmetry c1
}
set optking {
	frozen_dihedral = ("
		2 3 4 8
	")
}

ee,wfn = optimize('scf', return_wfn=True)
oeprop( wfn, 'DIPOLE', 'QUADRUPOLE', 'MULLIKEN_CHARGES')
f=open( 'psi4out.xyz', 'w' )
f.write( "15  " )
f.write( str(ee) + "\n" )
f.write( MOL.save_string_xyz() )
f.close()
--------------------------------------------------------------------------

    Molecular point group: c1
  Charge       = 0
  Multiplicity = 1
  Basis Set: CC-PVTZ
  Basis Set:
  @DF-RHF Final Energy:  -232.23696160597959
    Total Energy =                       -232.2369616059796158
    Molecular point group: c1
  Basis Set: CC-PVTZ
  Basis Set:
  Basis Set: CC-PVTZ
  Basis Set:
  @DF-RHF Final Energy:  -232.23702943482607
    Total Energy =                       -232.2370294348261268
  Basis Set: CC-PVTZ
  Basis Set:
  Basis Set: CC-PVTZ
  Basis Set:
  @DF-RHF Final Energy:  -232.23723667397368
    Total Energy =                       -232.2372366739737117
  Basis Set: CC-PVTZ
  Basis Set:
  Basis Set: CC-PVTZ
  Basis Set:
  @DF-RHF Final Energy:  -232.23724060688662
    Total Energy =                       -232.2372406068866439
  Basis Set: CC-PVTZ
  Basis Set:
  Charge       = 0
  Multiplicity = 1
  Basis Set: CC-PVTZ
  Basis Set:

    Orbital Energies (a.u.)
    -----------------------

    Doubly Occupied:

       1A    -20.545373     2A    -11.264779     3A    -11.216604
       4A    -11.209704     5A    -11.208536     6A     -1.363132
       7A     -1.070658     8A     -0.972288     9A     -0.869764
      10A     -0.785227    11A     -0.697999    12A     -0.653546
      13A     -0.619511    14A     -0.582810    15A     -0.558546
      16A     -0.540134    17A     -0.507220    18A     -0.474908
      19A     -0.473618    20A     -0.457553    21A     -0.436194

  @DF-RHF Final Energy:  -232.23724094496359

   => Energetics <=

    Nuclear Repulsion Energy =            188.3108995863373991
    One-Electron Energy =                -688.0800776220378339
    Two-Electron Energy =                 267.5319370907367329
    DFT Exchange-Correlation Energy =       0.0000000000000000
    Empirical Dispersion Energy =           0.0000000000000000
    PCM Polarization Energy =               0.0000000000000000
    EFP Energy =                            0.0000000000000000
    Total Energy =                       -232.2372409449636734
    Molecular point group: c1
  Basis Set: CC-PVTZ
  Basis Set:

  -Total Gradient:
     Atom            X                  Y                   Z
    ------   -----------------  -----------------  -----------------
       1       -0.000009958216     0.000022117978    -0.000009183035
       2       -0.000297768150    -0.000117695686     0.000703544057
       3        0.000392867824     0.000023029307    -0.001057918900
       4        0.000154142073     0.000641206634     0.001127940597
       5       -0.000005616345     0.000011323002    -0.000018614920
       6       -0.000007359996    -0.000003629948     0.000013113787
       7       -0.000018977466     0.000006009720     0.000011310791
       8       -0.000217523671    -0.000597411577    -0.000760905998
       9       -0.000008410010    -0.000008633015    -0.000013046751
      10        0.000001597051     0.000013486228     0.000007364324
      11        0.000016030678     0.000009178498     0.000006148165
      12       -0.000000271971    -0.000007119811    -0.000002814219
      13        0.000007935102     0.000009393929    -0.000001722874
      14       -0.000008109754     0.000010574446    -0.000007058059
      15        0.000001422854    -0.000011829705     0.000001843036

  **** Optimization is complete! (in 5 steps) ****
    Final optimized geometry and variables:
    Molecular point group: c1

    Geometry (in Angstrom), charge = 0, multiplicity = 1:

    H            2.757997304415    -0.086562731922     1.080885286414
    O            2.058052112851     0.479357478500     0.812787985596
    C            1.050747035050    -0.265252323517     0.179309722330
    C           -0.054740073200     0.688532921578    -0.231754479389
    H            0.669466450773    -1.026020952025     0.854016378506
    H            1.444370914093    -0.772146345848    -0.699511903631
    C           -1.246444831040     0.013028126808    -0.912201493416
    H            0.373111022564     1.418108557488    -0.910871855687
    H           -0.386630116278     1.232424504097     0.646852472181
    C           -2.085777888758    -0.879335728625     0.000063782130
    H           -0.897453605607    -0.566410873977    -1.763189884139
    H           -1.885642831994     0.788513592318    -1.320927391476
    H           -2.950950451236    -1.262357038961    -0.528829047282
    H           -1.526184726958    -1.732228055977     0.365233997321
    H           -2.443943684311    -0.326025064164     0.861924992539

  Mulliken Charges: (a.u.)
   Center  Symbol    Alpha    Beta     Spin     Total
       1     H     0.39712  0.39712  0.00000  0.20577
       2     O     4.19571  4.19571  0.00000 -0.39141
       3     C     2.96155  2.96155  0.00000  0.07690
       4     C     3.09040  3.09040  0.00000 -0.18080
       5     H     0.47380  0.47380  0.00000  0.05240
       6     H     0.47456  0.47456  0.00000  0.05088
       7     C     3.09851  3.09851  0.00000 -0.19702
       8     H     0.44722  0.44722  0.00000  0.10556
       9     H     0.45108  0.45108  0.00000  0.09785
      10     C     3.15075  3.15075  0.00000 -0.30150
      11     H     0.45555  0.45555  0.00000  0.08889
      12     H     0.44724  0.44724  0.00000  0.10552
      13     H     0.44677  0.44677  0.00000  0.10646
      14     H     0.45632  0.45632  0.00000  0.08735
      15     H     0.45341  0.45341  0.00000  0.09317

   Total alpha = 21.00000, Total beta = 21.00000, Total charge = -0.00000

*** Psi4 exiting successfully. Buy a developer a beer!
