  ==> Input File <==

--------------------------------------------------------------------------
set {
	reference rhf
	basis cc-pvtz
}

set_num_threads( 4 )
memory 2 gb

molecule MOL {
0 1

H	 -2.470391	 1.440332	 2.323459
C	 -2.407034	 0.554794	 1.725030
C	 -1.320516	 0.322482	 1.030152
H	 -3.238431	 -0.122267	 1.712154
O	 -1.189946	 -0.765863	 0.237511
H	 -0.478180	 0.989902	 1.042365
C	 0.026572	 -0.995256	 -0.379403
C	 1.057223	 0.049888	 -0.004615
H	 -0.054361	 -1.010670	 -1.459674
H	 0.397526	 -1.952058	 -0.044198
F	 2.203233	 -0.234060	 -0.590375
F	 0.698147	 1.254887	 -0.392621
F	 1.266440	 0.094219	 1.288722

	symmetry c1
}
set optking {
	frozen_dihedral = ("
		3 5 7 9
	")
}

ee = optimize('scf')
oeprop('DIPOLE', 'QUADRUPOLE', 'MULLIKEN_CHARGES')
f=open( 'psi4out.xyz', 'w' )
f.write( "13  " )
f.write( str(ee) + "\n" )
f.write( MOL.save_string_xyz() )
f.close()
--------------------------------------------------------------------------

    Molecular point group: c1
  Charge       = 0
  Multiplicity = 1
  Basis Set: CC-PVTZ
  Basis Set:
  @DF-RHF Final Energy:  -527.71605374657520
    Total Energy =                       -527.7160537465754260
    Molecular point group: c1
  Basis Set: CC-PVTZ
  Basis Set:
  Basis Set: CC-PVTZ
  Basis Set:
  @DF-RHF Final Energy:  -527.72698376092217
    Total Energy =                       -527.7269837609222805
  Basis Set: CC-PVTZ
  Basis Set:
  Basis Set: CC-PVTZ
  Basis Set:
  @DF-RHF Final Energy:  -527.73086995288736
    Total Energy =                       -527.7308699528873603
  Basis Set: CC-PVTZ
  Basis Set:
  Basis Set: CC-PVTZ
  Basis Set:
  @DF-RHF Final Energy:  -527.73184732818277
    Total Energy =                       -527.7318473281829938
  Basis Set: CC-PVTZ
  Basis Set:
  @DF-RHF Final Energy:  -527.73202877091887
    Total Energy =                       -527.7320287709185322
  @DF-RHF Final Energy:  -527.73205678188242
    Total Energy =                       -527.7320567818824202
  @DF-RHF Final Energy:  -527.73206614776382
    Total Energy =                       -527.7320661477638168
  @DF-RHF Final Energy:  -527.73206850428892
    Total Energy =                       -527.7320685042891455
  Basis Set: CC-PVTZ
  Basis Set:
  @DF-RHF Final Energy:  -527.73207022212023
    Total Energy =                       -527.7320702221202282
  Basis Set: CC-PVTZ
  Basis Set:
  Basis Set: CC-PVTZ
  Basis Set:
  @DF-RHF Final Energy:  -527.73207550751022
    Total Energy =                       -527.7320755075098759
  Basis Set: CC-PVTZ
  Basis Set:
  Basis Set: CC-PVTZ
  Basis Set:
  @DF-RHF Final Energy:  -527.73207716642537
    Total Energy =                       -527.7320771664251424
  Basis Set: CC-PVTZ
  Basis Set:
  Charge       = 0
  Multiplicity = 1
  Basis Set: CC-PVTZ
  Basis Set:

    Orbital Energies (a.u.)
    -----------------------

    Doubly Occupied:

       1A    -26.348697     2A    -26.348247     3A    -26.347979
       4A    -20.598534     5A    -11.508536     6A    -11.321738
       7A    -11.295632     8A    -11.210076     9A     -1.759170
      10A     -1.654533    11A     -1.654389    12A     -1.435653
      13A     -1.089110    14A     -1.023945    15A     -0.938279
      16A     -0.852877    17A     -0.848449    18A     -0.843302
      19A     -0.766129    20A     -0.732156    21A     -0.730332
      22A     -0.707919    23A     -0.690735    24A     -0.671095
      25A     -0.664420    26A     -0.659534    27A     -0.651094
      28A     -0.590004    29A     -0.560260    30A     -0.532137
      31A     -0.501101    32A     -0.352353

  @DF-RHF Final Energy:  -527.73207766487394

   => Energetics <=

    Nuclear Repulsion Energy =            416.3430989632608998
    One-Electron Energy =               -1556.3735202835005111
    Two-Electron Energy =                 612.2983436553660113
    DFT Exchange-Correlation Energy =       0.0000000000000000
    Empirical Dispersion Energy =           0.0000000000000000
    PCM Polarization Energy =               0.0000000000000000
    EFP Energy =                            0.0000000000000000
    Total Energy =                       -527.7320776648736000
    Molecular point group: c1
  Basis Set: CC-PVTZ
  Basis Set:

  -Total Gradient:
     Atom            X                  Y                   Z
    ------   -----------------  -----------------  -----------------
       1        0.000000495047    -0.000003403552    -0.000003081788
       2       -0.000012917087     0.000022065731     0.000024608690
       3        0.000065413950    -0.000077875485     0.000032349923
       4       -0.000004309971    -0.000008267981    -0.000002986241
       5       -0.000053730316     0.000033495917    -0.000130292283
       6        0.000003895209     0.000015340015     0.000005108789
       7        0.000029039853     0.000103692446     0.000057834470
       8        0.000061846365    -0.000060588360    -0.000009818954
       9       -0.000038787849    -0.000089104506     0.000000882740
      10       -0.000003745935    -0.000002052467     0.000000199431
      11       -0.000033496935     0.000023556617    -0.000001077079
      12       -0.000006744522     0.000018491966     0.000000159629
      13       -0.000006957803     0.000024649657     0.000026112673

  **** Optimization is complete! (in 12 steps) ****
    Final optimized geometry and variables:
    Molecular point group: c1

    Geometry (in Angstrom), charge = 0, multiplicity = 1:

    H           -2.962412132781     1.321327575592     2.084194019167
    C           -2.772429154142     0.449972425466     1.491542500476
    C           -1.705696517070     0.409592474353     0.729658357340
    H           -3.468544155366    -0.364840664607     1.530498383824
    O           -1.458806909839    -0.651302662032    -0.072431453729
    H           -1.014216727161     1.225089931824     0.686277079264
    C           -0.231759966799    -0.947339676990    -0.653023277664
    C            0.949208217439    -0.045661130227    -0.352911164007
    H           -0.344328730470    -0.951153036912    -1.729112778407
    H            0.064452965217    -1.938412628757    -0.336493054508
    F            2.007745988438    -0.546177098388    -0.952886152840
    F            0.786798222229     1.181544846603    -0.802949516437
    F            1.218799313637     0.034809111780     0.930633817716

  Mulliken Charges: (a.u.)
   Center  Symbol    Alpha    Beta     Spin     Total
       1     H     0.42534  0.42534  0.00000  0.14932
       2     C     3.19827  3.19827  0.00000 -0.39653
       3     C     2.96548  2.96548  0.00000  0.06904
       4     H     0.42594  0.42594  0.00000  0.14811
       5     O     4.14787  4.14787  0.00000 -0.29573
       6     H     0.42578  0.42578  0.00000  0.14844
       7     C     2.98989  2.98989  0.00000  0.02022
       8     C     2.69166  2.69166  0.00000  0.61668
       9     H     0.45173  0.45173  0.00000  0.09655
      10     H     0.45078  0.45078  0.00000  0.09843
      11     F     4.60583  4.60583  0.00000 -0.21166
      12     F     4.61199  4.61199  0.00000 -0.22398
      13     F     4.60945  4.60945  0.00000 -0.21890

   Total alpha = 32.00000, Total beta = 32.00000, Total charge =  0.00000
