  ==> Input File <==

--------------------------------------------------------------------------
set {
	reference rhf
	basis cc-pvtz
}

set_num_threads( 4 )
memory 2 gb

molecule MOL {
0 1

H	 2.045048	 2.139976	 -0.894453
N	 1.230856	 1.566976	 -0.960432
C	 1.263552	 0.494993	 0.021953
H	 1.203925	 1.199151	 -1.888503
C	 -0.016533	 -0.325589	 -0.026925
H	 1.360841	 0.947585	 1.003120
H	 2.120127	 -0.168885	 -0.102663
C	 -1.280353	 0.525521	 0.047747
H	 -0.016686	 -0.912532	 -0.939714
H	 -0.014099	 -1.037598	 0.796369
C	 -2.560681	 -0.301323	 -0.007747
H	 -1.279957	 1.241025	 -0.770189
H	 -1.270445	 1.110526	 0.963468
H	 -2.617064	 -0.872870	 -0.928010
H	 -3.439525	 0.331102	 0.043462
H	 -2.609427	 -1.002736	 0.818585

	symmetry c1
}
set optking {
	frozen_dihedral = ("
		6 3 5 9
	")
}

ee = optimize('scf')
oeprop('DIPOLE', 'QUADRUPOLE', 'MULLIKEN_CHARGES')
f=open( 'psi4out.xyz', 'w' )
f.write( "16  " )
f.write( str(ee) + "\n" )
f.write( MOL.save_string_xyz() )
f.close()
--------------------------------------------------------------------------

    Molecular point group: c1
  Charge       = 0
  Multiplicity = 1
  Basis Set: CC-PVTZ
  Basis Set:
  @DF-RHF Final Energy:  -212.39848240122805
    Total Energy =                       -212.3984824012281933
    Molecular point group: c1
  Basis Set: CC-PVTZ
  Basis Set:
  Basis Set: CC-PVTZ
  Basis Set:
  @DF-RHF Final Energy:  -212.39895036978862
    Total Energy =                       -212.3989503697888495
  Basis Set: CC-PVTZ
  Basis Set:
  Basis Set: CC-PVTZ
  Basis Set:
  @DF-RHF Final Energy:  -212.39916845148389
    Total Energy =                       -212.3991684514838880
  Basis Set: CC-PVTZ
  Basis Set:
  Basis Set: CC-PVTZ
  Basis Set:
  @DF-RHF Final Energy:  -212.39917497135434
    Total Energy =                       -212.3991749713543413
  Basis Set: CC-PVTZ
  Basis Set:
  Charge       = 0
  Multiplicity = 1
  Basis Set: CC-PVTZ
  Basis Set:

    Orbital Energies (a.u.)
    -----------------------

    Doubly Occupied:

       1A    -15.527447     2A    -11.239075     3A    -11.209027
       4A    -11.203725     5A    -11.201279     6A     -1.179288
       7A     -1.054253     8A     -0.959683     9A     -0.847729
      10A     -0.781883    11A     -0.668077    12A     -0.624028
      13A     -0.614968    14A     -0.575539    15A     -0.563371
      16A     -0.520503    17A     -0.499664    18A     -0.468110
      19A     -0.462904    20A     -0.458536    21A     -0.382149

  @DF-RHF Final Energy:  -212.39917531520064

   => Energetics <=

    Nuclear Repulsion Energy =            189.1193897238932777
    One-Electron Energy =                -660.9546590785511171
    Two-Electron Energy =                 259.4360940394570889
    DFT Exchange-Correlation Energy =       0.0000000000000000
    Empirical Dispersion Energy =           0.0000000000000000
    PCM Polarization Energy =               0.0000000000000000
    EFP Energy =                            0.0000000000000000
    Total Energy =                       -212.3991753152007504
    Molecular point group: c1
  Basis Set: CC-PVTZ
  Basis Set:

  -Total Gradient:
     Atom            X                  Y                   Z
    ------   -----------------  -----------------  -----------------
       1        0.000008797298    -0.000005434936    -0.000007268209
       2       -0.000021092032     0.000011867107     0.000010615738
       3       -0.001379804976     0.002262662798    -0.000798300424
       4       -0.000003329004    -0.000003237891    -0.000008799120
       5       -0.001182905185     0.002071848659    -0.001467737589
       6        0.001345076193    -0.002257375550     0.000916899778
       7        0.000002407292     0.000007672475    -0.000001618135
       8        0.000012426968    -0.000003955438     0.000010302166
       9        0.001235307034    -0.002098655090     0.001346179068
      10       -0.000005216116    -0.000001001370     0.000000970180
      11       -0.000006258195     0.000001793768     0.000010220208
      12        0.000001575755     0.000004893732    -0.000010135011
      13       -0.000012753614     0.000005411919    -0.000000600941
      14        0.000006380296     0.000006112762    -0.000000496875
      15       -0.000000780340    -0.000003148652     0.000000913013
      16        0.000000168626     0.000000545707    -0.000001143848

  **** Optimization is complete! (in 5 steps) ****
    Final optimized geometry and variables:
    Molecular point group: c1

    Geometry (in Angstrom), charge = 0, multiplicity = 1:

    H            2.385076762223     1.709837994924    -0.663893382691
    N            1.558757643883     1.160824682116    -0.769201364541
    C            1.505932982948     0.102196243793     0.226310814745
    H            1.574410019294     0.779445549144    -1.692445043480
    C            0.212902998734    -0.702579540530     0.150815720993
    H            1.590695726548     0.550877138063     1.210628210083
    H            2.342162724379    -0.592816152731     0.142010647462
    C           -1.066350309614     0.122017652352     0.250660157024
    H            0.210740238953    -1.293736065198    -0.763565817245
    H            0.233520320642    -1.429343606265     0.959680366431
    C           -2.324444479673    -0.740156338847     0.230039965102
    H           -1.100124906202     0.839950207986    -0.558474831148
    H           -1.041445312199     0.703086661564     1.168838031646
    H           -2.392174417469    -1.312354871489    -0.689751408118
    H           -3.217979580299    -0.130886268014     0.304617174876
    H           -2.335079175081    -1.444232819763     1.055914182503

  Mulliken Charges: (a.u.)
   Center  Symbol    Alpha    Beta     Spin     Total
       1     H     0.42906  0.42906  0.00000  0.14189
       2     N     3.68901  3.68901  0.00000 -0.37802
       3     C     3.03813  3.03813  0.00000 -0.07626
       4     H     0.43088  0.43088  0.00000  0.13825
       5     C     3.09353  3.09353  0.00000 -0.18705
       6     H     0.45600  0.45600  0.00000  0.08799
       7     H     0.46061  0.46061  0.00000  0.07878
       8     C     3.07490  3.07490  0.00000 -0.14980
       9     H     0.45632  0.45632  0.00000  0.08737
      10     H     0.45290  0.45290  0.00000  0.09420
      11     C     3.15029  3.15029  0.00000 -0.30057
      12     H     0.44786  0.44786  0.00000  0.10429
      13     H     0.45794  0.45794  0.00000  0.08412
      14     H     0.45667  0.45667  0.00000  0.08665
      15     H     0.44885  0.44885  0.00000  0.10230
      16     H     0.45707  0.45707  0.00000  0.08587

   Total alpha = 21.00000, Total beta = 21.00000, Total charge =  0.00000
