                              Psi4 1.0.54 Driver

  ==> Input File <==

--------------------------------------------------------------------------
set {
	reference rhf
	basis cc-pvtz
}

set_num_threads( 4 )
memory 2 gb

molecule MOL {
0 1

O	 1.067959	 1.538514	 0.448044
C	 0.689657	 0.806633	 1.297925
C	 -0.592463	 0.015098	 1.264729
O	 1.362780	 0.584583	 2.415054
C	 -1.413045	 0.229353	 0.001137
H	 -0.327546	 -1.029836	 1.388880
H	 -1.158151	 0.283501	 2.150967
C	 -2.702562	 -0.586401	 0.000228
H	 -0.813272	 -0.030849	 -0.863795
H	 -1.645235	 1.283515	 -0.100714
C	 -3.953810	 0.284959	 -0.000782
H	 -2.717793	 -1.238567	 -0.869075
H	 -2.719108	 -1.238472	 0.869576
H	 -3.983727	 0.924403	 -0.876454
H	 -4.852989	 -0.320147	 -0.001515
H	 -3.985140	 0.924399	 0.874841
C	 2.590237	 1.265531	 2.579301
H	 3.281873	 0.999765	 1.793657
H	 2.977049	 0.955122	 3.536323
H	 2.437784	 2.334572	 2.567769

	symmetry c1
}
set optking {
	frozen_dihedral = ("
		9 5 8 12
	")
}

ee,wfn = optimize('scf', return_wfn=True)
oeprop( wfn, 'DIPOLE', 'QUADRUPOLE', 'MULLIKEN_CHARGES')
f=open( 'psi4out.xyz', 'w' )
f.write( "20  " )
f.write( str(ee) + "\n" )
f.write( MOL.save_string_xyz() )
f.close()
--------------------------------------------------------------------------

    Molecular point group: c1
  Charge       = 0
  Multiplicity = 1
  Basis Set: CC-PVTZ
  Basis Set:
  @DF-RHF Final Energy:  -384.07718002579242
    Total Energy =                       -384.0771800257926998
    Molecular point group: c1
  Basis Set: CC-PVTZ
  Basis Set:
  Basis Set: CC-PVTZ
  Basis Set:
  @DF-RHF Final Energy:  -384.07744542229790
    Total Energy =                       -384.0774454222980694
  Basis Set: CC-PVTZ
  Basis Set:
  Basis Set: CC-PVTZ
  Basis Set:
  @DF-RHF Final Energy:  -384.07750770281939
    Total Energy =                       -384.0775077028196165
  Basis Set: CC-PVTZ
  Basis Set:
  Basis Set: CC-PVTZ
  Basis Set:
  @DF-RHF Final Energy:  -384.07727789436262
    Total Energy =                       -384.0772778943625099
  Basis Set: CC-PVTZ
  Basis Set:
  Basis Set: CC-PVTZ
  Basis Set:
  @DF-RHF Final Energy:  -384.07751819371026
    Total Energy =                       -384.0775181937096932
  Basis Set: CC-PVTZ
  Basis Set:
  Charge       = 0
  Multiplicity = 1
  Basis Set: CC-PVTZ
  Basis Set:

    Orbital Energies (a.u.)
    -----------------------

    Doubly Occupied:

       1A    -20.596413     2A    -20.534337     3A    -11.364558
       4A    -11.278577     5A    -11.234544     6A    -11.218115
       7A    -11.217024     8A    -11.209979     9A     -1.472292
      10A     -1.365907    11A     -1.087800    12A     -1.024489
      13A     -0.969773    14A     -0.887660    15A     -0.804914
      16A     -0.769375    17A     -0.702063    18A     -0.685879
      19A     -0.676397    20A     -0.635140    21A     -0.606414
      22A     -0.597440    23A     -0.576036    24A     -0.545484
      25A     -0.527975    26A     -0.523810    27A     -0.514213
      28A     -0.475847    29A     -0.474291    30A     -0.466203
      31A     -0.458093    32A     -0.439447

  @DF-RHF Final Energy:  -384.07751849930588

   => Energetics <=

    Nuclear Repulsion Energy =            382.6862324150862946
    One-Electron Energy =               -1281.6465316120861644
    Two-Electron Energy =                 514.8827806976937609
    DFT Exchange-Correlation Energy =       0.0000000000000000
    Empirical Dispersion Energy =           0.0000000000000000
    PCM Polarization Energy =               0.0000000000000000
    EFP Energy =                            0.0000000000000000
    Total Energy =                       -384.0775184993060520
    Molecular point group: c1
  Basis Set: CC-PVTZ
  Basis Set:

  -Total Gradient:
     Atom            X                  Y                   Z
    ------   -----------------  -----------------  -----------------
       1        0.000008798344     0.000013191900    -0.000023362994
       2       -0.000014627189    -0.000017999536    -0.000003478944
       3       -0.000001657316     0.000024834600     0.000008923426
       4        0.000005300902    -0.000002104605     0.000022778475
       5        0.000530310884    -0.000918372354     0.000686652307
       6       -0.000005278730    -0.000008077068    -0.000004898598
       7       -0.000000414789    -0.000005437988    -0.000008621304
       8       -0.000538475930     0.000918325447    -0.000691449254
       9       -0.000378435783     0.000629091705    -0.000459191413
      10        0.000011512904    -0.000008900623     0.000005808453
      11       -0.000011547210     0.000000930835     0.000001953833
      12        0.000361560307    -0.000624194637     0.000465589797
      13       -0.000005084956     0.000009522825    -0.000004949739
      14        0.000014749544     0.000000829558     0.000001693226
      15       -0.000005159729    -0.000010183213    -0.000003675079
      16        0.000007636925    -0.000008220937     0.000000539886
      17        0.000011707027     0.000004990100    -0.000004808695
      18        0.000005010100     0.000001992149     0.000004031448
      19        0.000000057816    -0.000001278182     0.000003165062
      20        0.000004036878     0.000001060025     0.000003300112

  **** Optimization is complete! (in 6 steps) ****
    Final optimized geometry and variables:
    Molecular point group: c1

    Geometry (in Angstrom), charge = 0, multiplicity = 1:

    O            1.408358662592     1.009902667909    -0.564272868648
    C            1.031898431744     0.274567667337     0.283514929121
    C           -0.244616315871    -0.526064765336     0.244682136730
    O            1.702213344313     0.056220682661     1.403159809947
    C           -1.060760224086    -0.321078414830    -1.024586088532
    H            0.026074645999    -1.568820495032     0.372963775413
    H           -0.818100066029    -0.259275303838     1.126641331539
    C           -2.376363931208    -1.127012721953    -1.026377262743
    H           -0.454164921470    -0.583095030076    -1.881716346029
    H           -1.274015314683     0.735132773687    -1.134215639768
    C           -3.625270021138    -0.250500895769    -1.021634579264
    H           -2.403114088073    -1.781428285999    -1.890326472665
    H           -2.407192085462    -1.784222611307    -0.162604894468
    H           -3.659067113739     0.383518819919    -1.900868966364
    H           -4.527459582585    -0.851475020706    -1.009801551261
    H           -3.645821597793     0.395735600059    -0.149971638654
    C            2.924197800378     0.745560341408     1.572959129312
    H            3.620919889393     0.485268467690     0.789975060080
    H            3.309263936680     0.437087575745     2.531320528089
    H            2.764403291390     1.813540206570     1.561650609725

  Mulliken Charges: (a.u.)
   Center  Symbol    Alpha    Beta     Spin     Total
       1     O     4.19665  4.19665  0.00000 -0.39331
       2     C     2.80822  2.80822  0.00000  0.38356
       3     C     3.09923  3.09923  0.00000 -0.19847
       4     O     4.14701  4.14701  0.00000 -0.29402
       5     C     3.09021  3.09021  0.00000 -0.18043
       6     H     0.43908  0.43908  0.00000  0.12184
       7     H     0.43956  0.43956  0.00000  0.12087
       8     C     3.09158  3.09158  0.00000 -0.18316
       9     H     0.44167  0.44167  0.00000  0.11665
      10     H     0.44672  0.44672  0.00000  0.10656
      11     C     3.14621  3.14621  0.00000 -0.29241
      12     H     0.44782  0.44782  0.00000  0.10436
      13     H     0.45642  0.45642  0.00000  0.08717
      14     H     0.45266  0.45266  0.00000  0.09468
      15     H     0.44949  0.44949  0.00000  0.10102
      16     H     0.45584  0.45584  0.00000  0.08833
      17     C     3.03769  3.03769  0.00000 -0.07537
      18     H     0.45433  0.45433  0.00000  0.09134
      19     H     0.44529  0.44529  0.00000  0.10942
      20     H     0.45432  0.45432  0.00000  0.09136

   Total alpha = 32.00000, Total beta = 32.00000, Total charge =  0.00000

*** Psi4 exiting successfully. Buy a developer a beer!
