  ==> Input File <==

--------------------------------------------------------------------------
set {
	reference rhf
	basis 6-31G*
}

set_num_threads( 4 )
memory 2 gb

molecule MOL {
0 1

H	 2.591676	 2.013956	 0.335017
O	 3.341076	 1.666752	 -0.126416
C	 3.569581	 0.339145	 0.272707
C	 3.967313	 -0.575315	 -0.880679
H	 4.372415	 0.383724	 0.997376
H	 2.694745	 -0.061028	 0.783885
C	 2.878925	 -0.746153	 -1.943267
H	 4.867864	 -0.177591	 -1.341320
H	 4.225631	 -1.549044	 -0.467773
C	 3.288195	 -1.711768	 -3.059020
H	 2.642623	 0.223946	 -2.371559
H	 1.966568	 -1.111494	 -1.471598
C	 2.201214	 -1.984935	 -4.105056
H	 4.177540	 -1.328358	 -3.555921
H	 3.577850	 -2.658661	 -2.608250
C	 1.820059	 -0.779173	 -4.968386
H	 2.548283	 -2.782984	 -4.758108
H	 1.311580	 -2.367895	 -3.607330
C	 0.810631	 -1.126279	 -6.064748
H	 2.718300	 -0.366931	 -5.425911
H	 1.405145	 0.010305	 -4.346395
C	 0.423583	 0.076911	 -6.923929
H	 1.224283	 -1.905602	 -6.701171
H	 -0.083743	 -1.547358	 -5.610135
H	 1.292748	 0.501225	 -7.418635
H	 -0.290927	 -0.201555	 -7.692414
H	 -0.027658	 0.860428	 -6.321563

	symmetry c1
}
set optking {
	frozen_dihedral = ("
		4 3 2 1
	")
}

ee = optimize('scf')
oeprop('DIPOLE', 'QUADRUPOLE', 'MULLIKEN_CHARGES')
f=open( 'psi4out.xyz', 'w' )
f.write( "27  " )
f.write( str(ee) + "\n" )
f.write( MOL.save_string_xyz() )
f.close()
--------------------------------------------------------------------------

    Molecular point group: c1
  Charge       = 0
  Multiplicity = 1
  Basis Set: 6-31G*
  Basis Set:
  @DF-RHF Final Energy:  -388.27982947311625
    Total Energy =                       -388.2798294731164788
    Molecular point group: c1
  Basis Set: 6-31G*
  Basis Set:
  Basis Set: 6-31G*
  Basis Set:
  @DF-RHF Final Energy:  -388.28085330617228
    Total Energy =                       -388.2808533061726166
  Basis Set: 6-31G*
  Basis Set:
  Basis Set: 6-31G*
  Basis Set:
  @DF-RHF Final Energy:  -388.28110938111485
    Total Energy =                       -388.2811093811143337
  Basis Set: 6-31G*
  Basis Set:
  Basis Set: 6-31G*
  Basis Set:
  @DF-RHF Final Energy:  -388.28111594269023
    Total Energy =                       -388.2811159426894392
  Basis Set: 6-31G*
  Basis Set:
  Charge       = 0
  Multiplicity = 1
  Basis Set: 6-31G*
  Basis Set:

    Orbital Energies (a.u.)
    -----------------------

    Doubly Occupied:

       1A    -20.552202     2A    -11.268116     3A    -11.211890
       4A    -11.211366     5A    -11.210394     6A    -11.209829
       7A    -11.208632     8A    -11.207826     9A    -11.205812
      10A     -1.358474    11A     -1.089020    12A     -1.056920
      13A     -1.008408    14A     -0.943835    15A     -0.880931
      16A     -0.812382    17A     -0.795193    18A     -0.771668
      19A     -0.705600    20A     -0.645473    21A     -0.627514
      22A     -0.624189    23A     -0.587099    24A     -0.578485
      25A     -0.576088    26A     -0.546330    27A     -0.537516
      28A     -0.519205    29A     -0.506648    30A     -0.482272
      31A     -0.477865    32A     -0.475820    33A     -0.461580
      34A     -0.454150    35A     -0.450375    36A     -0.439659
      37A     -0.419434

  @DF-RHF Final Energy:  -388.28111629323860

   => Energetics <=

    Nuclear Repulsion Energy =            460.0782430304593618
    One-Electron Energy =               -1438.4823230394126767
    Two-Electron Energy =                 590.1229637157150592
    DFT Exchange-Correlation Energy =       0.0000000000000000
    Empirical Dispersion Energy =           0.0000000000000000
    PCM Polarization Energy =               0.0000000000000000
    EFP Energy =                            0.0000000000000000
    Total Energy =                       -388.2811162932382558
    Molecular point group: c1
  Basis Set: 6-31G*
  Basis Set:

  -Total Gradient:
     Atom            X                  Y                   Z
    ------   -----------------  -----------------  -----------------
       1       -0.000839584367    -0.000509806454    -0.001048924953
       2        0.000730615889     0.000501180208     0.001238888170
       3        0.001011573138     0.000123041495    -0.000045284705
       4       -0.000854526152    -0.000112855579    -0.000134083094
       5       -0.000004283027    -0.000051413804    -0.000021117053
       6       -0.000026143000     0.000000974181    -0.000044558409
       7       -0.000021621775    -0.000000230357     0.000035800144
       8        0.000003074475     0.000025098513    -0.000006835883
       9        0.000012758088     0.000023151725     0.000023594904
      10       -0.000005602895    -0.000027439633     0.000031025663
      11       -0.000009055896     0.000033162736    -0.000023246657
      12       -0.000009449966    -0.000001324474    -0.000018585830
      13        0.000010415717    -0.000014365140    -0.000015457341
      14       -0.000010449699    -0.000012275060    -0.000007142233
      15        0.000003829919     0.000006355577     0.000015687787
      16        0.000004471249     0.000007215064     0.000013878258
      17        0.000003451131     0.000010867047    -0.000007781932
      18        0.000007420753    -0.000013779912    -0.000005677705
      19       -0.000008371005     0.000001525542     0.000003628423
      20       -0.000006592721    -0.000006982956    -0.000002064541
      21        0.000006257463     0.000017487686     0.000016652361
      22       -0.000000741318     0.000000577527     0.000000473456
      23        0.000001638410    -0.000000080517     0.000002751842
      24       -0.000000997343     0.000000872158    -0.000001473644
      25        0.000000516425     0.000000026383    -0.000000577108
      26        0.000001088892    -0.000000302337     0.000000791422
      27        0.000000307612    -0.000000679620    -0.000000361344

  **** Optimization is complete! (in 5 steps) ****
    Final optimized geometry and variables:
    Molecular point group: c1

    Geometry (in Angstrom), charge = 0, multiplicity = 1:

    H            0.166342274497     2.563018568608     3.190974596064
    O            0.915146252615     2.140869542863     2.798763909443
    C            1.064439005467     0.837905837611     3.312378447125
    C            1.465700423797    -0.110489980632     2.194093162346
    H            1.823736975357     0.839487411306     4.090160543251
    H            0.135706319544     0.497228537825     3.765821848175
    C            0.389630639477    -0.277705021543     1.120702015612
    H            2.380985372706     0.263386168527     1.741925930080
    H            1.704973400921    -1.076839643239     2.634841871006
    C            0.823198022696    -1.218145508047    -0.006971484822
    H            0.143114281195     0.700002383798     0.723077920640
    H           -0.518591208835    -0.667522094675     1.580735846069
    C           -0.255243783950    -1.496148534050    -1.060611239947
    H            1.705433695368    -0.808957791942    -0.496432346915
    H            1.131640673744    -2.167212691961     0.427568856816
    C           -0.661966799128    -0.281661110938    -1.899511486136
    H            0.109770990431    -2.273339650240    -1.729167717348
    H           -1.136982447452    -1.908158247286    -0.571910956382
    C           -1.668147624098    -0.626592020375    -2.999527698420
    H            0.227053180422     0.155818283064    -2.351597269659
    H           -1.088469462153     0.487596054957    -1.260744467158
    C           -2.078307112525     0.584895667704    -3.836101325590
    H           -1.243204879029    -1.387260932832    -3.651081353995
    H           -2.554106733134    -1.071003154322    -2.550495180991
    H           -1.217906184460     1.032619180032    -4.325496399051
    H           -2.790525791650     0.308321849074    -4.607548838352
    H           -2.540421425254     1.349828737782    -3.218321957187

  Mulliken Charges: (a.u.)
   Center  Symbol    Alpha    Beta     Spin     Total
       1     H     0.27950  0.27950  0.00000  0.44100
       2     O     4.37152  4.37152  0.00000 -0.74304
       3     C     2.99834  2.99834  0.00000  0.00332
       4     C     3.15794  3.15794  0.00000 -0.31588
       5     H     0.42424  0.42424  0.00000  0.15151
       6     H     0.43303  0.43303  0.00000  0.13394
       7     C     3.15791  3.15791  0.00000 -0.31583
       8     H     0.41468  0.41468  0.00000  0.17065
       9     H     0.42512  0.42512  0.00000  0.14977
      10     C     3.15304  3.15304  0.00000 -0.30609
      11     H     0.40813  0.40813  0.00000  0.18373
      12     H     0.42941  0.42941  0.00000  0.14118
      13     C     3.15288  3.15288  0.00000 -0.30575
      14     H     0.42281  0.42281  0.00000  0.15438
      15     H     0.42392  0.42392  0.00000  0.15217
      16     C     3.15243  3.15243  0.00000 -0.30485
      17     H     0.42270  0.42270  0.00000  0.15459
      18     H     0.42519  0.42519  0.00000  0.14962
      19     C     3.15104  3.15104  0.00000 -0.30208
      20     H     0.42401  0.42401  0.00000  0.15197
      21     H     0.42169  0.42169  0.00000  0.15662
      22     C     3.23895  3.23895  0.00000 -0.47790
      23     H     0.42361  0.42361  0.00000  0.15279
      24     H     0.42391  0.42391  0.00000  0.15219
      25     H     0.42170  0.42170  0.00000  0.15661
      26     H     0.42012  0.42012  0.00000  0.15976
      27     H     0.42218  0.42218  0.00000  0.15565

   Total alpha = 37.00000, Total beta = 37.00000, Total charge =  0.00000
