  ==> Input File <==

--------------------------------------------------------------------------
set {
	reference rhf
	basis 6-31G*
}

set_num_threads( 4 )
memory 2 gb

molecule MOL {
0 1

O	 -0.988096	 -1.408613	 0.050699
C	 -0.676749	 -0.249230	 -0.009274
C	 -1.746085	 0.827156	 -0.009539
N	 0.623947	 0.147590	 -0.102813
H	 -1.701500	 1.431508	 -0.908902
H	 -2.703425	 0.330732	 0.036390
H	 -1.647323	 1.487769	 0.845106
C	 1.420582	 0.207473	 1.107006
C	 1.179506	 0.839752	 -1.244965
H	 2.429392	 -0.127398	 0.892109
H	 0.984204	 -0.430673	 1.855528
H	 1.472028	 1.221957	 1.496360
H	 2.224089	 0.571074	 -1.348391
H	 0.679412	 0.562272	 -2.159211
H	 1.120834	 1.920867	 -1.132884

	symmetry c1
}
set optking {
	frozen_dihedral = ("
		8 4 2 3
	")
}

ee = optimize('scf')
oeprop('DIPOLE', 'QUADRUPOLE', 'MULLIKEN_CHARGES')
f=open( 'psi4out.xyz', 'w' )
f.write( "15  " )
f.write( str(ee) + "\n" )
f.write( MOL.save_string_xyz() )
f.close()
--------------------------------------------------------------------------

    Molecular point group: c1
  Charge       = 0
  Multiplicity = 1
  Basis Set: 6-31G*
  Basis Set:
  @DF-RHF Final Energy:  -285.99622686071223
    Total Energy =                       -285.9962268607119995
    Molecular point group: c1
  Basis Set: 6-31G*
  Basis Set:
  Basis Set: 6-31G*
  Basis Set:
  @DF-RHF Final Energy:  -286.00259505653747
    Total Energy =                       -286.0025950565371886
  Basis Set: 6-31G*
  Basis Set:
  Basis Set: 6-31G*
  Basis Set:
  @DF-RHF Final Energy:  -286.00609533204852
    Total Energy =                       -286.0060953320484032
  Basis Set: 6-31G*
  Basis Set:
  Basis Set: 6-31G*
  Basis Set:
  @DF-RHF Final Energy:  -286.00785809230268
    Total Energy =                       -286.0078580923026834
  Basis Set: 6-31G*
  Basis Set:
  @DF-RHF Final Energy:  -286.00847848820001
    Total Energy =                       -286.0084784882002964
  Basis Set: 6-31G*
  Basis Set:
  @DF-RHF Final Energy:  -286.00857360394832
    Total Energy =                       -286.0085736039480935
  Basis Set: 6-31G*
  Basis Set:
  Basis Set: 6-31G*
  Basis Set:
  @DF-RHF Final Energy:  -286.00858890582765
    Total Energy =                       -286.0085889058276507
  Basis Set: 6-31G*
  Basis Set:
  Basis Set: 6-31G*
  Basis Set:
  @DF-RHF Final Energy:  -286.00859248558265
    Total Energy =                       -286.0085924855825397
  Basis Set: 6-31G*
  Basis Set:
  Charge       = 0
  Multiplicity = 1
  Basis Set: 6-31G*
  Basis Set:

    Orbital Energies (a.u.)
    -----------------------

    Doubly Occupied:

       1A    -20.542875     2A    -15.568531     3A    -11.348882
       4A    -11.258105     5A    -11.256402     6A    -11.233595
       7A     -1.403826     8A     -1.238955     9A     -1.011256
      10A     -0.969354    11A     -0.909500    12A     -0.739835
      13A     -0.680916    14A     -0.659398    15A     -0.646673
      16A     -0.601794    17A     -0.583838    18A     -0.577473
      19A     -0.558524    20A     -0.548807    21A     -0.528961
      22A     -0.496165    23A     -0.422549    24A     -0.372156

  @DF-RHF Final Energy:  -286.00859319369863

   => Energetics <=

    Nuclear Repulsion Energy =            252.5512065165161459
    One-Electron Energy =                -888.8028549300888699
    Two-Electron Energy =                 350.2430552198744067
    DFT Exchange-Correlation Energy =       0.0000000000000000
    Empirical Dispersion Energy =           0.0000000000000000
    PCM Polarization Energy =               0.0000000000000000
    EFP Energy =                            0.0000000000000000
    Total Energy =                       -286.0085931936983457
    Molecular point group: c1
  Basis Set: 6-31G*
  Basis Set:

  -Total Gradient:
     Atom            X                  Y                   Z
    ------   -----------------  -----------------  -----------------
       1       -0.000032370040     0.000008908958     0.000040020955
       2       -0.001488798195     0.000125658150    -0.011141992332
       3        0.000679535751     0.001789439198     0.007134598020
       4        0.002001815959    -0.009349377640     0.004290203146
       5       -0.000010745636     0.000021011368     0.000036172035
       6        0.000005314961     0.000022464604     0.000001663679
       7        0.000031807138    -0.000003080311     0.000032520319
       8       -0.001177693099     0.007371680913    -0.000405547985
       9        0.000028449969     0.000022596321     0.000041445986
      10       -0.000015313985     0.000002959411    -0.000001021424
      11       -0.000010360658     0.000001002428    -0.000014842424
      12       -0.000003409583    -0.000016065540    -0.000008566888
      13       -0.000006728508     0.000000519234    -0.000004033169
      14       -0.000003507703    -0.000001528705     0.000003649430
      15        0.000002003632     0.000003811614    -0.000004269348

  **** Optimization is complete! (in 9 steps) ****
    Final optimized geometry and variables:
    Molecular point group: c1

    Geometry (in Angstrom), charge = 0, multiplicity = 1:

    O           -1.038486211350    -1.379429565749     0.455498494477
    C           -0.654452765691    -0.346095326794     0.008064384284
    C           -1.610568196564     0.814787725780    -0.192233590217
    N            0.726441342999    -0.125313956476    -0.189237933991
    H           -1.626983969381     1.176988875477    -1.213585824758
    H           -2.603522587940     0.495314993199     0.087146519045
    H           -1.302438793815     1.641691005810     0.440874438093
    C            1.449892347056     0.066657820305     1.060421825014
    C            1.096185846889     0.863591332405    -1.185125216839
    H            2.513326623336    -0.009454912874     0.869988923315
    H            1.173767931817    -0.707023922125     1.761763174206
    H            1.252847544564     1.042445307265     1.507996717742
    H            2.156361900788     0.767801460892    -1.384419533796
    H            0.573769544655     0.676457919850    -2.114618506906
    H            0.904470813905     1.892526118562    -0.877206315892

  Mulliken Charges: (a.u.)
   Center  Symbol    Alpha    Beta     Spin     Total
       1     O     4.26301  4.26301  0.00000 -0.52602
       2     C     2.65133  2.65133  0.00000  0.69733
       3     C     3.29390  3.29390  0.00000 -0.58781
       4     N     3.80213  3.80213  0.00000 -0.60425
       5     H     0.40598  0.40598  0.00000  0.18805
       6     H     0.39254  0.39254  0.00000  0.21492
       7     H     0.40655  0.40655  0.00000  0.18690
       8     C     3.15399  3.15399  0.00000 -0.30799
       9     C     3.15289  3.15289  0.00000 -0.30578
      10     H     0.40981  0.40981  0.00000  0.18038
      11     H     0.39489  0.39489  0.00000  0.21023
      12     H     0.42865  0.42865  0.00000  0.14271
      13     H     0.40696  0.40696  0.00000  0.18608
      14     H     0.41009  0.41009  0.00000  0.17982
      15     H     0.42729  0.42729  0.00000  0.14543

   Total alpha = 24.00000, Total beta = 24.00000, Total charge =  0.00000
