  ==> Input File <==

--------------------------------------------------------------------------
set {
	reference rhf
	basis 6-31G*
}

set_num_threads( 4 )
memory 2 gb

molecule MOL {
0 1

H	 1.148083	 -1.049780	 0.784252
O	 1.319262	 -0.618148	 -0.041729
C	 0.709265	 0.639550	 -0.033818
C	 1.031920	 1.474362	 1.177612
H	 -0.358616	 0.457974	 -0.076998
H	 0.965964	 1.199817	 -0.932279
C	 1.684964	 1.052084	 2.241557
H	 0.680558	 2.493760	 1.134540
H	 2.033348	 0.038741	 2.326369
H	 1.881567	 1.704949	 3.072876

	symmetry c1
}
set optking {
	frozen_dihedral = ("
		5 3 2 1
	")
}

ee = optimize('scf')
oeprop('DIPOLE', 'QUADRUPOLE', 'MULLIKEN_CHARGES')
f=open( 'psi4out.xyz', 'w' )
f.write( "10  " )
f.write( str(ee) + "\n" )
f.write( MOL.save_string_xyz() )
f.close()
--------------------------------------------------------------------------

    Molecular point group: c1
  Charge       = 0
  Multiplicity = 1
  Basis Set: 6-31G*
  Basis Set:
  @DF-RHF Final Energy:  -191.91341579974949
    Total Energy =                       -191.9134157997495720
    Molecular point group: c1
  Basis Set: 6-31G*
  Basis Set:
  Basis Set: 6-31G*
  Basis Set:
  @DF-RHF Final Energy:  -191.91589633173049
    Total Energy =                       -191.9158963317304938
  Basis Set: 6-31G*
  Basis Set:
  Basis Set: 6-31G*
  Basis Set:
  @DF-RHF Final Energy:  -191.91689783122644
    Total Energy =                       -191.9168978312264358
  Basis Set: 6-31G*
  Basis Set:
  Basis Set: 6-31G*
  Basis Set:
  @DF-RHF Final Energy:  -191.91702011809411
    Total Energy =                       -191.9170201180940580
  Basis Set: 6-31G*
  Basis Set:
  Basis Set: 6-31G*
  Basis Set:
  @DF-RHF Final Energy:  -191.91704875254476
    Total Energy =                       -191.9170487525447584
  Basis Set: 6-31G*
  Basis Set:
  Basis Set: 6-31G*
  Basis Set:
  @DF-RHF Final Energy:  -191.91704979255456
    Total Energy =                       -191.9170497925545931
  Basis Set: 6-31G*
  Basis Set:
  Charge       = 0
  Multiplicity = 1
  Basis Set: 6-31G*
  Basis Set:

    Orbital Energies (a.u.)
    -----------------------

    Doubly Occupied:

       1A    -20.560055     2A    -11.278226     3A    -11.233547
       4A    -11.221918     5A     -1.368979     6A     -1.059612
       7A     -0.929638     8A     -0.771013     9A     -0.685255
      10A     -0.663238    11A     -0.617430    12A     -0.570638
      13A     -0.543125    14A     -0.488611    15A     -0.449570
      16A     -0.366586

  @DF-RHF Final Energy:  -191.91705003473393

   => Energetics <=

    Nuclear Repulsion Energy =            119.4246705359091436
    One-Electron Energy =                -497.0685605133883200
    Two-Electron Energy =                 185.7268399427452152
    DFT Exchange-Correlation Energy =       0.0000000000000000
    Empirical Dispersion Energy =           0.0000000000000000
    PCM Polarization Energy =               0.0000000000000000
    EFP Energy =                            0.0000000000000000
    Total Energy =                       -191.9170500347339328
    Molecular point group: c1
  Basis Set: 6-31G*
  Basis Set:

  -Total Gradient:
     Atom            X                  Y                   Z
    ------   -----------------  -----------------  -----------------
       1        0.001058539528     0.000428968934     0.000717154913
       2       -0.001228725316    -0.000498156759    -0.001177037784
       3       -0.000066056556     0.000024611003     0.001597761970
       4       -0.000034623440     0.000002281778     0.000028551375
       5        0.000252321982     0.000056250803    -0.001155010313
       6       -0.000001793488    -0.000003453512    -0.000008281815
       7       -0.000012500027    -0.000005910137     0.000023393244
       8        0.000011868103    -0.000005727138    -0.000005968021
       9        0.000007222926    -0.000006128880    -0.000006938768
      10        0.000013746288     0.000007263908    -0.000013624799

  **** Optimization is complete! (in 7 steps) ****
    Final optimized geometry and variables:
    Molecular point group: c1

    Geometry (in Angstrom), charge = 0, multiplicity = 1:

    H           -0.263932080460    -1.659957806295    -0.028437962870
    O            0.075117832274    -1.222501714878    -0.797745329894
    C           -0.438452036433     0.076273173574    -0.845929746555
    C           -0.202095111420     0.884176645487     0.402618641336
    H           -1.504040661781     0.061883286028    -1.072645768694
    H            0.045665872212     0.559749747321    -1.687251556701
    C            0.590137813705     0.537145990848     1.397343927428
    H           -0.738566648058     1.819052841445     0.448403730313
    H            1.157990275736    -0.375655433712     1.379877916995
    H            0.710924038256     1.165299981965     2.261345563240

  Mulliken Charges: (a.u.)
   Center  Symbol    Alpha    Beta     Spin     Total
       1     H     0.28118  0.28118  0.00000  0.43765
       2     O     4.36762  4.36762  0.00000 -0.73525
       3     C     2.99793  2.99793  0.00000  0.00415
       4     C     3.09484  3.09484  0.00000 -0.18968
       5     H     0.42533  0.42533  0.00000  0.14934
       6     H     0.40829  0.40829  0.00000  0.18342
       7     C     3.19864  3.19864  0.00000 -0.39727
       8     H     0.40908  0.40908  0.00000  0.18183
       9     H     0.40704  0.40704  0.00000  0.18593
      10     H     0.41006  0.41006  0.00000  0.17989

   Total alpha = 16.00000, Total beta = 16.00000, Total charge =  0.00000
