                              Psi4 1.0.54 Driver

  ==> Input File <==

--------------------------------------------------------------------------
set {
	reference rhf
	basis cc-pvtz
}

set_num_threads( 4 )
memory 2 gb

molecule MOL {
0 1

H	 3.889604	 0.356866	 -0.089510
N	 3.091268	 -0.241216	 -0.065538
C	 1.860978	 0.530248	 0.016256
H	 3.192566	 -0.835836	 0.730398
C	 0.644130	 -0.381765	 -0.031064
H	 1.835721	 1.204666	 -0.833114
H	 1.808789	 1.151975	 0.911067
C	 -0.678115	 0.376691	 0.025731
H	 0.693998	 -0.977147	 -0.936845
H	 0.693309	 -1.082142	 0.800523
C	 -1.269121	 0.456728	 1.430547
H	 -1.396137	 -0.102497	 -0.635916
H	 -0.536307	 1.384007	 -0.359077
C	 -2.594037	 1.210133	 1.482048
H	 -1.411124	 -0.548645	 1.817008
H	 -0.555097	 0.938624	 2.092904
H	 -3.340555	 0.732334	 0.856222
H	 -2.985568	 1.248313	 2.492123
H	 -2.477771	 2.231207	 1.133872

	symmetry c1
}
set optking {
	frozen_dihedral = ("
		12 8 5 9
	")
}

ee,wfn = optimize('scf', return_wfn=True)
oeprop( wfn, 'DIPOLE', 'QUADRUPOLE', 'MULLIKEN_CHARGES')
f=open( 'psi4out.xyz', 'w' )
f.write( "19  " )
f.write( str(ee) + "\n" )
f.write( MOL.save_string_xyz() )
f.close()
--------------------------------------------------------------------------

    Molecular point group: c1
  Charge       = 0
  Multiplicity = 1
  Basis Set: CC-PVTZ
  Basis Set:
  @DF-RHF Final Energy:  -251.44428558612933
    Total Energy =                       -251.4442855861295811
    Molecular point group: c1
  Basis Set: CC-PVTZ
  Basis Set:
  Basis Set: CC-PVTZ
  Basis Set:
  @DF-RHF Final Energy:  -251.44452959454875
    Total Energy =                       -251.4445295945488965
  Basis Set: CC-PVTZ
  Basis Set:
  Basis Set: CC-PVTZ
  Basis Set:
  @DF-RHF Final Energy:  -251.44460614626209
    Total Energy =                       -251.4446061462623447
  Basis Set: CC-PVTZ
  Basis Set:
  Basis Set: CC-PVTZ
  Basis Set:
  @DF-RHF Final Energy:  -251.44460782512590
    Total Energy =                       -251.4446078251260701
  Basis Set: CC-PVTZ
  Basis Set:
  Charge       = 0
  Multiplicity = 1
  Basis Set: CC-PVTZ
  Basis Set:

    Orbital Energies (a.u.)
    -----------------------

    Doubly Occupied:

       1A    -15.526501     2A    -11.238350     3A    -11.213066
       4A    -11.210572     5A    -11.207602     6A    -11.206123
       7A     -1.178388     8A     -1.073552     9A     -0.998436
      10A     -0.900786    11A     -0.822048    12A     -0.785470
      13A     -0.661301    14A     -0.638017    15A     -0.622903
      16A     -0.592313    17A     -0.567165    18A     -0.549941
      19A     -0.531788    20A     -0.498655    21A     -0.483873
      22A     -0.464882    23A     -0.457600    24A     -0.450257
      25A     -0.383576

  @DF-RHF Final Energy:  -251.44460802086562

   => Energetics <=

    Nuclear Repulsion Energy =            248.2332607320291515
    One-Electron Energy =                -830.8294131757650121
    Two-Electron Energy =                 331.1515444228703018
    DFT Exchange-Correlation Energy =       0.0000000000000000
    Empirical Dispersion Energy =           0.0000000000000000
    PCM Polarization Energy =               0.0000000000000000
    EFP Energy =                            0.0000000000000000
    Total Energy =                       -251.4446080208655303
    Molecular point group: c1
  Basis Set: CC-PVTZ
  Basis Set:

  -Total Gradient:
     Atom            X                  Y                   Z
    ------   -----------------  -----------------  -----------------
       1        0.000017404422    -0.000002310442     0.000006375199
       2        0.000030814679    -0.000007431308     0.000000022877
       3       -0.000038729318     0.000004442449    -0.000013169200
       4        0.000008949375    -0.000008961569     0.000009193476
       5        0.001508737878     0.003018745945    -0.002117448647
       6       -0.000013639234     0.000001268710    -0.000002487915
       7       -0.000001798208    -0.000014572051    -0.000009478857
       8       -0.001191851456    -0.002501054563     0.002839536905
       9       -0.001058808210    -0.002096802365     0.001304063718
      10       -0.000000895729     0.000000417495     0.000006860611
      11        0.000012167741     0.000019486601    -0.000004694444
      12        0.000743321624     0.001588802811    -0.002018359424
      13        0.000003790023    -0.000000206417     0.000008245834
      14       -0.000020694183    -0.000002422925     0.000005010239
      15        0.000013092144     0.000006854015    -0.000009145721
      16       -0.000002231238    -0.000006514885    -0.000011965852
      17        0.000001771624     0.000006573121     0.000003353668
      18       -0.000012114737     0.000002524560     0.000000439906
      19        0.000000712805    -0.000008839181     0.000003647627

  **** Optimization is complete! (in 5 steps) ****
    Final optimized geometry and variables:
    Molecular point group: c1

    Geometry (in Angstrom), charge = 0, multiplicity = 1:

    H            3.676922026671     0.061830634533    -0.521672629948
    N            2.885965673619    -0.546192654467    -0.502711860761
    C            1.643723741013     0.208828164778    -0.481029416601
    H            2.971487007023    -1.116218388060     0.312798262821
    C            0.441247468386    -0.721649469421    -0.545301114634
    H            1.634798410567     0.859013972813    -1.349222720105
    H            1.554762796498     0.854759711864     0.393498550546
    C           -0.906056893690     0.011175692498    -0.468259953828
    H            0.503215600952    -1.315310123796    -1.449520530509
    H            0.506819348076    -1.435425391735     0.273601714469
    C           -1.481927723762     0.113813260720     0.941958343103
    H           -1.625076768761    -0.476220723615    -1.119081823601
    H           -0.790373857078     1.013676454782    -0.875164315179
    C           -2.785161034260     0.903106849841     1.001451364722
    H           -1.648886415265    -0.886935693650     1.330431856235
    H           -0.751189617514     0.576688372692     1.599594673042
    H           -3.545551475242     0.449218192992     0.374488543672
    H           -3.173390427129     0.946252475774     2.012667618551
    H           -2.641790530485     1.922377382843     0.658421882080

  Mulliken Charges: (a.u.)
   Center  Symbol    Alpha    Beta     Spin     Total
       1     H     0.43018  0.43018  0.00000  0.13963
       2     N     3.68976  3.68976  0.00000 -0.37953
       3     C     3.02453  3.02453  0.00000 -0.04906
       4     H     0.43039  0.43039  0.00000  0.13923
       5     C     3.09011  3.09011  0.00000 -0.18023
       6     H     0.45639  0.45639  0.00000  0.08722
       7     H     0.46763  0.46763  0.00000  0.06473
       8     C     3.10337  3.10337  0.00000 -0.20674
       9     H     0.44290  0.44290  0.00000  0.11419
      10     H     0.46121  0.46121  0.00000  0.07758
      11     C     3.08133  3.08133  0.00000 -0.16266
      12     H     0.44648  0.44648  0.00000  0.10703
      13     H     0.45690  0.45690  0.00000  0.08620
      14     C     3.15015  3.15015  0.00000 -0.30030
      15     H     0.45435  0.45435  0.00000  0.09130
      16     H     0.45568  0.45568  0.00000  0.08864
      17     H     0.45475  0.45475  0.00000  0.09050
      18     H     0.44876  0.44876  0.00000  0.10248
      19     H     0.45512  0.45512  0.00000  0.08977

   Total alpha = 25.00000, Total beta = 25.00000, Total charge = -0.00000

*** Psi4 exiting successfully. Buy a developer a beer!
