  ==> Input File <==

--------------------------------------------------------------------------
set {
	reference rhf
	basis 6-31G*
}

set_num_threads( 1 )
memory 2 gb

molecule MOL {
0 1

H	 -3.560220	 1.426575	 -0.256991
C	 -2.845225	 0.820483	 0.264637
C	 -2.076860	 -0.007332	 -0.404944
H	 -2.778231	 0.909990	 1.332537
O	 -1.180634	 -0.819263	 0.215062
H	 -2.123333	 -0.106659	 -1.475070
C	 0.051604	 -1.018856	 -0.387932
C	 1.043764	 0.054862	 -0.001873
H	 -0.017620	 -1.041351	 -1.469781
H	 0.437898	 -1.966374	 -0.042284
F	 2.212596	 -0.199467	 -0.571921
F	 0.652529	 1.252447	 -0.405055
F	 1.230877	 0.110694	 1.300533

	symmetry c1
}
set optking {
	frozen_dihedral = ("
		11 8 7 9,
		3 5 7 9,
		6 3 2 1
	")
}

ee = energy('scf')
oeprop('DIPOLE', 'QUADRUPOLE', 'MULLIKEN_CHARGES')
f=open( 'psi4out.xyz', 'w' )
f.write( "13  " )
f.write( str(ee) + "\n" )
f.write( MOL.save_string_xyz() )
f.close()
--------------------------------------------------------------------------

    Molecular point group: c1

    Geometry (in Angstrom), charge = 0, multiplicity = 1:

       Center              X                  Y                   Z               Mass
    ------------   -----------------  -----------------  -----------------  -----------------
           H         -3.599165899895     1.375714706008    -0.267298713807     1.007825032070
           C         -2.884170899895     0.769622706008     0.254329286193    12.000000000000
           C         -2.115805899895    -0.058192293992    -0.415251713807    12.000000000000
           H         -2.817176899895     0.859129706008     1.322229286193     1.007825032070
           O         -1.219579899895    -0.870123293992     0.204754286193    15.994914619560
           H         -2.162278899895    -0.157519293992    -1.485377713807     1.007825032070
           C          0.012658100105    -1.069716293992    -0.398239713807    12.000000000000
           C          1.004818100105     0.004001706008    -0.012180713807    12.000000000000
           H         -0.056565899895    -1.092211293992    -1.480088713807     1.007825032070
           H          0.398952100105    -2.017234293992    -0.052591713807     1.007825032070
           F          2.173650100105    -0.250327293992    -0.582228713807    18.998403224000
           F          0.613583100105     1.201586706008    -0.415362713807    18.998403224000
           F          1.191931100105     0.059833706008     1.290225286193    18.998403224000

  Charge       = 0
  Multiplicity = 1
  Basis Set: 6-31G*
  Basis Set:

    Orbital Energies (a.u.)
    -----------------------

    Doubly Occupied:

       1A    -26.342649     2A    -26.339661     3A    -26.339000
       4A    -20.604927     5A    -11.500978     6A    -11.317050
       7A    -11.297359     8A    -11.219119     9A     -1.739290
      10A     -1.637539    11A     -1.635600    12A     -1.435800
      13A     -1.082326    14A     -1.016317    15A     -0.923535
      16A     -0.834889    17A     -0.828476    18A     -0.817105
      19A     -0.792147    20A     -0.715772    21A     -0.710492
      22A     -0.691114    23A     -0.674860    24A     -0.661847
      25A     -0.652627    26A     -0.641118    27A     -0.640056
      28A     -0.581932    29A     -0.565051    30A     -0.526474
      31A     -0.496183    32A     -0.357844

  @DF-RHF Final Energy:  -527.53500393103639

   => Energetics <=

    Nuclear Repulsion Energy =            415.6825572567867084
    One-Electron Energy =               -1555.1967493820588970
    Two-Electron Energy =                 611.9791881942369400
    DFT Exchange-Correlation Energy =       0.0000000000000000
    Empirical Dispersion Energy =           0.0000000000000000
    PCM Polarization Energy =               0.0000000000000000
    EFP Energy =                            0.0000000000000000
    Total Energy =                       -527.5350039310351349

  Mulliken Charges: (a.u.)
   Center  Symbol    Alpha    Beta     Spin     Total
       1     H     0.40723  0.40723  0.00000  0.18553
       2     C     3.22445  3.22445  0.00000 -0.44889
       3     C     2.90422  2.90422  0.00000  0.19157
       4     H     0.40056  0.40056  0.00000  0.19888
       5     O     4.30241  4.30241  0.00000 -0.60482
       6     H     0.40907  0.40907  0.00000  0.18186
       7     C     3.05971  3.05971  0.00000 -0.11941
       8     C     2.45612  2.45612  0.00000  1.08776
       9     H     0.40740  0.40740  0.00000  0.18520
      10     H     0.39221  0.39221  0.00000  0.21558
      11     F     4.68310  4.68310  0.00000 -0.36621
      12     F     4.67849  4.67849  0.00000 -0.35699
      13     F     4.67503  4.67503  0.00000 -0.35005

   Total alpha = 32.00000, Total beta = 32.00000, Total charge = -0.00000
