  ==> Input File <==

--------------------------------------------------------------------------
set {
	reference rhf
	basis cc-pvtz
}

set_num_threads( 4 )
memory 2 gb

molecule MOL {
0 1

H	 -0.000342	 -0.223902	 -3.352295
C	 -0.027146	 0.371068	 -2.446756
C	 0.024493	 -0.518541	 -1.216015
H	 -0.932586	 0.964979	 -2.449855
H	 0.819708	 1.049865	 -2.473332
N	 -0.042516	 0.263377	 -0.000000
H	 -0.822211	 -1.197105	 -1.225584
H	 0.921114	 -1.142847	 -1.255206
C	 0.024493	 -0.518541	 1.216015
H	 0.682568	 0.950412	 -0.000000
C	 -0.781201	 -1.800808	 1.091755
H	 1.065442	 -0.763012	 1.400693
H	 -0.319739	 0.044936	 2.087348
H	 -0.424192	 -2.396069	 0.260629
H	 -0.706177	 -2.391034	 1.997688
H	 -1.832224	 -1.586518	 0.924229

	symmetry c1
}
set optking {
	frozen_dihedral = ("
		12 9 6 3
	")
}

ee = optimize('scf')
oeprop('DIPOLE', 'QUADRUPOLE', 'MULLIKEN_CHARGES')
f=open( 'psi4out.xyz', 'w' )
f.write( "16  " )
f.write( str(ee) + "\n" )
f.write( MOL.save_string_xyz() )
f.close()
--------------------------------------------------------------------------

    Molecular point group: c1
  Charge       = 0
  Multiplicity = 1
  Basis Set: CC-PVTZ
  Basis Set:
  @DF-RHF Final Energy:  -212.38399229243944
    Total Energy =                       -212.3839922924395296
    Molecular point group: c1
  Basis Set: CC-PVTZ
  Basis Set:
  Basis Set: CC-PVTZ
  Basis Set:
  @DF-RHF Final Energy:  -212.38610857783647
    Total Energy =                       -212.3861085778365805
  Basis Set: CC-PVTZ
  Basis Set:
  Basis Set: CC-PVTZ
  Basis Set:
  @DF-RHF Final Energy:  -212.38907659112903
    Total Energy =                       -212.3890765911289122
  Basis Set: CC-PVTZ
  Basis Set:
  Basis Set: CC-PVTZ
  Basis Set:
  @DF-RHF Final Energy:  -212.38947597132434
    Total Energy =                       -212.3894759713242593
  Basis Set: CC-PVTZ
  Basis Set:
  Basis Set: CC-PVTZ
  Basis Set:
  @DF-RHF Final Energy:  -212.38951248402418
    Total Energy =                       -212.3895124840240101
  Basis Set: CC-PVTZ
  Basis Set:
  Basis Set: CC-PVTZ
  Basis Set:
  @DF-RHF Final Energy:  -212.38951580520930
    Total Energy =                       -212.3895158052092142
  Basis Set: CC-PVTZ
  Basis Set:
  Charge       = 0
  Multiplicity = 1
  Basis Set: CC-PVTZ
  Basis Set:

    Orbital Energies (a.u.)
    -----------------------

    Doubly Occupied:

       1A    -15.526092     2A    -11.239422     3A    -11.237841
       4A    -11.206991     5A    -11.206487     6A     -1.202473
       7A     -1.025535     8A     -0.969581     9A     -0.852681
      10A     -0.794518    11A     -0.662111    12A     -0.626596
      13A     -0.616094    14A     -0.591439    15A     -0.538474
      16A     -0.517543    17A     -0.513282    18A     -0.494359
      19A     -0.484868    20A     -0.473064    21A     -0.354063

  @DF-RHF Final Energy:  -212.38951603092627

   => Energetics <=

    Nuclear Repulsion Energy =            192.0068700846890408
    One-Electron Energy =                -666.5257429163332290
    Two-Electron Energy =                 262.1293568007178578
    DFT Exchange-Correlation Energy =       0.0000000000000000
    Empirical Dispersion Energy =           0.0000000000000000
    PCM Polarization Energy =               0.0000000000000000
    EFP Energy =                            0.0000000000000000
    Total Energy =                       -212.3895160309263588
    Molecular point group: c1
  Basis Set: CC-PVTZ
  Basis Set:

  -Total Gradient:
     Atom            X                  Y                   Z
    ------   -----------------  -----------------  -----------------
       1        0.000000671196    -0.000000859591    -0.000001656827
       2        0.000009346537    -0.000001403058     0.000005142468
       3       -0.004354805703    -0.000637100462     0.000018791343
       4        0.000001206362    -0.000005107111     0.000004207138
       5       -0.000000015577     0.000002847581    -0.000001649720
       6        0.006423958250     0.002283305726     0.000770693983
       7        0.000003478731    -0.000009430449    -0.000001556306
       8        0.000000223415     0.000009390542    -0.000001531702
       9       -0.002444137136    -0.006341720951    -0.003684748745
      10        0.000016814893     0.000008866959    -0.000004735713
      11        0.000004695593    -0.000001208695     0.000007996921
      12        0.000337647929     0.004694337581     0.002912595474
      13       -0.000000899075     0.000004376048    -0.000017133836
      14       -0.000001581879    -0.000004334981    -0.000009719675
      15       -0.000003068189    -0.000006313153    -0.000001384707
      16        0.000006464649     0.000004354014     0.000004689902

  **** Optimization is complete! (in 7 steps) ****
    Final optimized geometry and variables:
    Molecular point group: c1

    Geometry (in Angstrom), charge = 0, multiplicity = 1:

    H            0.188861295421     0.376799797255    -3.121510122859
    C            0.154418688359     0.910615366429    -2.178994938033
    C            0.171871118889    -0.060338414817    -1.009575053967
    H           -0.743739886823     1.515543662599    -2.157474463949
    H            1.010232231224     1.577924375495    -2.146737133939
    N            0.081846543241     0.656052202323     0.244880310681
    H           -0.675849207074    -0.727525287118    -1.094228776661
    H            1.068518683431    -0.683786155857    -1.075374091140
    C            0.199454990406    -0.111262970423     1.473301680529
    H            0.728573985635     1.414030873840     0.257813806583
    C           -0.632515637569    -1.382961359895     1.496520591854
    H            1.240225506047    -0.337100178988     1.718412530166
    H           -0.147191154239     0.530406316404     2.277309844577
    H           -0.271079330734    -2.125841896871     0.796809659254
    H           -0.596293873489    -1.820902353315     2.486966604656
    H           -1.668160690169    -1.167597127270     1.260150955333

  Mulliken Charges: (a.u.)
   Center  Symbol    Alpha    Beta     Spin     Total
       1     H     0.45337  0.45337  0.00000  0.09326
       2     C     3.14519  3.14519  0.00000 -0.29037
       3     C     3.02088  3.02088  0.00000 -0.04177
       4     H     0.44956  0.44956  0.00000  0.10088
       5     H     0.45932  0.45932  0.00000  0.08136
       6     N     3.64055  3.64055  0.00000 -0.28110
       7     H     0.45688  0.45688  0.00000  0.08623
       8     H     0.47444  0.47444  0.00000  0.05112
       9     C     3.02723  3.02723  0.00000 -0.05447
      10     H     0.44162  0.44162  0.00000  0.11676
      11     C     3.15603  3.15603  0.00000 -0.31205
      12     H     0.46923  0.46923  0.00000  0.06154
      13     H     0.45695  0.45695  0.00000  0.08610
      14     H     0.45250  0.45250  0.00000  0.09500
      15     H     0.44674  0.44674  0.00000  0.10652
      16     H     0.44950  0.44950  0.00000  0.10100

   Total alpha = 21.00000, Total beta = 21.00000, Total charge =  0.00000
