                              Psi4 1.0.54 Driver

  ==> Input File <==

--------------------------------------------------------------------------
set {
	reference rhf
	basis cc-pvtz
}

set_num_threads( 4 )
memory 2 gb

molecule MOL {
0 1

O	 -2.365103	 -0.501211	 1.616415
C	 -1.287165	 -0.163910	 1.984803
C	 -0.033063	 -0.802743	 1.421628
C	 -1.107399	 0.926519	 3.014083
C	 0.376695	 -0.140025	 0.100361
H	 -0.246990	 -1.850320	 1.251540
H	 0.779192	 -0.731994	 2.137241
C	 1.630207	 -0.772146	 -0.501001
H	 -0.454438	 -0.215371	 -0.589400
H	 0.554554	 0.920431	 0.261910
C	 2.907848	 -0.545876	 0.309149
H	 1.772784	 -0.391628	 -1.509394
H	 1.468529	 -1.842059	 -0.599744
C	 3.373802	 0.906639	 0.372125
H	 3.699140	 -1.146831	 -0.127906
H	 2.764321	 -0.923458	 1.318191
H	 3.519798	 1.311927	 -0.623875
H	 4.316899	 0.983758	 0.900700
H	 2.661122	 1.540651	 0.885346
H	 -0.709610	 0.493769	 3.926491
H	 -2.054088	 1.400467	 3.223182
H	 -0.390228	 1.663347	 2.670079

	symmetry c1
}
set optking {
	frozen_dihedral = ("
		3 5 8 12
	")
}

ee,wfn = optimize('scf', return_wfn=True)
oeprop( wfn, 'DIPOLE', 'QUADRUPOLE', 'MULLIKEN_CHARGES')
f=open( 'psi4out.xyz', 'w' )
f.write( "22  " )
f.write( str(ee) + "\n" )
f.write( MOL.save_string_xyz() )
f.close()
--------------------------------------------------------------------------

    Molecular point group: c1
  Charge       = 0
  Multiplicity = 1
  Basis Set: CC-PVTZ
  Basis Set:
  @DF-RHF Final Energy:  -348.22114430060054
    Total Energy =                       -348.2211443006006562
    Molecular point group: c1
  Basis Set: CC-PVTZ
  Basis Set:
  Basis Set: CC-PVTZ
  Basis Set:
  @DF-RHF Final Energy:  -348.22164610862666
    Total Energy =                       -348.2216461086266577
  Basis Set: CC-PVTZ
  Basis Set:
  Basis Set: CC-PVTZ
  Basis Set:
  @DF-RHF Final Energy:  -348.22179370781964
    Total Energy =                       -348.2217937078194154
  Basis Set: CC-PVTZ
  Basis Set:
  Basis Set: CC-PVTZ
  Basis Set:
  @DF-RHF Final Energy:  -348.22118004633450
    Total Energy =                       -348.2211800463345526
  Basis Set: CC-PVTZ
  Basis Set:
  @DF-RHF Final Energy:  -348.22180436026696
    Total Energy =                       -348.2218043602663329
  @DF-RHF Final Energy:  -348.22179360030367
    Total Energy =                       -348.2217936003035561
  Basis Set: CC-PVTZ
  Basis Set:
  @DF-RHF Final Energy:  -348.22183052602134
    Total Energy =                       -348.2218305260214493
  Basis Set: CC-PVTZ
  Basis Set:
  Basis Set: CC-PVTZ
  Basis Set:
  @DF-RHF Final Energy:  -348.22182831201457
    Total Energy =                       -348.2218283120150772
  Basis Set: CC-PVTZ
  Basis Set:
  Basis Set: CC-PVTZ
  Basis Set:
  @DF-RHF Final Energy:  -348.22183276235143
    Total Energy =                       -348.2218327623512550
  Basis Set: CC-PVTZ
  Basis Set:
  Charge       = 0
  Multiplicity = 1
  Basis Set: CC-PVTZ
  Basis Set:

    Orbital Energies (a.u.)
    -----------------------

    Doubly Occupied:

       1A    -20.536725     2A    -11.319251     3A    -11.228220
       4A    -11.227254     5A    -11.226951     6A    -11.221345
       7A    -11.220722     8A    -11.213912     9A     -1.396872
      10A     -1.097971    11A     -1.044796    12A     -1.000390
      13A     -0.942447    14A     -0.865600    15A     -0.780225
      16A     -0.735932    17A     -0.663279    18A     -0.654428
      19A     -0.623874    20A     -0.617218    21A     -0.607399
      22A     -0.574927    23A     -0.568158    24A     -0.552757
      25A     -0.532727    26A     -0.523131    27A     -0.510560
      28A     -0.489199    29A     -0.467782    30A     -0.465144
      31A     -0.460004    32A     -0.399367

  @DF-RHF Final Energy:  -348.22183295761619

   => Energetics <=

    Nuclear Repulsion Energy =            379.1236384564661535
    One-Electron Energy =               -1223.1538082838853825
    Two-Electron Energy =                 495.8083368698026447
    DFT Exchange-Correlation Energy =       0.0000000000000000
    Empirical Dispersion Energy =           0.0000000000000000
    PCM Polarization Energy =               0.0000000000000000
    EFP Energy =                            0.0000000000000000
    Total Energy =                       -348.2218329576166411
    Molecular point group: c1
  Basis Set: CC-PVTZ
  Basis Set:

  -Total Gradient:
     Atom            X                  Y                   Z
    ------   -----------------  -----------------  -----------------
       1        0.000036115577     0.000008929321    -0.000003613060
       2       -0.000041480139     0.000015603886    -0.000011189603
       3       -0.000370280501    -0.000406157081    -0.000319064791
       4       -0.000014857205    -0.000024497847     0.000019983600
       5        0.000416577608     0.000413035326     0.000385444753
       6        0.000003417133     0.000005746942     0.000003937510
       7       -0.000000260696    -0.000005245422    -0.000009378881
       8        0.000452803010     0.000612252501     0.000287523419
       9        0.000005641789     0.000000865239     0.000001958366
      10        0.000001458684     0.000005571926     0.000004680991
      11       -0.000000880487     0.000000154925    -0.000011385579
      12       -0.000497663724    -0.000636454663    -0.000337324086
      13       -0.000001587559    -0.000001005562    -0.000000747945
      14       -0.000001095424     0.000001726994     0.000003218035
      15       -0.000002129078    -0.000002665266    -0.000002181474
      16       -0.000001815656    -0.000002182038     0.000000492831
      17        0.000003315647     0.000000623963     0.000001056949
      18       -0.000001939440     0.000003144256     0.000000004862
      19       -0.000003647398     0.000002651516    -0.000000659902
      20        0.000005993748     0.000014997977    -0.000003679542
      21        0.000014148119    -0.000005698904    -0.000004262866
      22       -0.000001834012    -0.000001397989    -0.000004813587

  **** Optimization is complete! (in 10 steps) ****
    Final optimized geometry and variables:
    Molecular point group: c1

    Geometry (in Angstrom), charge = 0, multiplicity = 1:

    O           -2.832231625958    -0.406967633894     0.490977486327
    C           -1.779643640285    -0.026695577400     0.889176759923
    C           -0.486398303119    -0.647057555223     0.398810277972
    C           -1.672501800276     1.100309872841     1.889022199275
    C           -0.021786454779     0.019696607177    -0.903899237726
    H           -0.674943634646    -1.697871252799     0.219330811327
    H            0.276562726891    -0.561809085624     1.163695530929
    C            1.222303538150    -0.625346662389    -1.519803557316
    H           -0.832537821566    -0.048579355808    -1.619974252233
    H            0.149655822546     1.078219624394    -0.737582243800
    C            2.527241304327    -0.482082109358    -0.732686432552
    H            1.364083568907    -0.207137865729    -2.512393529218
    H            1.021653888422    -1.682554304258    -1.668742863263
    C            3.015249343845     0.954801740285    -0.565413038229
    H            3.292406689921    -1.050937347051    -1.251308064945
    H            2.426761557256    -0.945117448897     0.243969166513
    H            3.121533869437     1.445293114421    -1.527508163447
    H            3.981677822829     0.977162062586    -0.075353550505
    H            2.335314378961     1.549312129993     0.033605996305
    H           -1.309465990064     0.705819115404     2.832705543238
    H           -2.638515325301     1.557484346333     2.038318336014
    H           -0.956888602860     1.843429705232     1.555825541736

  Mulliken Charges: (a.u.)
   Center  Symbol    Alpha    Beta     Spin     Total
       1     O     4.17693  4.17693  0.00000 -0.35386
       2     C     2.85621  2.85621  0.00000  0.28758
       3     C     3.09957  3.09957  0.00000 -0.19915
       4     C     3.15611  3.15611  0.00000 -0.31221
       5     C     3.11661  3.11661  0.00000 -0.23322
       6     H     0.43892  0.43892  0.00000  0.12217
       7     H     0.44879  0.44879  0.00000  0.10243
       8     C     3.10262  3.10262  0.00000 -0.20525
       9     H     0.43170  0.43170  0.00000  0.13660
      10     H     0.44784  0.44784  0.00000  0.10432
      11     C     3.09654  3.09654  0.00000 -0.19308
      12     H     0.44509  0.44509  0.00000  0.10981
      13     H     0.44579  0.44579  0.00000  0.10843
      14     C     3.15223  3.15223  0.00000 -0.30446
      15     H     0.44409  0.44409  0.00000  0.11181
      16     H     0.45234  0.45234  0.00000  0.09532
      17     H     0.45260  0.45260  0.00000  0.09481
      18     H     0.44478  0.44478  0.00000  0.11044
      19     H     0.45626  0.45626  0.00000  0.08747
      20     H     0.44851  0.44851  0.00000  0.10297
      21     H     0.43552  0.43552  0.00000  0.12896
      22     H     0.45094  0.45094  0.00000  0.09811

   Total alpha = 32.00000, Total beta = 32.00000, Total charge = -0.00000

*** Psi4 exiting successfully. Buy a developer a beer!
