  ==> Input File <==

--------------------------------------------------------------------------
set {
	reference rhf
	basis 6-31G*
}

set_num_threads( 4 )
memory 2 gb

molecule MOL {
0 1

O	 2.862325	 1.357334	 0.000267
C	 2.843464	 0.164689	 -0.000222
C	 1.546494	 -0.624492	 -0.000609
C	 4.124123	 -0.644674	 -0.000428
C	 0.291004	 0.242674	 0.000989
H	 1.557904	 -1.283758	 -0.867573
H	 1.558622	 -1.285963	 0.864672
C	 -0.662374	 -0.108113	 1.144571
H	 -0.218346	 0.132924	 -0.951192
H	 0.579887	 1.286789	 0.068209
C	 -1.925654	 0.754290	 1.155349
H	 -0.945292	 -1.157349	 1.073087
H	 -0.144724	 0.002504	 2.096343
C	 -2.884428	 0.409332	 2.296300
H	 -2.444308	 0.643943	 0.204644
H	 -1.644078	 1.803329	 1.227656
C	 -4.144009	 1.274853	 2.300256
H	 -3.167540	 -0.638761	 2.224385
H	 -2.367554	 0.520723	 3.247243
H	 -4.701677	 1.159598	 1.375122
H	 -4.803762	 1.006354	 3.119606
H	 -3.896118	 2.327197	 2.406395
H	 4.165367	 -1.288615	 -0.874074
H	 4.976217	 0.020734	 -0.001915
H	 4.166763	 -1.286207	 0.874930

	symmetry c1
}
set optking {
	frozen_dihedral = ("
		9 5 3 6
	")
}

ee = optimize('scf')
oeprop('DIPOLE', 'QUADRUPOLE', 'MULLIKEN_CHARGES')
f=open( 'psi4out.xyz', 'w' )
f.write( "25  " )
f.write( str(ee) + "\n" )
f.write( MOL.save_string_xyz() )
f.close()
--------------------------------------------------------------------------

    Molecular point group: c1
  Charge       = 0
  Multiplicity = 1
  Basis Set: 6-31G*
  Basis Set:
  @DF-RHF Final Energy:  -387.13168927093363
    Total Energy =                       -387.1316892709332933
    Molecular point group: c1
  Basis Set: 6-31G*
  Basis Set:
  Basis Set: 6-31G*
  Basis Set:
  @DF-RHF Final Energy:  -387.13198045583761
    Total Energy =                       -387.1319804558377200
  Basis Set: 6-31G*
  Basis Set:
  Basis Set: 6-31G*
  Basis Set:
  @DF-RHF Final Energy:  -387.13189909967269
    Total Energy =                       -387.1318990996726370
  Basis Set: 6-31G*
  Basis Set:
  Basis Set: 6-31G*
  Basis Set:
  @DF-RHF Final Energy:  -387.13209910680212
    Total Energy =                       -387.1320991068023432
  Basis Set: 6-31G*
  Basis Set:
  Basis Set: 6-31G*
  Basis Set:
  @DF-RHF Final Energy:  -387.13210015129414
    Total Energy =                       -387.1321001512939119
  Basis Set: 6-31G*
  Basis Set:
  Charge       = 0
  Multiplicity = 1
  Basis Set: 6-31G*
  Basis Set:

    Orbital Energies (a.u.)
    -----------------------

    Doubly Occupied:

       1A    -20.551318     2A    -11.327410     3A    -11.232039
       4A    -11.228655     5A    -11.215828     6A    -11.214612
       7A    -11.214460     8A    -11.212346     9A    -11.207589
      10A     -1.396857    11A     -1.091483    12A     -1.055031
      13A     -1.014361    14A     -0.967931    15A     -0.890594
      16A     -0.814531    17A     -0.789995    18A     -0.729288
      19A     -0.666044    20A     -0.643666    21A     -0.632343
      22A     -0.622721    23A     -0.594690    24A     -0.583245
      25A     -0.572540    26A     -0.558622    27A     -0.535327
      28A     -0.525549    29A     -0.515177    30A     -0.494566
      31A     -0.483131    32A     -0.471814    33A     -0.463061
      34A     -0.460179    35A     -0.445494    36A     -0.401071

  @DF-RHF Final Energy:  -387.13210106260732

   => Energetics <=

    Nuclear Repulsion Energy =            439.9139812257151902
    One-Electron Energy =               -1396.4450290438521733
    Two-Electron Energy =                 569.3989467555292094
    DFT Exchange-Correlation Energy =       0.0000000000000000
    Empirical Dispersion Energy =           0.0000000000000000
    PCM Polarization Energy =               0.0000000000000000
    EFP Energy =                            0.0000000000000000
    Total Energy =                       -387.1321010626078305
    Molecular point group: c1
  Basis Set: 6-31G*
  Basis Set:

  -Total Gradient:
     Atom            X                  Y                   Z
    ------   -----------------  -----------------  -----------------
       1        0.000085923907    -0.000180986731     0.000001669794
       2       -0.000204543302     0.000150007873     0.000030328808
       3       -0.000861805644    -0.001155409183     0.000815398920
       4        0.000097185351     0.000034730933    -0.000108043877
       5        0.000909292499     0.001087433344    -0.000653019755
       6        0.000449137830     0.000716200471    -0.000589231125
       7       -0.000049108320     0.000002421799    -0.000009148609
       8        0.000037971698    -0.000044709930    -0.000047124323
       9       -0.000487129402    -0.000757625364     0.000478321681
      10        0.000003833763     0.000006784052    -0.000010351515
      11        0.000011022939     0.000000755328    -0.000004405957
      12        0.000039362205     0.000009092528     0.000012261958
      13       -0.000008534087     0.000017005997    -0.000031565406
      14       -0.000050400797     0.000028871133    -0.000012114343
      15        0.000020099055     0.000013457983     0.000010183571
      16       -0.000013979977    -0.000010053180     0.000006963752
      17       -0.000030009577    -0.000017588473     0.000034762079
      18       -0.000000084354     0.000002684277     0.000003257725
      19       -0.000005489334     0.000006226068    -0.000002386006
      20        0.000007573089    -0.000000365803     0.000003001347
      21       -0.000023188343     0.000009925021     0.000001315003
      22        0.000003375953    -0.000003657204     0.000000969285
      23       -0.000011536502     0.000024126811     0.000042613825
      24        0.000121294546    -0.000017537660     0.000008497046
      25       -0.000040263199     0.000078209910     0.000017846125

  **** Optimization is complete! (in 6 steps) ****
    Final optimized geometry and variables:
    Molecular point group: c1

    Geometry (in Angstrom), charge = 0, multiplicity = 1:

    O            2.693434205412     1.034942589167    -0.757237495584
    C            2.642619190739    -0.156130435395    -0.776032375126
    C            1.332597186734    -0.931158410239    -0.758372772820
    C            3.904965638287    -0.993872522871    -0.815481655238
    C            0.062720295746    -0.065006672862    -0.749588464717
    H            1.349455837946    -1.597816317656    -1.617731950284
    H            1.366045898854    -1.585664582842     0.110776997886
    C           -0.898348464946    -0.419158653285     0.388601531300
    H           -0.458351403076    -0.179620466863    -1.695643377027
    H            0.346667497827     0.976766185210    -0.674123404601
    C           -2.169464187599     0.430673148713     0.383634286980
    H           -1.168937028535    -1.472201249954     0.324057982087
    H           -0.385235693055    -0.293359638319     1.340720104284
    C           -3.132274415317     0.088047256948     1.522120942333
    H           -2.682008491162     0.305960723892    -0.568948665532
    H           -1.897687386644     1.482761704144     0.447074011489
    C           -4.400779579765     0.940392659152     1.508873391085
    H           -3.404086578322    -0.963709852829     1.459952535907
    H           -2.622645639677     0.215384506675     2.474841226262
    H           -4.951673271351     0.809000983804     0.581765926558
    H           -5.062799495980     0.674354207545     2.327217342161
    H           -4.164238603038     1.996298735316     1.604637276278
    H            3.918504020021    -1.616487958267    -1.705154998210
    H            4.771940702747    -0.347946506231    -0.814214629807
    H            3.946220214074    -1.657514224988     0.043193354510

  Mulliken Charges: (a.u.)
   Center  Symbol    Alpha    Beta     Spin     Total
       1     O     4.25990  4.25990  0.00000 -0.51980
       2     C     2.73947  2.73947  0.00000  0.52105
       3     C     3.21367  3.21367  0.00000 -0.42733
       4     C     3.28728  3.28728  0.00000 -0.57457
       5     C     3.15695  3.15695  0.00000 -0.31391
       6     H     0.40726  0.40726  0.00000  0.18548
       7     H     0.40709  0.40709  0.00000  0.18582
       8     C     3.15586  3.15586  0.00000 -0.31172
       9     H     0.42021  0.42021  0.00000  0.15957
      10     H     0.39371  0.39371  0.00000  0.21258
      11     C     3.15171  3.15171  0.00000 -0.30343
      12     H     0.42540  0.42540  0.00000  0.14921
      13     H     0.42264  0.42264  0.00000  0.15472
      14     C     3.15144  3.15144  0.00000 -0.30287
      15     H     0.42415  0.42415  0.00000  0.15171
      16     H     0.42087  0.42087  0.00000  0.15827
      17     C     3.23932  3.23932  0.00000 -0.47863
      18     H     0.42396  0.42396  0.00000  0.15208
      19     H     0.42287  0.42287  0.00000  0.15425
      20     H     0.42197  0.42197  0.00000  0.15607
      21     H     0.41961  0.41961  0.00000  0.16077
      22     H     0.42101  0.42101  0.00000  0.15798
      23     H     0.40858  0.40858  0.00000  0.18284
      24     H     0.39630  0.39630  0.00000  0.20741
      25     H     0.40878  0.40878  0.00000  0.18244

   Total alpha = 36.00000, Total beta = 36.00000, Total charge =  0.00000
