  ==> Input File <==

--------------------------------------------------------------------------
set {
	reference rhf
	basis 6-31G*
}

set_num_threads( 4 )
memory 2 gb

molecule MOL {
0 1

O	 2.544561	 1.850230	 -0.436504
C	 1.838777	 1.723109	 -1.389639
C	 0.569680	 0.890692	 -1.352025
C	 2.167518	 2.390316	 -2.709457
C	 0.291004	 0.242674	 0.000989
H	 -0.258633	 1.532446	 -1.649411
H	 0.643551	 0.134968	 -2.132938
C	 -0.994322	 -0.586602	 0.000262
H	 0.231019	 1.016052	 0.760210
H	 1.134073	 -0.383189	 0.276087
C	 -2.259874	 0.272531	 0.000494
H	 -1.004862	 -1.240012	 -0.870939
H	 -1.005220	 -1.241071	 0.870675
C	 -3.549786	 -0.549746	 -0.000374
H	 -2.250389	 0.926680	 -0.869574
H	 -2.250838	 0.925513	 0.871430
C	 -4.809590	 0.315458	 -0.000369
H	 -3.560515	 -1.202009	 -0.871156
H	 -3.561123	 -1.202955	 0.869711
H	 -4.844746	 0.956611	 -0.876632
H	 -5.706986	 -0.295590	 -0.001609
H	 -4.845960	 0.954827	 0.877144
H	 1.363265	 3.056339	 -3.008133
H	 3.085857	 2.952964	 -2.615040
H	 2.277291	 1.646185	 -3.492945

	symmetry c1
}
set optking {
	frozen_dihedral = ("
		9 5 8 12
	")
}

ee = optimize('scf')
oeprop('DIPOLE', 'QUADRUPOLE', 'MULLIKEN_CHARGES')
f=open( 'psi4out.xyz', 'w' )
f.write( "25  " )
f.write( str(ee) + "\n" )
f.write( MOL.save_string_xyz() )
f.close()
--------------------------------------------------------------------------

    Molecular point group: c1
  Charge       = 0
  Multiplicity = 1
  Basis Set: 6-31G*
  Basis Set:
  @DF-RHF Final Energy:  -387.13433998174662
    Total Energy =                       -387.1343399817466207
    Molecular point group: c1
  Basis Set: 6-31G*
  Basis Set:
  Basis Set: 6-31G*
  Basis Set:
  @DF-RHF Final Energy:  -387.13452947430494
    Total Energy =                       -387.1345294743050545
  Basis Set: 6-31G*
  Basis Set:
  Basis Set: 6-31G*
  Basis Set:
  @DF-RHF Final Energy:  -387.13451865567612
    Total Energy =                       -387.1345186556764020
  Basis Set: 6-31G*
  Basis Set:
  Basis Set: 6-31G*
  Basis Set:
  @DF-RHF Final Energy:  -387.13461208218956
    Total Energy =                       -387.1346120821895056
  Basis Set: 6-31G*
  Basis Set:
  Basis Set: 6-31G*
  Basis Set:
  @DF-RHF Final Energy:  -387.13463821262195
    Total Energy =                       -387.1346382126220078
  Basis Set: 6-31G*
  Basis Set:
  Basis Set: 6-31G*
  Basis Set:
  @DF-RHF Final Energy:  -387.13465057709209
    Total Energy =                       -387.1346505770923159
  Basis Set: 6-31G*
  Basis Set:
  Charge       = 0
  Multiplicity = 1
  Basis Set: 6-31G*
  Basis Set:

    Orbital Energies (a.u.)
    -----------------------

    Doubly Occupied:

       1A    -20.550373     2A    -11.326236     3A    -11.231427
       4A    -11.228307     5A    -11.217360     6A    -11.217109
       7A    -11.216770     8A    -11.215862     9A    -11.210312
      10A     -1.395699    11A     -1.094296    12A     -1.055861
      13A     -1.014465    14A     -0.968244    15A     -0.896341
      16A     -0.815720    17A     -0.788437    18A     -0.731580
      19A     -0.658642    20A     -0.647188    21A     -0.639761
      22A     -0.620836    23A     -0.597753    24A     -0.578048
      25A     -0.569918    26A     -0.566403    27A     -0.541966
      28A     -0.527507    29A     -0.516597    30A     -0.492884
      31A     -0.486393    32A     -0.477893    33A     -0.463863
      34A     -0.459248    35A     -0.446424    36A     -0.400601

  @DF-RHF Final Energy:  -387.13465127460478

   => Energetics <=

    Nuclear Repulsion Energy =            444.0011322108402396
    One-Electron Energy =               -1404.5389192941352121
    Two-Electron Energy =                 573.4031358086904220
    DFT Exchange-Correlation Energy =       0.0000000000000000
    Empirical Dispersion Energy =           0.0000000000000000
    PCM Polarization Energy =               0.0000000000000000
    EFP Energy =                            0.0000000000000000
    Total Energy =                       -387.1346512746044937
    Molecular point group: c1
  Basis Set: 6-31G*
  Basis Set:

  -Total Gradient:
     Atom            X                  Y                   Z
    ------   -----------------  -----------------  -----------------
       1       -0.000058688527     0.000074678540     0.000026835989
       2        0.000142957633    -0.000239701365    -0.000102402207
       3       -0.000041557441     0.000153221581     0.000044560857
       4       -0.000049814838     0.000087765577     0.000029587722
       5        0.000674720115    -0.000968044960     0.001039968502
       6        0.000020825291    -0.000004333937    -0.000017258634
       7        0.000022934697     0.000006347229     0.000026057023
       8        0.000647448209    -0.001077287266     0.000834358340
       9       -0.000575444812     0.000919790077    -0.001018677116
      10        0.000034217974     0.000027024094    -0.000009589431
      11       -0.000063753252    -0.000047851013    -0.000038893517
      12       -0.000696432924     0.001062398379    -0.000756053462
      13        0.000006335454    -0.000002491886    -0.000010914825
      14       -0.000027185900     0.000037832687    -0.000067478438
      15       -0.000043460055    -0.000017547667     0.000005374274
      16        0.000000323194    -0.000009955396    -0.000005941186
      17       -0.000007869985    -0.000009854803     0.000042303023
      18       -0.000006189915     0.000007419434    -0.000013937180
      19        0.000019630560     0.000002585951    -0.000016894680
      20        0.000000725861    -0.000014875302    -0.000006627455
      21       -0.000000010394     0.000003033587     0.000017804635
      22       -0.000001656762     0.000016075687    -0.000000806239
      23        0.000003196562     0.000005059744    -0.000017939777
      24       -0.000000479052    -0.000000239574     0.000000903255
      25       -0.000000771695    -0.000011049399     0.000015660524

  **** Optimization is complete! (in 7 steps) ****
    Final optimized geometry and variables:
    Molecular point group: c1

    Geometry (in Angstrom), charge = 0, multiplicity = 1:

    O            3.051023188393     1.078915542054     0.230974315130
    C            2.354505351884     0.978774342291    -0.732157821304
    C            1.056956156250     0.190297078842    -0.716137929356
    C            2.723333076346     1.640723156880    -2.044135626289
    C            0.747543928146    -0.460522561869     0.631217307059
    H            0.260408561690     0.864329531504    -1.023917048254
    H            1.117142515220    -0.563809712468    -1.499966512488
    C           -0.545658403485    -1.285751976607     0.630651374073
    H            0.689044104249     0.315074350884     1.388312417795
    H            1.583718100688    -1.093103249069     0.907712807947
    C           -1.830207405613    -0.451156921316     0.642536686303
    H           -0.558934569512    -1.942108777003    -0.238279346248
    H           -0.545207278779    -1.933059339613     1.504176221988
    C           -3.098869752921    -1.305568318868     0.680425501731
    H           -1.867225688392     0.193550725654    -0.233299538400
    H           -1.817796485100     0.210339834307     1.507151700410
    C           -4.380190499363    -0.473050732238     0.707908361065
    H           -3.115410004598    -1.964659215595    -0.185122499586
    H           -3.070241290954    -1.952103960178     1.554817247226
    H           -4.457617088721     0.157464445684    -0.173522384710
    H           -5.260911298406    -1.107027360692     0.738661647807
    H           -4.408331277062     0.174508366919     1.579692654655
    H            1.946972852574     2.336310245229    -2.349186866766
    H            3.659546972187     2.170235381510    -1.934881189428
    H            2.816980492457     0.897295725021    -2.830379126542

  Mulliken Charges: (a.u.)
   Center  Symbol    Alpha    Beta     Spin     Total
       1     O     4.26113  4.26113  0.00000 -0.52226
       2     C     2.73571  2.73571  0.00000  0.52857
       3     C     3.21160  3.21160  0.00000 -0.42320
       4     C     3.28659  3.28659  0.00000 -0.57318
       5     C     3.14998  3.14998  0.00000 -0.29996
       6     H     0.40871  0.40871  0.00000  0.18257
       7     H     0.41045  0.41045  0.00000  0.17910
       8     C     3.15670  3.15670  0.00000 -0.31340
       9     H     0.41237  0.41237  0.00000  0.17526
      10     H     0.40981  0.40981  0.00000  0.18038
      11     C     3.15260  3.15260  0.00000 -0.30519
      12     H     0.42533  0.42533  0.00000  0.14934
      13     H     0.41832  0.41832  0.00000  0.16336
      14     C     3.15115  3.15115  0.00000 -0.30229
      15     H     0.42577  0.42577  0.00000  0.14847
      16     H     0.42224  0.42224  0.00000  0.15552
      17     C     3.23924  3.23924  0.00000 -0.47849
      18     H     0.42342  0.42342  0.00000  0.15316
      19     H     0.42218  0.42218  0.00000  0.15564
      20     H     0.42255  0.42255  0.00000  0.15490
      21     H     0.41896  0.41896  0.00000  0.16208
      22     H     0.42117  0.42117  0.00000  0.15767
      23     H     0.40878  0.40878  0.00000  0.18244
      24     H     0.39648  0.39648  0.00000  0.20704
      25     H     0.40876  0.40876  0.00000  0.18248

   Total alpha = 36.00000, Total beta = 36.00000, Total charge = -0.00000
