                              Psi4 1.0.54 Driver

  ==> Input File <==

--------------------------------------------------------------------------
set {
	reference rhf
	basis cc-pvtz
}

set_num_threads( 4 )
memory 2 gb

molecule MOL {
0 1

H	 1.442530	 -1.411439	 0.577143
O	 1.583947	 -0.677544	 -0.001533
C	 0.489979	 0.078084	 0.002623
C	 -0.763662	 -0.754014	 0.000816
O	 0.539051	 1.259395	 -0.000088
C	 -2.038001	 0.074705	 -0.000833
H	 -0.712945	 -1.405886	 -0.864342
H	 -0.715137	 -1.405770	 0.866182
H	 -2.087267	 0.710831	 -0.874232
H	 -2.903419	 -0.576199	 -0.001922
H	 -2.089467	 0.710909	 0.872389

	symmetry c1
}
set optking {
	frozen_dihedral = ("
		1 2 3 5
	")
}

ee,wfn = optimize('scf', return_wfn=True)
oeprop( wfn, 'DIPOLE', 'QUADRUPOLE', 'MULLIKEN_CHARGES')
f=open( 'psi4out.xyz', 'w' )
f.write( "11  " )
f.write( str(ee) + "\n" )
f.write( MOL.save_string_xyz() )
f.close()
--------------------------------------------------------------------------

    Molecular point group: c1
  Charge       = 0
  Multiplicity = 1
  Basis Set: CC-PVTZ
  Basis Set:
  @DF-RHF Final Energy:  -266.93775804977082
    Total Energy =                       -266.9377580497707640
    Molecular point group: c1
  Basis Set: CC-PVTZ
  Basis Set:
  Basis Set: CC-PVTZ
  Basis Set:
  @DF-RHF Final Energy:  -265.67698133209126
    Total Energy =                       -265.6769813320911453
  Basis Set: CC-PVTZ
  Basis Set:
  Basis Set: CC-PVTZ
  Basis Set:
  @DF-RHF Final Energy:  -265.82800901416226
    Total Energy =                       -265.8280090141622622
  Basis Set: CC-PVTZ
  Basis Set:
  Basis Set: CC-PVTZ
  Basis Set:
  @DF-RHF Final Energy:  -265.78247802266401
    Total Energy =                       -265.7824780226638950
  Basis Set: CC-PVTZ
  Basis Set:
  @DF-RHF Final Energy:  -265.81105641995021
    Total Energy =                       -265.8110564199503187
  @DF-RHF Final Energy:  -266.06396925336981
    Total Energy =                       -266.0639692533695779
  @DF-RHF Final Energy:  -266.23652872805468
    Total Energy =                       -266.2365287280548500
  @DF-RHF Final Energy:  -265.27013259742341
    Total Energy =                       -265.2701325974234123
  @DF-RHF Final Energy:  -265.48329242387899
    Total Energy =                       -265.4832924238791065
  @DF-RHF Final Energy:  -265.62317199530878
    Total Energy =                       -265.6231719953086667
  @DF-RHF Final Energy:  -265.38228623385902
    Total Energy =                       -265.3822862338589630
  @DF-RHF Final Energy:  -265.76002449451721
    Total Energy =                       -265.7600244945173245
  @DF-RHF Final Energy:  -265.95584619220534
    Total Energy =                       -265.9558461922052857
  @DF-RHF Final Energy:  -266.04884046022062
    Total Energy =                       -266.0488404602205037
  @DF-RHF Final Energy:  -266.21793692642655
    Total Energy =                       -266.2179369264265461
  @DF-RHF Final Energy:  -266.38099247219134
    Total Energy =                       -266.3809924721915650
  @DF-RHF Final Energy:  -266.52880897372995
    Total Energy =                       -266.5288089737298378
  @DF-RHF Final Energy:  -266.61339430484543
    Total Energy =                       -266.6133943048455990
  @DF-RHF Final Energy:  -266.65635770295910
    Total Energy =                       -266.6563577029592125
  @DF-RHF Final Energy:  -266.59452774128192
    Total Energy =                       -266.5945277412818655
  @DF-RHF Final Energy:  -266.68206703650770
    Total Energy =                       -266.6820670365078172
  @DF-RHF Final Energy:  -266.72252980286606
    Total Energy =                       -266.7225298028662337
  @DF-RHF Final Energy:  -266.76891341141504
    Total Energy =                       -266.7689134114148715
  @DF-RHF Final Energy:  -266.82307128205309
    Total Energy =                       -266.8230712820530925
  @DF-RHF Final Energy:  -266.88113680698632
    Total Energy =                       -266.8811368069863192
  @DF-RHF Final Energy:  -266.92437974735344
    Total Energy =                       -266.9243797473533846
  @DF-RHF Final Energy:  -266.93624249174997
    Total Energy =                       -266.9362424917500221
  @DF-RHF Final Energy:  -266.93530805187709
    Total Energy =                       -266.9353080518772572
  @DF-RHF Final Energy:  -266.93766605287851
    Total Energy =                       -266.9376660528785123
  @DF-RHF Final Energy:  -266.93685055036644
    Total Energy =                       -266.9368505503665574
  @DF-RHF Final Energy:  -266.93895492942318
    Total Energy =                       -266.9389549294231756
  @DF-RHF Final Energy:  -266.93831011885624
    Total Energy =                       -266.9383101188561227
  Basis Set: CC-PVTZ
  Basis Set:
  @DF-RHF Final Energy:  -266.93917929590032
    Total Energy =                       -266.9391792959003737
  Basis Set: CC-PVTZ
  Basis Set:
  Basis Set: CC-PVTZ
  Basis Set:
  @DF-RHF Final Energy:  -266.93919081466339
    Total Energy =                       -266.9391908146633341
  Basis Set: CC-PVTZ
  Basis Set:
  Basis Set: CC-PVTZ
  Basis Set:
  @DF-RHF Final Energy:  -266.93919597517640
    Total Energy =                       -266.9391959751763466
  Basis Set: CC-PVTZ
  Basis Set:
  Charge       = 0
  Multiplicity = 1
  Basis Set: CC-PVTZ
  Basis Set:

    Orbital Energies (a.u.)
    -----------------------

    Doubly Occupied:

       1A    -20.598248     2A    -20.543350     3A    -11.374208
       4A    -11.251671     5A    -11.223474     6A     -1.468809
       7A     -1.374614     8A     -1.068559     9A     -0.909456
      10A     -0.825806    11A     -0.719061    12A     -0.671659
      13A     -0.662051    14A     -0.617346    15A     -0.585618
      16A     -0.534215    17A     -0.525874    18A     -0.511595
      19A     -0.487519    20A     -0.447307

  @DF-RHF Final Energy:  -266.93919744508457

   => Energetics <=

    Nuclear Repulsion Energy =            179.8118231098237914
    One-Electron Energy =                -720.7011624097872300
    Two-Electron Energy =                 273.9501418548787228
    DFT Exchange-Correlation Energy =       0.0000000000000000
    Empirical Dispersion Energy =           0.0000000000000000
    PCM Polarization Energy =               0.0000000000000000
    EFP Energy =                            0.0000000000000000
    Total Energy =                       -266.9391974450847442
    Molecular point group: c1
  Basis Set: CC-PVTZ
  Basis Set:

  -Total Gradient:
     Atom            X                  Y                   Z
    ------   -----------------  -----------------  -----------------
       1       -0.000473276827     0.004827309237    -0.004853905324
       2        0.002039160185    -0.005276553737     0.004176048753
       3       -0.004879299088    -0.001621290876     0.004922248851
       4       -0.000154202007    -0.000069562765     0.000076136551
       5        0.003367401607     0.002121740606    -0.004284151726
       6       -0.000063263796     0.000001647842    -0.000059656385
       7        0.000036882483     0.000013324498    -0.000021561045
       8        0.000045892417    -0.000040076225    -0.000049794297
       9        0.000022951644     0.000029804547     0.000020864545
      10        0.000053735702    -0.000011986442     0.000039728263
      11        0.000004017675     0.000025643313     0.000034041817

  **** Optimization is complete! (in 35 steps) ****
    Final optimized geometry and variables:
    Molecular point group: c1

    Geometry (in Angstrom), charge = 0, multiplicity = 1:

    H           -0.236749427263    -1.398499563164    -1.641534492632
    O           -0.910340529018    -0.959255132141    -1.151654065351
    C           -0.401680047463    -0.047934441044    -0.303536904483
    C            0.860719042083    -0.482594869324     0.404247707534
    O           -0.932167079923     0.988924948551    -0.152576572075
    C            1.433324244075     0.577233516537     1.331483929423
    H            0.625858337774    -1.393360879867     0.945210293947
    H            1.588696836127    -0.764465783354    -0.352927804199
    H            0.719986551067     0.843098713038     2.099298725976
    H            2.332157824735     0.208075148731     1.809935215970
    H            1.679937815816     1.478171865681     0.786207412491

  Mulliken Charges: (a.u.)
   Center  Symbol    Alpha    Beta     Spin     Total
       1     H     0.38816  0.38816  0.00000  0.22369
       2     O     4.15539  4.15539  0.00000 -0.31079
       3     C     2.80636  2.80636  0.00000  0.38728
       4     C     3.11017  3.11017  0.00000 -0.22033
       5     O     4.16775  4.16775  0.00000 -0.33549
       6     C     3.14002  3.14002  0.00000 -0.28004
       7     H     0.43702  0.43702  0.00000  0.12597
       8     H     0.45340  0.45340  0.00000  0.09321
       9     H     0.44440  0.44440  0.00000  0.11119
      10     H     0.45034  0.45034  0.00000  0.09933
      11     H     0.44701  0.44701  0.00000  0.10599

   Total alpha = 20.00000, Total beta = 20.00000, Total charge =  0.00000

*** Psi4 exiting successfully. Buy a developer a beer!
