  ==> Input File <==

--------------------------------------------------------------------------
set {
	reference rhf
	basis cc-pvtz
}

set_num_threads( 4 )
memory 2 gb

molecule MOL {
0 1

H	 1.033997	 0.633657	 0.000000
C	 0.788096	 -0.429819	 0.000000
N	 -0.537714	 -0.645117	 0.000000
O	 1.632679	 -1.268507	 -0.000000
C	 -1.522613	 0.412524	 0.000000
H	 -0.845894	 -1.585866	 0.000000
H	 -2.150256	 0.356137	 -0.880771
H	 -1.005621	 1.357208	 0.000000
H	 -2.150256	 0.356137	 0.880771

	symmetry c1
}
set optking {
	frozen_dihedral = ("
		1 2 3 6
	")
}

ee = optimize('scf')
oeprop('DIPOLE', 'QUADRUPOLE', 'MULLIKEN_CHARGES')
f=open( 'psi4out.xyz', 'w' )
f.write( "9  " )
f.write( str(ee) + "\n" )
f.write( MOL.save_string_xyz() )
f.close()
--------------------------------------------------------------------------

    Molecular point group: c1
  Charge       = 0
  Multiplicity = 1
  Basis Set: CC-PVTZ
  Basis Set:
  @DF-RHF Final Energy:  -208.04187484574081
    Total Energy =                       -208.0418748457409492
    Molecular point group: c1
  Basis Set: CC-PVTZ
  Basis Set:
  Basis Set: CC-PVTZ
  Basis Set:
  @DF-RHF Final Energy:  -208.04210222943493
    Total Energy =                       -208.0421022294350166
  Basis Set: CC-PVTZ
  Basis Set:
  Charge       = 0
  Multiplicity = 1
  Basis Set: CC-PVTZ
  Basis Set:

    Orbital Energies (a.u.)
    -----------------------

    Doubly Occupied:

       1A    -20.515512     2A    -15.584597     3A    -11.338074
       4A    -11.274831     5A     -1.393317     6A     -1.243323
       7A     -0.967764     8A     -0.848327     9A     -0.694286
      10A     -0.678021    11A     -0.636611    12A     -0.596916
      13A     -0.571432    14A     -0.548450    15A     -0.427894
      16A     -0.394529

  @DF-RHF Final Energy:  -208.04211853481533

   => Energetics <=

    Nuclear Repulsion Energy =            120.6863555328432369
    One-Electron Energy =                -522.0291812007376393
    Two-Electron Energy =                 193.3007071330792144
    DFT Exchange-Correlation Energy =       0.0000000000000000
    Empirical Dispersion Energy =           0.0000000000000000
    PCM Polarization Energy =               0.0000000000000000
    EFP Energy =                            0.0000000000000000
    Total Energy =                       -208.0421185348152164
    Molecular point group: c1
  Basis Set: CC-PVTZ
  Basis Set:

  -Total Gradient:
     Atom            X                  Y                   Z
    ------   -----------------  -----------------  -----------------
       1       -0.000001459324    -0.000022214930    -0.000000000010
       2        0.000060377465    -0.000084898224     0.000000000033
       3        0.000268366531     0.000109338497    -0.000000000006
       4       -0.000053799652     0.000057449474    -0.000000000014
       5       -0.000349454038    -0.000002150386    -0.000000000081
       6       -0.000098004900    -0.000054804345    -0.000000000001
       7        0.000058706607    -0.000004148099    -0.000013020329
       8        0.000056560753     0.000005576124    -0.000000000005
       9        0.000058706561    -0.000004148108     0.000013020414

  **** Optimization is complete! (in 3 steps) ****
    Final optimized geometry and variables:
    Molecular point group: c1

    Geometry (in Angstrom), charge = 0, multiplicity = 1:

    H            0.989424514558     1.112791647498    -0.000000000001
    C            0.719753047145     0.054595712817     0.000000000058
    N           -0.608218020458    -0.147763328320     0.000000000016
    O            1.541737375075    -0.805282843275    -0.000000000067
    C           -1.603858578663     0.893166682703     0.000000000010
    H           -0.901016018960    -1.096893867587     0.000000000050
    H           -2.232973213627     0.838108821100    -0.879931994325
    H           -1.113265704138     1.856538644224     0.000000000015
    H           -2.232973213665     0.838108821083     0.879931994283

  Mulliken Charges: (a.u.)
   Center  Symbol    Alpha    Beta     Spin     Total
       1     H     0.47054  0.47054  0.00000  0.05892
       2     C     2.88315  2.88315  0.00000  0.23370
       3     N     3.59710  3.59710  0.00000 -0.19421
       4     O     4.20906  4.20906  0.00000 -0.41812
       5     C     3.07115  3.07115  0.00000 -0.14230
       6     H     0.40824  0.40824  0.00000  0.18353
       7     H     0.45306  0.45306  0.00000  0.09389
       8     H     0.45465  0.45465  0.00000  0.09071
       9     H     0.45306  0.45306  0.00000  0.09389

   Total alpha = 16.00000, Total beta = 16.00000, Total charge = -0.00000
