  ==> Input File <==

--------------------------------------------------------------------------
set {
	reference rhf
	basis cc-pvtz
}

set_num_threads( 4 )
memory 2 gb

molecule MOL {
0 1

H	 -1.088256	 -1.364742	 0.152233
O	 -1.432053	 -0.565244	 -0.200812
C	 -0.727158	 0.534527	 0.310686
C	 0.680222	 0.664433	 -0.252229
H	 -1.306802	 1.408001	 0.044211
H	 -0.690821	 0.490158	 1.397609
C	 1.750756	 0.904354	 0.808168
H	 0.913754	 -0.235277	 -0.811887
H	 0.682841	 1.488113	 -0.960885
H	 1.818982	 0.072469	 1.500582
H	 2.727174	 1.022668	 0.354116
H	 1.542917	 1.803128	 1.380850

	symmetry c1
}
set optking {
	frozen_dihedral = ("
		8 4 3 2
	")
}

ee = optimize('scf')
oeprop('DIPOLE', 'QUADRUPOLE', 'MULLIKEN_CHARGES')
f=open( 'psi4out.xyz', 'w' )
f.write( "12  " )
f.write( str(ee) + "\n" )
f.write( MOL.save_string_xyz() )
f.close()
--------------------------------------------------------------------------

    Molecular point group: c1
  Charge       = 0
  Multiplicity = 1
  Basis Set: CC-PVTZ
  Basis Set:
  @DF-RHF Final Energy:  -193.18457848202121
    Total Energy =                       -193.1845784820211804
    Molecular point group: c1
  Basis Set: CC-PVTZ
  Basis Set:
  Basis Set: CC-PVTZ
  Basis Set:
  @DF-RHF Final Energy:  -193.18503222018009
    Total Energy =                       -193.1850322201800623
  Basis Set: CC-PVTZ
  Basis Set:
  Basis Set: CC-PVTZ
  Basis Set:
  @DF-RHF Final Energy:  -193.18510193209033
    Total Energy =                       -193.1851019320901628
  Basis Set: CC-PVTZ
  Basis Set:
  Basis Set: CC-PVTZ
  Basis Set:
  @DF-RHF Final Energy:  -193.18510750123448
    Total Energy =                       -193.1851075012345973
  Basis Set: CC-PVTZ
  Basis Set:
  Charge       = 0
  Multiplicity = 1
  Basis Set: CC-PVTZ
  Basis Set:

    Orbital Energies (a.u.)
    -----------------------

    Doubly Occupied:

       1A    -20.545443     2A    -11.266059     3A    -11.217418
       4A    -11.214767     5A     -1.363451     6A     -1.051349
       7A     -0.920441     8A     -0.819384     9A     -0.694064
      10A     -0.638292    11A     -0.597155    12A     -0.573440
      13A     -0.566180    14A     -0.509096    15A     -0.489773
      16A     -0.464493    17A     -0.431708

  @DF-RHF Final Energy:  -193.18510782387858

   => Energetics <=

    Nuclear Repulsion Energy =            131.0542630682281242
    One-Electron Energy =                -521.7537168266775325
    Two-Electron Energy =                 197.5143459345707981
    DFT Exchange-Correlation Energy =       0.0000000000000000
    Empirical Dispersion Energy =           0.0000000000000000
    PCM Polarization Energy =               0.0000000000000000
    EFP Energy =                            0.0000000000000000
    Total Energy =                       -193.1851078238786101
    Molecular point group: c1
  Basis Set: CC-PVTZ
  Basis Set:

  -Total Gradient:
     Atom            X                  Y                   Z
    ------   -----------------  -----------------  -----------------
       1       -0.000011013780    -0.000035022827    -0.000008265361
       2        0.000801165583    -0.001327682889     0.001707372078
       3       -0.001333128760     0.002097996914    -0.002832180036
       4        0.001613644467    -0.001911178550     0.003510541207
       5        0.000021963155     0.000021942648     0.000005397108
       6       -0.000007367474    -0.000028340199    -0.000004542693
       7       -0.000003292209    -0.000034707737    -0.000032301924
       8       -0.001049613487     0.001187911139    -0.002341048815
       9       -0.000014734669     0.000015255770    -0.000006957597
      10        0.000001866048     0.000008923382    -0.000001140950
      11       -0.000005653472    -0.000007454207     0.000015201748
      12       -0.000013835405     0.000012356556    -0.000012074766

  **** Optimization is complete! (in 5 steps) ****
    Final optimized geometry and variables:
    Molecular point group: c1

    Geometry (in Angstrom), charge = 0, multiplicity = 1:

    H           -1.067324257346    -1.708391182986    -0.103531163156
    O           -1.486291733708    -0.906562778239    -0.357816363611
    C           -0.766965199059     0.187099908183     0.146882355714
    C            0.653753851274     0.306556205847    -0.429336203714
    H           -1.353112212818     1.062052297505    -0.095367990158
    H           -0.720181396123     0.126018180900     1.231768243168
    C            1.724096811212     0.558353593314     0.626697853072
    H            0.872517361459    -0.597208524365    -0.987997418755
    H            0.680640807060     1.105956314873    -1.162453449121
    H            1.766565226440    -0.253510146494     1.345527491119
    H            2.704559753931     0.654511558987     0.175608110150
    H            1.524325864597     1.472281309713     1.176397134428

  Mulliken Charges: (a.u.)
   Center  Symbol    Alpha    Beta     Spin     Total
       1     H     0.39477  0.39477  0.00000  0.21045
       2     O     4.20201  4.20201  0.00000 -0.40401
       3     C     2.96955  2.96955  0.00000  0.06089
       4     C     3.09424  3.09424  0.00000 -0.18847
       5     H     0.45421  0.45421  0.00000  0.09158
       6     H     0.47148  0.47148  0.00000  0.05703
       7     C     3.15054  3.15054  0.00000 -0.30107
       8     H     0.45207  0.45207  0.00000  0.09585
       9     H     0.45245  0.45245  0.00000  0.09510
      10     H     0.45682  0.45682  0.00000  0.08637
      11     H     0.44795  0.44795  0.00000  0.10411
      12     H     0.45392  0.45392  0.00000  0.09216

   Total alpha = 17.00000, Total beta = 17.00000, Total charge = -0.00000
