  ==> Input File <==

--------------------------------------------------------------------------
set {
	reference rhf
	basis 6-31G*
}

set_num_threads( 4 )
memory 2 gb

molecule MOL {
0 1

H	 -3.781446	 0.748000	 -1.649034
O	 -3.245075	 0.099833	 -1.215338
C	 -2.009873	 0.667988	 -0.863106
C	 -1.177863	 -0.397191	 -0.171080
H	 -1.489135	 1.031480	 -1.747985
H	 -2.154975	 1.518199	 -0.197954
C	 0.198102	 0.111031	 0.262842
H	 -1.069262	 -1.239820	 -0.848509
H	 -1.732965	 -0.758636	 0.690138
C	 1.331804	 -0.827780	 -0.158768
H	 0.361943	 1.100838	 -0.156218
H	 0.217265	 0.229072	 1.345532
C	 2.723619	 -0.410569	 0.329459
H	 1.342964	 -0.912588	 -1.244120
H	 1.116806	 -1.824343	 0.220779
C	 3.243875	 0.895854	 -0.272975
H	 3.424222	 -1.207124	 0.091250
H	 2.714788	 -0.329854	 1.414619
H	 3.251977	 0.848779	 -1.358681
H	 2.637085	 1.747371	 0.016682
H	 4.259473	 1.094070	 0.055697

	symmetry c1
}
set optking {
	frozen_dihedral = ("
		8 4 7 10
	")
}

ee = optimize('scf')
oeprop('DIPOLE', 'QUADRUPOLE', 'MULLIKEN_CHARGES')
f=open( 'psi4out.xyz', 'w' )
f.write( "21  " )
f.write( str(ee) + "\n" )
f.write( MOL.save_string_xyz() )
f.close()
--------------------------------------------------------------------------

    Molecular point group: c1
  Charge       = 0
  Multiplicity = 1
  Basis Set: 6-31G*
  Basis Set:
  @DF-RHF Final Energy:  -310.20814760532210
    Total Energy =                       -310.2081476053219831
    Molecular point group: c1
  Basis Set: 6-31G*
  Basis Set:
  Basis Set: 6-31G*
  Basis Set:
  @DF-RHF Final Energy:  -310.20835619508796
    Total Energy =                       -310.2083561950879016
  Basis Set: 6-31G*
  Basis Set:
  Basis Set: 6-31G*
  Basis Set:
  @DF-RHF Final Energy:  -310.20840805922074
    Total Energy =                       -310.2084080592209716
  Basis Set: 6-31G*
  Basis Set:
  Basis Set: 6-31G*
  Basis Set:
  @DF-RHF Final Energy:  -310.20840021657352
    Total Energy =                       -310.2084002165736365
  Basis Set: 6-31G*
  Basis Set:
  Basis Set: 6-31G*
  Basis Set:
  @DF-RHF Final Energy:  -310.20840904400632
    Total Energy =                       -310.2084090440063164
  Basis Set: 6-31G*
  Basis Set:
  Charge       = 0
  Multiplicity = 1
  Basis Set: 6-31G*
  Basis Set:

    Orbital Energies (a.u.)
    -----------------------

    Doubly Occupied:

       1A    -20.552017     2A    -11.267598     3A    -11.215643
       4A    -11.215123     5A    -11.213949     6A    -11.210237
       7A    -11.208650     8A     -1.359121     9A     -1.084992
      10A     -1.032060    11A     -0.954456    12A     -0.875884
      13A     -0.809305    14A     -0.779029    15A     -0.693773
      16A     -0.651425    17A     -0.629490    18A     -0.607402
      19A     -0.582854    20A     -0.573267    21A     -0.531309
      22A     -0.524543    23A     -0.510898    24A     -0.487581
      25A     -0.477786    26A     -0.459417    27A     -0.454879
      28A     -0.443912    29A     -0.432283

  @DF-RHF Final Energy:  -310.20840904165453

   => Energetics <=

    Nuclear Repulsion Energy =            313.2697275454159467
    One-Electron Energy =               -1041.2785081295276086
    Two-Electron Energy =                 417.8003715424572988
    DFT Exchange-Correlation Energy =       0.0000000000000000
    Empirical Dispersion Energy =           0.0000000000000000
    PCM Polarization Energy =               0.0000000000000000
    EFP Energy =                            0.0000000000000000
    Total Energy =                       -310.2084090416544200
    Molecular point group: c1
  Basis Set: 6-31G*
  Basis Set:

  -Total Gradient:
     Atom            X                  Y                   Z
    ------   -----------------  -----------------  -----------------
       1       -0.000036412687    -0.000013363127    -0.000011729425
       2       -0.000047327230     0.000045043191    -0.000037864729
       3        0.000022194134    -0.000094577484     0.000043736880
       4        0.000186544868     0.002307725873    -0.002967238698
       5        0.000004367250    -0.000002583057     0.000012574403
       6        0.000017402428    -0.000011402737     0.000004127325
       7       -0.000252968082    -0.001618971754     0.002555123136
       8       -0.000032752814    -0.001503944582     0.001869506128
       9       -0.000009587031     0.000018394322     0.000021583259
      10        0.000132912838     0.000898516707    -0.001504876363
      11        0.000003239211    -0.000022329011    -0.000013782358
      12       -0.000011302570    -0.000019467632     0.000020483622
      13        0.000006392197     0.000007034520    -0.000003651879
      14       -0.000030929768     0.000009785728     0.000001682796
      15        0.000017701259     0.000012997459     0.000006204033
      16        0.000011814734    -0.000007941696     0.000001474724
      17        0.000021277537    -0.000003985358     0.000013715037
      18       -0.000012522878     0.000015228660    -0.000009644639
      19       -0.000006138520     0.000002117324    -0.000004941949
      20        0.000012217472    -0.000010310591     0.000007441545
      21        0.000003877656    -0.000007966753    -0.000003922848

  **** Optimization is complete! (in 6 steps) ****
    Final optimized geometry and variables:
    Molecular point group: c1

    Geometry (in Angstrom), charge = 0, multiplicity = 1:

    H           -3.893265534319     0.719961220471    -1.295067341897
    O           -3.354359720542     0.068514495070    -0.869435804425
    C           -2.108779380057     0.625810329976    -0.541007890163
    C           -1.271057505720    -0.442814496309     0.137426530151
    H           -1.599001572350     0.982842391260    -1.435190237707
    H           -2.232296756380     1.478648630786     0.125503513664
    C            0.117371944755     0.066796790624     0.576047307411
    H           -1.173973673096    -1.289167193595    -0.535978263251
    H           -1.827492418052    -0.812374876254     0.993176240456
    C            1.257101324881    -0.871067199609     0.166701929428
    H            0.295563256876     1.048431084236     0.142917509257
    H            0.136388003724     0.210588266331     1.653220546490
    C            2.644862426381    -0.449935571180     0.661806168464
    H            1.271950519025    -0.958509818788    -0.918544122805
    H            1.041861049387    -1.867495861239     0.547228847303
    C            3.166697748162     0.856271068693     0.059923004087
    H            3.348587146601    -1.245597471251     0.429741271581
    H            2.629254707440    -0.366740569116     1.746693385890
    H            3.177489476515     0.808730402336    -1.025807625877
    H            2.559749440784     1.708227100952     0.347958667322
    H            4.181578960354     1.054324714218     0.390805341853

  Mulliken Charges: (a.u.)
   Center  Symbol    Alpha    Beta     Spin     Total
       1     H     0.28110  0.28110  0.00000  0.43780
       2     O     4.37150  4.37150  0.00000 -0.74299
       3     C     2.99334  2.99334  0.00000  0.01333
       4     C     3.16079  3.16079  0.00000 -0.32157
       5     H     0.43274  0.43274  0.00000  0.13451
       6     H     0.43242  0.43242  0.00000  0.13516
       7     C     3.16466  3.16466  0.00000 -0.32933
       8     H     0.41229  0.41229  0.00000  0.17543
       9     H     0.41249  0.41249  0.00000  0.17501
      10     C     3.15379  3.15379  0.00000 -0.30758
      11     H     0.42155  0.42155  0.00000  0.15691
      12     H     0.41921  0.41921  0.00000  0.16158
      13     C     3.15319  3.15319  0.00000 -0.30639
      14     H     0.42351  0.42351  0.00000  0.15297
      15     H     0.42031  0.42031  0.00000  0.15938
      16     C     3.24134  3.24134  0.00000 -0.48268
      17     H     0.42061  0.42061  0.00000  0.15879
      18     H     0.42317  0.42317  0.00000  0.15365
      19     H     0.42237  0.42237  0.00000  0.15525
      20     H     0.42059  0.42059  0.00000  0.15882
      21     H     0.41902  0.41902  0.00000  0.16195

   Total alpha = 29.00000, Total beta = 29.00000, Total charge = -0.00000
