  ==> Input File <==

--------------------------------------------------------------------------
set {
	reference rhf
	basis cc-pvtz
}

set_num_threads( 4 )
memory 2 gb

molecule MOL {
0 1

H	 1.458037	 -1.984092	 -2.212038
O	 1.177619	 -1.801799	 -1.327804
C	 0.187103	 -0.915616	 -1.374481
C	 -0.318151	 -0.570512	 0.000144
O	 -0.217512	 -0.477161	 -2.395271
C	 -1.454884	 0.441630	 -0.000560
H	 -0.618391	 -1.499871	 0.473471
H	 0.530749	 -0.209179	 0.571727
C	 -2.822577	 -0.232186	 0.000063
H	 -1.359760	 1.084704	 -0.867077
H	 -1.359641	 1.085996	 0.864983
H	 -2.954352	 -0.858985	 -0.875745
H	 -3.615886	 0.505352	 0.000019
H	 -2.953878	 -0.858359	 0.876394

	symmetry c1
}
set optking {
	frozen_dihedral = ("
		7 4 6 10
	")
}

ee = optimize('scf')
oeprop('DIPOLE', 'QUADRUPOLE', 'MULLIKEN_CHARGES')
f=open( 'psi4out.xyz', 'w' )
f.write( "14  " )
f.write( str(ee) + "\n" )
f.write( MOL.save_string_xyz() )
f.close()
--------------------------------------------------------------------------

    Molecular point group: c1
  Charge       = 0
  Multiplicity = 1
  Basis Set: CC-PVTZ
  Basis Set:
  @DF-RHF Final Energy:  -305.99829540066315
    Total Energy =                       -305.9982954006632099
    Molecular point group: c1
  Basis Set: CC-PVTZ
  Basis Set:
  Basis Set: CC-PVTZ
  Basis Set:
  @DF-RHF Final Energy:  -305.99863987969729
    Total Energy =                       -305.9986398796971798
  Basis Set: CC-PVTZ
  Basis Set:
  Basis Set: CC-PVTZ
  Basis Set:
  @DF-RHF Final Energy:  -305.99861902028044
    Total Energy =                       -305.9986190202805574
  Basis Set: CC-PVTZ
  Basis Set:
  Basis Set: CC-PVTZ
  Basis Set:
  @DF-RHF Final Energy:  -305.99864830717269
    Total Energy =                       -305.9986483071728003
  Basis Set: CC-PVTZ
  Basis Set:
  Basis Set: CC-PVTZ
  Basis Set:
  @DF-RHF Final Energy:  -305.99869568608949
    Total Energy =                       -305.9986956860896044
  Basis Set: CC-PVTZ
  Basis Set:
  Charge       = 0
  Multiplicity = 1
  Basis Set: CC-PVTZ
  Basis Set:

    Orbital Energies (a.u.)
    -----------------------

    Doubly Occupied:

       1A    -20.604967     2A    -20.541889     3A    -11.374726
       4A    -11.240002     5A    -11.222948     6A    -11.210931
       7A     -1.478819     8A     -1.370254     9A     -1.082167
      10A     -0.978316    11A     -0.860862    12A     -0.790105
      13A     -0.705949    14A     -0.696055    15A     -0.661980
      16A     -0.613770    17A     -0.599338    18A     -0.566376
      19A     -0.560392    20A     -0.494743    21A     -0.491188
      22A     -0.486903    23A     -0.480907    24A     -0.448252

  @DF-RHF Final Energy:  -305.99869647979517

   => Energetics <=

    Nuclear Repulsion Energy =            243.6438680389713909
    One-Electron Energy =                -900.1614472747703530
    Two-Electron Energy =                 350.5188827560036202
    DFT Exchange-Correlation Energy =       0.0000000000000000
    Empirical Dispersion Energy =           0.0000000000000000
    PCM Polarization Energy =               0.0000000000000000
    EFP Energy =                            0.0000000000000000
    Total Energy =                       -305.9986964797953419
    Molecular point group: c1
  Basis Set: CC-PVTZ
  Basis Set:

  -Total Gradient:
     Atom            X                  Y                   Z
    ------   -----------------  -----------------  -----------------
       1       -0.000014567085     0.000019713241     0.000010225850
       2        0.000018686652    -0.000030289104     0.000040740114
       3       -0.000026827857    -0.000014597242    -0.000036282975
       4        0.000926004154     0.000996143383     0.003514169007
       5        0.000036187217     0.000037701850    -0.000031193619
       6        0.002107398259     0.002423290012     0.001461902807
       7       -0.001079988956    -0.001224365591    -0.003123896186
       8        0.000021428833     0.000023765754    -0.000009094173
       9       -0.000038976873     0.000013109078     0.000048559080
      10       -0.001942150879    -0.002234512258    -0.001854063578
      11       -0.000005372016    -0.000009629467    -0.000008284454
      12       -0.000001810211    -0.000002788703    -0.000002273112
      13       -0.000004399822     0.000004127026    -0.000000357446
      14        0.000004388586    -0.000001667981    -0.000010151317

  **** Optimization is complete! (in 6 steps) ****
    Final optimized geometry and variables:
    Molecular point group: c1

    Geometry (in Angstrom), charge = 0, multiplicity = 1:

    H            1.988471804479    -1.381669404462    -1.339278823830
    O            1.725963683336    -1.182022612150    -0.453305012084
    C            0.733117458021    -0.298419377117    -0.497729866668
    C            0.258911221507     0.069598982114     0.885714996737
    O            0.307815134097     0.116693801399    -1.520080824745
    C           -0.898843474906     1.068413012261     0.896508652881
    H           -0.020933190955    -0.867280725797     1.355986964636
    H            1.123805631752     0.439781037542     1.423165412251
    C           -2.266741890901     0.391201270008     0.858876353802
    H           -0.814492764488     1.712802596418     0.032192200400
    H           -0.825236291407     1.687368431420     1.782598559829
    H           -2.370694020752    -0.222973542894    -0.028253442428
    H           -3.061717787026     1.127292477304     0.845030773475
    H           -2.416581993353    -0.242631513441     1.726882612912

  Mulliken Charges: (a.u.)
   Center  Symbol    Alpha    Beta     Spin     Total
       1     H     0.38229  0.38229  0.00000  0.23541
       2     O     4.15994  4.15994  0.00000 -0.31989
       3     C     2.80337  2.80337  0.00000  0.39327
       4     C     3.11243  3.11243  0.00000 -0.22487
       5     O     4.19247  4.19247  0.00000 -0.38494
       6     C     3.08719  3.08719  0.00000 -0.17437
       7     H     0.43914  0.43914  0.00000  0.12173
       8     H     0.43033  0.43033  0.00000  0.13934
       9     C     3.14922  3.14922  0.00000 -0.29843
      10     H     0.44232  0.44232  0.00000  0.11536
      11     H     0.44698  0.44698  0.00000  0.10605
      12     H     0.44883  0.44883  0.00000  0.10234
      13     H     0.44790  0.44790  0.00000  0.10420
      14     H     0.45759  0.45759  0.00000  0.08481

   Total alpha = 24.00000, Total beta = 24.00000, Total charge =  0.00000
