                              Psi4 1.0.54 Driver

  ==> Input File <==

--------------------------------------------------------------------------
set {
	reference rhf
	basis cc-pvtz
}

set_num_threads( 4 )
memory 2 gb

molecule MOL {
0 1

H	 -3.268214	 -0.875720	 0.463107
C	 -2.806015	 0.000007	 0.024886
N	 -1.391133	 0.000016	 0.301321
H	 -3.029448	 0.000055	 -1.045738
H	 -3.268126	 0.875758	 0.463150
C	 -0.938667	 -1.257443	 0.855982
C	 -0.995209	 1.106908	 1.144864
H	 -1.422890	 -1.467933	 1.814142
H	 -1.202523	 -2.056798	 0.173709
C	 0.565436	 -1.245810	 1.054855
H	 -1.300334	 2.033622	 0.673493
H	 -1.483282	 1.057592	 2.122719
C	 0.508894	 1.118541	 1.343738
H	 0.870561	 -2.172524	 1.526227
H	 1.053509	 -1.196494	 0.077000
N	 0.961360	 -0.138918	 1.898398
H	 0.772750	 1.917896	 2.026011
H	 0.993117	 1.329031	 0.385577
C	 2.376242	 -0.138909	 2.174833
H	 2.661033	 -1.072013	 2.644700
H	 2.619417	 0.666041	 2.857096
H	 2.984729	 -0.014320	 1.274623

	symmetry c1
}
set optking {
	frozen_dihedral = ("
		6 3 2 4
	")
}

ee,wfn = optimize('scf', return_wfn=True)
oeprop( wfn, 'DIPOLE', 'QUADRUPOLE', 'MULLIKEN_CHARGES')
f=open( 'psi4out.xyz', 'w' )
f.write( "22  " )
f.write( str(ee) + "\n" )
f.write( MOL.save_string_xyz() )
f.close()
--------------------------------------------------------------------------

    Molecular point group: c1
  Charge       = 0
  Multiplicity = 1
  Basis Set: CC-PVTZ
  Basis Set:
  @DF-RHF Final Energy:  -344.34403847941064
    Total Energy =                       -344.3440384794110969
    Molecular point group: c1
  Basis Set: CC-PVTZ
  Basis Set:
  Basis Set: CC-PVTZ
  Basis Set:
  @DF-RHF Final Energy:  -344.34458700332880
    Total Energy =                       -344.3445870033290248
  Basis Set: CC-PVTZ
  Basis Set:
  Basis Set: CC-PVTZ
  Basis Set:
  @DF-RHF Final Energy:  -344.34471363520248
    Total Energy =                       -344.3447136352026519
  Basis Set: CC-PVTZ
  Basis Set:
  Charge       = 0
  Multiplicity = 1
  Basis Set: CC-PVTZ
  Basis Set:

    Orbital Energies (a.u.)
    -----------------------

    Doubly Occupied:

       1A    -15.537045     2A    -15.534710     3A    -11.237270
       4A    -11.237216     5A    -11.236297     6A    -11.236283
       7A    -11.233954     8A    -11.233875     9A     -1.255114
      10A     -1.203328    11A     -1.025310    12A     -0.991784
      13A     -0.912631    14A     -0.867363    15A     -0.836689
      16A     -0.754904    17A     -0.665896    18A     -0.635901
      19A     -0.631475    20A     -0.624640    21A     -0.620876
      22A     -0.580665    23A     -0.551368    24A     -0.550340
      25A     -0.542129    26A     -0.520032    27A     -0.498116
      28A     -0.487450    29A     -0.465407    30A     -0.456254
      31A     -0.350983    32A     -0.343546

  @DF-RHF Final Energy:  -344.34471543594537

   => Energetics <=

    Nuclear Repulsion Energy =            421.4232471187592068
    One-Electron Energy =               -1301.8182261964673216
    Two-Electron Energy =                 536.0502636417627400
    DFT Exchange-Correlation Energy =       0.0000000000000000
    Empirical Dispersion Energy =           0.0000000000000000
    PCM Polarization Energy =               0.0000000000000000
    EFP Energy =                            0.0000000000000000
    Total Energy =                       -344.3447154359453179
    Molecular point group: c1
  Basis Set: CC-PVTZ
  Basis Set:

  -Total Gradient:
     Atom            X                  Y                   Z
    ------   -----------------  -----------------  -----------------
       1       -0.000014373488    -0.000006591317     0.000002158674
       2       -0.000070705210    -0.002027585181     0.000383039343
       3        0.000172378977    -0.000107711176    -0.001726653091
       4       -0.000038454844     0.001715527021     0.000043706641
       5       -0.000014125113     0.000002997549    -0.000013705456
       6       -0.000185012527     0.000391521798     0.001266895573
       7        0.000093634786     0.000026926120     0.000051331253
       8       -0.000001610240     0.000023561055    -0.000031508376
       9       -0.000007173809     0.000024022612    -0.000003236523
      10        0.000025174872    -0.000005429161    -0.000009006893
      11       -0.000006602923    -0.000023641985    -0.000009098151
      12        0.000010880840    -0.000014450888    -0.000039256289
      13        0.000003317802     0.000018567291     0.000023813116
      14        0.000042915685    -0.000004809750     0.000020020758
      15       -0.000005679918    -0.000000946755     0.000010794017
      16       -0.000007816953    -0.000002102379     0.000022103082
      17        0.000052570009     0.000005664504     0.000022578888
      18       -0.000017149135    -0.000006862537     0.000014360177
      19       -0.000004543263    -0.000006963224    -0.000024727749
      20       -0.000008328401    -0.000003554270    -0.000000695444
      21       -0.000016883462     0.000000983446    -0.000003970083
      22       -0.000002413683     0.000000877228     0.000001056535

  **** Optimization is complete! (in 4 steps) ****
    Final optimized geometry and variables:
    Molecular point group: c1

    Geometry (in Angstrom), charge = 0, multiplicity = 1:

    H           -3.126139359806    -0.777563199111    -0.650436558073
    C           -2.621830594538     0.096484044001    -1.051194217235
    N           -1.198834255943     0.085277456035    -0.755105501663
    H           -2.799596421583     0.131076961513    -2.120679022878
    H           -3.102489337961     0.965965930107    -0.617400908977
    C           -0.734233292596    -1.182019454982    -0.234030817069
    C           -0.773290140059     1.179722801711     0.091195002334
    H           -1.192813537928    -1.409563447724     0.732652664548
    H           -1.015571295870    -1.970038479096    -0.922648382337
    C            0.774701398158    -1.178897867424    -0.076185350231
    H           -1.079988366346     2.114588719584    -0.361965744831
    H           -1.233033689109     1.125830468623     1.082390079809
    C            0.735971963957     1.180077702287     0.247868629831
    H            1.088820938888    -2.113917069023     0.372836105048
    H            1.235865896653    -1.116736548523    -1.066411728512
    N            1.198198752480    -0.086465538558     0.772317569015
    H            1.023582754554     1.969231657714     0.932759739447
    H            1.193351552664     1.400909082655    -0.721239282182
    C            2.619856563683    -0.095746092986     1.009826074502
    H            2.913600825117    -1.036785151492     1.458021803591
    H            2.884986907286     0.698245491005     1.696838447456
    H            3.204251817915     0.039774327620     0.095213861641

  Mulliken Charges: (a.u.)
   Center  Symbol    Alpha    Beta     Spin     Total
       1     H     0.46199  0.46199  0.00000  0.07603
       2     C     3.09219  3.09219  0.00000 -0.18437
       3     N     3.61610  3.61610  0.00000 -0.23221
       4     H     0.44990  0.44990  0.00000  0.10020
       5     H     0.46003  0.46003  0.00000  0.07993
       6     C     3.03612  3.03612  0.00000 -0.07224
       7     C     3.03570  3.03570  0.00000 -0.07140
       8     H     0.46804  0.46804  0.00000  0.06392
       9     H     0.45321  0.45321  0.00000  0.09357
      10     C     3.03732  3.03732  0.00000 -0.07464
      11     H     0.45342  0.45342  0.00000  0.09315
      12     H     0.46815  0.46815  0.00000  0.06371
      13     C     3.03711  3.03711  0.00000 -0.07421
      14     H     0.45410  0.45410  0.00000  0.09180
      15     H     0.46859  0.46859  0.00000  0.06283
      16     N     3.61285  3.61285  0.00000 -0.22570
      17     H     0.45408  0.45408  0.00000  0.09184
      18     H     0.46865  0.46865  0.00000  0.06270
      19     C     3.09832  3.09832  0.00000 -0.19664
      20     H     0.45200  0.45200  0.00000  0.09601
      21     H     0.45201  0.45201  0.00000  0.09599
      22     H     0.47013  0.47013  0.00000  0.05973

   Total alpha = 32.00000, Total beta = 32.00000, Total charge = -0.00000

*** Psi4 exiting successfully. Buy a developer a beer!
