  ==> Input File <==

--------------------------------------------------------------------------
set {
	reference rhf
	basis 6-31G*
}

set_num_threads( 4 )
memory 2 gb

molecule MOL {
0 1

H	 -3.424755	 0.746552	 1.808259
O	 -2.719857	 0.178268	 1.532439
C	 -2.306886	 0.532354	 0.237577
C	 -1.177863	 -0.397191	 -0.171080
H	 -3.134229	 0.445764	 -0.465497
H	 -1.965562	 1.566407	 0.213630
C	 0.198102	 0.111031	 0.262842
H	 -1.208843	 -0.518759	 -1.250427
H	 -1.368741	 -1.376554	 0.258909
C	 1.331804	 -0.827780	 -0.158768
H	 0.361943	 1.100838	 -0.156218
H	 0.217265	 0.229072	 1.345532
C	 2.723619	 -0.410569	 0.329459
H	 1.342964	 -0.912588	 -1.244120
H	 1.116806	 -1.824343	 0.220779
C	 3.243875	 0.895854	 -0.272975
H	 3.424222	 -1.207124	 0.091250
H	 2.714788	 -0.329854	 1.414619
H	 3.251977	 0.848779	 -1.358681
H	 2.637085	 1.747371	 0.016682
H	 4.259473	 1.094070	 0.055697

	symmetry c1
}
set optking {
	frozen_dihedral = ("
		2 3 4 8
	")
}

ee = optimize('scf')
oeprop('DIPOLE', 'QUADRUPOLE', 'MULLIKEN_CHARGES')
f=open( 'psi4out.xyz', 'w' )
f.write( "21  " )
f.write( str(ee) + "\n" )
f.write( MOL.save_string_xyz() )
f.close()
--------------------------------------------------------------------------

    Molecular point group: c1
  Charge       = 0
  Multiplicity = 1
  Basis Set: 6-31G*
  Basis Set:
  @DF-RHF Final Energy:  -310.21035056639346
    Total Energy =                       -310.2103505663933447
    Molecular point group: c1
  Basis Set: 6-31G*
  Basis Set:
  Basis Set: 6-31G*
  Basis Set:
  @DF-RHF Final Energy:  -310.21072017451888
    Total Energy =                       -310.2107201745191674
  Basis Set: 6-31G*
  Basis Set:
  Basis Set: 6-31G*
  Basis Set:
  @DF-RHF Final Energy:  -310.21080311040987
    Total Energy =                       -310.2108031104098700
  Basis Set: 6-31G*
  Basis Set:
  Basis Set: 6-31G*
  Basis Set:
  @DF-RHF Final Energy:  -310.21079505621509
    Total Energy =                       -310.2107950562151473
  Basis Set: 6-31G*
  Basis Set:
  Basis Set: 6-31G*
  Basis Set:
  @DF-RHF Final Energy:  -310.21080583535274
    Total Energy =                       -310.2108058353528008
  Basis Set: 6-31G*
  Basis Set:
  Basis Set: 6-31G*
  Basis Set:
  @DF-RHF Final Energy:  -310.21081215570604
    Total Energy =                       -310.2108121557060940
  Basis Set: 6-31G*
  Basis Set:
  Charge       = 0
  Multiplicity = 1
  Basis Set: 6-31G*
  Basis Set:

    Orbital Energies (a.u.)
    -----------------------

    Doubly Occupied:

       1A    -20.552176     2A    -11.267498     3A    -11.212311
       4A    -11.210973     5A    -11.210272     6A    -11.209355
       7A    -11.206009     8A     -1.358392     9A     -1.082220
      10A     -1.030224    11A     -0.953292    12A     -0.875535
      13A     -0.804211    14A     -0.775108    15A     -0.704044
      16A     -0.637234    17A     -0.629719    18A     -0.601860
      19A     -0.583832    20A     -0.568200    21A     -0.533913
      22A     -0.524027    23A     -0.505720    24A     -0.485065
      25A     -0.480684    26A     -0.458838    27A     -0.453362
      28A     -0.446649    29A     -0.424122

  @DF-RHF Final Energy:  -310.21081241112205

   => Energetics <=

    Nuclear Repulsion Energy =            315.3413833256429939
    One-Electron Energy =               -1045.5347043492074590
    Two-Electron Energy =                 419.9825086124424729
    DFT Exchange-Correlation Energy =       0.0000000000000000
    Empirical Dispersion Energy =           0.0000000000000000
    PCM Polarization Energy =               0.0000000000000000
    EFP Energy =                            0.0000000000000000
    Total Energy =                       -310.2108124111220491
    Molecular point group: c1
  Basis Set: 6-31G*
  Basis Set:

  -Total Gradient:
     Atom            X                  Y                   Z
    ------   -----------------  -----------------  -----------------
       1        0.000019756097     0.000001394704    -0.000051005389
       2       -0.002366409296    -0.002456585939    -0.001390819695
       3        0.002348431845     0.002236541397     0.001975338368
       4        0.002691848708     0.004087906037    -0.001047697133
       5       -0.000007760921    -0.000008360302     0.000018766020
       6        0.000013584842     0.000001666212    -0.000041863598
       7        0.000044934757    -0.000026989200     0.000037978557
       8       -0.002738156132    -0.003874343023     0.000512174669
       9       -0.000002501303     0.000035926178     0.000001026166
      10        0.000019626026     0.000009186548    -0.000001550675
      11       -0.000004595081    -0.000006320430    -0.000003342536
      12       -0.000001451528     0.000000529692     0.000006657914
      13       -0.000010089650    -0.000004549543     0.000000407409
      14        0.000006665889    -0.000002267652    -0.000011440333
      15       -0.000002394280     0.000003698493     0.000004749766
      16        0.000000465874     0.000005682322    -0.000003264103
      17       -0.000013663039    -0.000006232030    -0.000004409380
      18        0.000002242856    -0.000002263111     0.000002128630
      19        0.000007725628     0.000001537084    -0.000003860067
      20       -0.000006378618    -0.000000848717    -0.000003656429
      21       -0.000001882677     0.000004691279     0.000003681836

  **** Optimization is complete! (in 7 steps) ****
    Final optimized geometry and variables:
    Molecular point group: c1

    Geometry (in Angstrom), charge = 0, multiplicity = 1:

    H           -3.480931148919     0.686186619499     1.610942716501
    O           -2.821165184703     0.097952296744     1.272136724747
    C           -2.459777891020     0.492067587110    -0.029140233290
    C           -1.304819419323    -0.388671563054    -0.490959639071
    H           -3.309165878218     0.371372735739    -0.698733952896
    H           -2.174141403594     1.542408385404    -0.051129202039
    C            0.069144726838     0.105618438758    -0.039079366783
    H           -1.346057648612    -0.503492480847    -1.571853038886
    H           -1.487633956854    -1.380506763197    -0.086507662838
    C            1.199509522314    -0.851237093574    -0.425250675809
    H            0.250315758163     1.088447049571    -0.467708126641
    H            0.055966099950     0.234478320872     1.040741825871
    C            2.587850649273    -0.437722737090     0.076249631286
    H            1.227777554496    -0.958879278400    -1.508890331261
    H            0.969333320679    -1.837717529460    -0.028589910877
    C            3.132361218095     0.848808101368    -0.547289392098
    H            3.283913199793    -1.246782719195    -0.131526376769
    H            2.561108735055    -0.331507337165     1.158749263217
    H            3.160213885548     0.775660646206    -1.631333321839
    H            2.528726259420     1.712623623514    -0.289361669274
    H            4.143697668140     1.045246530316    -0.204505117232

  Mulliken Charges: (a.u.)
   Center  Symbol    Alpha    Beta     Spin     Total
       1     H     0.28130  0.28130  0.00000  0.43740
       2     O     4.37046  4.37046  0.00000 -0.74093
       3     C     2.99738  2.99738  0.00000  0.00523
       4     C     3.16173  3.16173  0.00000 -0.32346
       5     H     0.42950  0.42950  0.00000  0.14100
       6     H     0.43196  0.43196  0.00000  0.13608
       7     C     3.15756  3.15756  0.00000 -0.31511
       8     H     0.42277  0.42277  0.00000  0.15445
       9     H     0.40956  0.40956  0.00000  0.18087
      10     C     3.15311  3.15311  0.00000 -0.30622
      11     H     0.42431  0.42431  0.00000  0.15138
      12     H     0.41380  0.41380  0.00000  0.17240
      13     C     3.15224  3.15224  0.00000 -0.30447
      14     H     0.42567  0.42567  0.00000  0.14866
      15     H     0.42065  0.42065  0.00000  0.15869
      16     C     3.24098  3.24098  0.00000 -0.48196
      17     H     0.42149  0.42149  0.00000  0.15702
      18     H     0.42253  0.42253  0.00000  0.15494
      19     H     0.42290  0.42290  0.00000  0.15420
      20     H     0.42043  0.42043  0.00000  0.15915
      21     H     0.41966  0.41966  0.00000  0.16067

   Total alpha = 29.00000, Total beta = 29.00000, Total charge =  0.00000
