  ==> Input File <==

--------------------------------------------------------------------------
set {
	reference rhf
	basis 6-31G*
}

set_num_threads( 1 )
memory 2 gb

molecule MOL {
0 1

H	 0.685167	 0.284690	 -4.192474
O	 1.585581	 0.006900	 -4.277084
C	 2.280794	 0.285435	 -3.088324
C	 1.905218	 -0.644901	 -1.940220
H	 3.330073	 0.167059	 -3.326388
H	 2.131404	 1.323574	 -2.793824
C	 0.447019	 -0.522257	 -1.491350
H	 2.108418	 -1.668217	 -2.245017
H	 2.561914	 -0.427964	 -1.099354
C	 0.115918	 -1.429151	 -0.302766
H	 -0.205063	 -0.765101	 -2.325725
H	 0.237434	 0.512597	 -1.220255
C	 -1.309753	 -1.282496	 0.241564
H	 0.288510	 -2.466227	 -0.584780
H	 0.815535	 -1.213953	 0.502173
C	 -2.037799	 -0.007733	 -0.193645
H	 -1.890610	 -2.142323	 -0.085726
H	 -1.285946	 -1.330893	 1.329189
C	 -3.489788	 0.042957	 0.286558
H	 -2.017067	 0.064384	 -1.280144
H	 -1.513726	 0.868678	 0.179924
C	 -4.216917	 1.317354	 -0.141063
H	 -4.025645	 -0.823308	 -0.095450
H	 -3.513059	 -0.038752	 1.371301
H	 -4.239342	 1.411634	 -1.223113
H	 -5.243387	 1.322503	 0.212445
H	 -3.726170	 2.201406	 0.256408

	symmetry c1
}
set optking {
	frozen_dihedral = ("
		14 10 7 4,
		10 7 4 8,
		8 4 3 2,
		10 13 16 20,
		20 16 19 22,
		4 3 2 1
	")
}

ee = energy('scf')
oeprop('DIPOLE', 'QUADRUPOLE', 'MULLIKEN_CHARGES')
f=open( 'psi4out.xyz', 'w' )
f.write( "27  " )
f.write( str(ee) + "\n" )
f.write( MOL.save_string_xyz() )
f.close()
--------------------------------------------------------------------------

    Molecular point group: c1

    Geometry (in Angstrom), charge = 0, multiplicity = 1:

       Center              X                  Y                   Z               Mass
    ------------   -----------------  -----------------  -----------------  -----------------
           H          1.191755818124     0.511534924594    -2.926769575679     1.007825032070
           O          2.092169818124     0.233744924594    -3.011379575679    15.994914619560
           C          2.787382818124     0.512279924594    -1.822619575679    12.000000000000
           C          2.411806818124    -0.418056075406    -0.674515575679    12.000000000000
           H          3.836661818124     0.393903924594    -2.060683575679     1.007825032070
           H          2.637992818124     1.550418924594    -1.528119575679     1.007825032070
           C          0.953607818124    -0.295412075406    -0.225645575679    12.000000000000
           H          2.615006818124    -1.441372075406    -0.979312575679     1.007825032070
           H          3.068502818124    -0.201119075406     0.166350424321     1.007825032070
           C          0.622506818124    -1.202306075406     0.962938424321    12.000000000000
           H          0.301525818124    -0.538256075406    -1.060020575679     1.007825032070
           H          0.744022818124     0.739441924594     0.045449424321     1.007825032070
           C         -0.803164181876    -1.055651075406     1.507268424321    12.000000000000
           H          0.795098818124    -2.239382075406     0.680924424321     1.007825032070
           H          1.322123818124    -0.987108075406     1.767877424321     1.007825032070
           C         -1.531210181876     0.219111924594     1.072059424321    12.000000000000
           H         -1.384021181876    -1.915478075406     1.179978424321     1.007825032070
           H         -0.779357181876    -1.104048075406     2.594893424321     1.007825032070
           C         -2.983199181876     0.269801924594     1.552262424321    12.000000000000
           H         -1.510478181876     0.291228924594    -0.014439575679     1.007825032070
           H         -1.007137181876     1.095522924594     1.445628424321     1.007825032070
           C         -3.710328181876     1.544198924594     1.124641424321    12.000000000000
           H         -3.519056181876    -0.596463075406     1.170254424321     1.007825032070
           H         -3.006470181876     0.188092924594     2.637005424321     1.007825032070
           H         -3.732753181876     1.638478924594     0.042591424321     1.007825032070
           H         -4.736798181876     1.549347924594     1.478149424321     1.007825032070
           H         -3.219581181876     2.428250924594     1.522112424321     1.007825032070

  Charge       = 0
  Multiplicity = 1
  Basis Set: 6-31G*
  Basis Set:

    Orbital Energies (a.u.)
    -----------------------

    Doubly Occupied:

       1A    -20.552074     2A    -11.266715     3A    -11.219145
       4A    -11.216228     5A    -11.216116     6A    -11.215071
       7A    -11.214462     8A    -11.214388     9A    -11.210131
      10A     -1.358809    11A     -1.097181    12A     -1.060123
      13A     -1.011474    14A     -0.946415    15A     -0.892235
      16A     -0.819701    17A     -0.810005    18A     -0.766244
      19A     -0.693796    20A     -0.658253    21A     -0.634145
      22A     -0.612170    23A     -0.606467    24A     -0.585003
      25A     -0.575785    26A     -0.552419    27A     -0.545952
      28A     -0.528178    29A     -0.505867    30A     -0.498829
      31A     -0.489560    32A     -0.475722    33A     -0.463687
      34A     -0.455250    35A     -0.447583    36A     -0.442599
      37A     -0.423091

  @DF-RHF Final Energy:  -388.27308605464560

   => Energetics <=

    Nuclear Repulsion Energy =            464.7347360806512029
    One-Electron Energy =               -1447.4540059085150006
    Two-Electron Energy =                 594.4461837732184222
    DFT Exchange-Correlation Energy =       0.0000000000000000
    Empirical Dispersion Energy =           0.0000000000000000
    PCM Polarization Energy =               0.0000000000000000
    EFP Energy =                            0.0000000000000000
    Total Energy =                       -388.2730860546454323

  Mulliken Charges: (a.u.)
   Center  Symbol    Alpha    Beta     Spin     Total
       1     H     0.28000  0.28000  0.00000  0.44001
       2     O     4.37102  4.37102  0.00000 -0.74205
       3     C     2.99734  2.99734  0.00000  0.00531
       4     C     3.15948  3.15948  0.00000 -0.31895
       5     H     0.41447  0.41447  0.00000  0.17106
       6     H     0.43221  0.43221  0.00000  0.13559
       7     C     3.16814  3.16814  0.00000 -0.33628
       8     H     0.41549  0.41549  0.00000  0.16901
       9     H     0.42453  0.42453  0.00000  0.15093
      10     C     3.15293  3.15293  0.00000 -0.30585
      11     H     0.42428  0.42428  0.00000  0.15144
      12     H     0.42097  0.42097  0.00000  0.15806
      13     C     3.15480  3.15480  0.00000 -0.30960
      14     H     0.41859  0.41859  0.00000  0.16282
      15     H     0.42208  0.42208  0.00000  0.15584
      16     C     3.15637  3.15637  0.00000 -0.31273
      17     H     0.42185  0.42185  0.00000  0.15631
      18     H     0.42018  0.42018  0.00000  0.15964
      19     C     3.15002  3.15002  0.00000 -0.30005
      20     H     0.42283  0.42283  0.00000  0.15435
      21     H     0.42358  0.42358  0.00000  0.15284
      22     C     3.23920  3.23920  0.00000 -0.47841
      23     H     0.42290  0.42290  0.00000  0.15420
      24     H     0.42309  0.42309  0.00000  0.15382
      25     H     0.42258  0.42258  0.00000  0.15485
      26     H     0.41887  0.41887  0.00000  0.16227
      27     H     0.42221  0.42221  0.00000  0.15557

   Total alpha = 37.00000, Total beta = 37.00000, Total charge = -0.00000
