  ==> Input File <==

--------------------------------------------------------------------------
set {
	reference rhf
	basis 6-31G*
}

set_num_threads( 1 )
memory 2 gb

molecule MOL {
0 1

H	 -1.558725	 -1.121326	 -3.223932
C	 -2.268226	 -0.950147	 -2.404829
C	 -1.942723	 -1.667382	 -1.119437
O	 -3.209463	 -0.243578	 -2.567874
C	 -0.504852	 -1.408259	 -0.648653
H	 -2.667112	 -1.371290	 -0.369571
H	 -2.071885	 -2.732804	 -1.306116
C	 -0.252658	 0.041456	 -0.226725
H	 -0.291997	 -2.069204	 0.186289
H	 0.189934	 -1.686599	 -1.439575
C	 1.180775	 0.282413	 0.250794
H	 -0.949084	 0.307770	 0.565686
H	 -0.471286	 0.710742	 -1.056664
C	 2.148627	 -0.814315	 -0.201312
H	 1.516199	 1.249228	 -0.115937
H	 1.192670	 0.346017	 1.338083
C	 3.580890	 -0.659131	 0.322722
H	 2.166869	 -0.852443	 -1.289387
H	 1.762857	 -1.776509	 0.128956
C	 4.324889	 0.564933	 -0.213704
H	 4.142010	 -1.551473	 0.056605
H	 3.564836	 -0.624694	 1.410140
H	 4.342616	 0.565491	 -1.300421
H	 3.866655	 1.493402	 0.110242
H	 5.353900	 0.572371	 0.132816

	symmetry c1
}
set optking {
	frozen_dihedral = ("
		6 3 5 8,
		6 3 2 4,
		3 5 8 12,
		8 11 14 18,
		20 17 14 18
	")
}

ee = energy('scf')
oeprop('DIPOLE', 'QUADRUPOLE', 'MULLIKEN_CHARGES')
f=open( 'psi4out.xyz', 'w' )
f.write( "25  " )
f.write( str(ee) + "\n" )
f.write( MOL.save_string_xyz() )
f.close()
--------------------------------------------------------------------------

    Molecular point group: c1

    Geometry (in Angstrom), charge = 0, multiplicity = 1:

       Center              X                  Y                   Z               Mass
    ------------   -----------------  -----------------  -----------------  -----------------
           H         -1.903020875124    -0.591906007256    -2.457559432113     1.007825032070
           C         -2.612521875124    -0.420727007256    -1.638456432113    12.000000000000
           C         -2.287018875124    -1.137962007256    -0.353064432113    12.000000000000
           O         -3.553758875124     0.285841992744    -1.801501432113    15.994914619560
           C         -0.849147875124    -0.878839007256     0.117719567887    12.000000000000
           H         -3.011407875124    -0.841870007256     0.396801567887     1.007825032070
           H         -2.416180875124    -2.203384007256    -0.539743432113     1.007825032070
           C         -0.596953875124     0.570875992744     0.539647567887    12.000000000000
           H         -0.636292875124    -1.539784007256     0.952661567887     1.007825032070
           H         -0.154361875124    -1.157179007256    -0.673202432113     1.007825032070
           C          0.836479124876     0.811832992744     1.017166567887    12.000000000000
           H         -1.293379875124     0.837189992744     1.332058567887     1.007825032070
           H         -0.815581875124     1.240161992744    -0.290291432113     1.007825032070
           C          1.804331124876    -0.284895007256     0.565060567887    12.000000000000
           H          1.171903124876     1.778647992744     0.650435567887     1.007825032070
           H          0.848374124876     0.875436992744     2.104455567887     1.007825032070
           C          3.236594124876    -0.129711007256     1.089094567887    12.000000000000
           H          1.822573124876    -0.323023007256    -0.523014432113     1.007825032070
           H          1.418561124876    -1.247089007256     0.895328567887     1.007825032070
           C          3.980593124876     1.094352992744     0.552668567887    12.000000000000
           H          3.797714124876    -1.022053007256     0.822977567887     1.007825032070
           H          3.220540124876    -0.095274007256     2.176512567887     1.007825032070
           H          3.998320124876     1.094910992744    -0.534048432113     1.007825032070
           H          3.522359124876     2.022821992744     0.876614567887     1.007825032070
           H          5.009604124876     1.101790992744     0.899188567887     1.007825032070

  Charge       = 0
  Multiplicity = 1
  Basis Set: 6-31G*
  Basis Set:

    Orbital Energies (a.u.)
    -----------------------

    Doubly Occupied:

       1A    -20.561336     2A    -11.325544     3A    -11.233650
       4A    -11.233056     5A    -11.223004     6A    -11.219067
       7A    -11.218804     8A    -11.218086     9A    -11.211118
      10A     -1.401359    11A     -1.108281    12A     -1.066726
      13A     -1.013287    14A     -0.937172    15A     -0.888149
      16A     -0.824816    17A     -0.795021    18A     -0.762336
      19A     -0.665686    20A     -0.658077    21A     -0.634726
      22A     -0.629612    23A     -0.607081    24A     -0.588013
      25A     -0.577640    26A     -0.553188    27A     -0.540966
      28A     -0.525365    29A     -0.517597    30A     -0.501158
      31A     -0.484516    32A     -0.475591    33A     -0.454343
      34A     -0.452727    35A     -0.446732    36A     -0.408119

  @DF-RHF Final Energy:  -387.10916362322945

   => Energetics <=

    Nuclear Repulsion Energy =            447.9773615664888098
    One-Electron Energy =               -1412.2491745835502570
    Two-Electron Energy =                 577.1626493938268823
    DFT Exchange-Correlation Energy =       0.0000000000000000
    Empirical Dispersion Energy =           0.0000000000000000
    PCM Polarization Energy =               0.0000000000000000
    EFP Energy =                            0.0000000000000000
    Total Energy =                       -387.1091636232346218

  Mulliken Charges: (a.u.)
   Center  Symbol    Alpha    Beta     Spin     Total
       1     H     0.43308  0.43308  0.00000  0.13383
       2     C     2.83086  2.83086  0.00000  0.33827
       3     C     3.20518  3.20518  0.00000 -0.41037
       4     O     4.23805  4.23805  0.00000 -0.47611
       5     C     3.17606  3.17606  0.00000 -0.35213
       6     H     0.40040  0.40040  0.00000  0.19920
       7     H     0.40731  0.40731  0.00000  0.18537
       8     C     3.15645  3.15645  0.00000 -0.31291
       9     H     0.41165  0.41165  0.00000  0.17671
      10     H     0.41509  0.41509  0.00000  0.16982
      11     C     3.15674  3.15674  0.00000 -0.31349
      12     H     0.41524  0.41524  0.00000  0.16951
      13     H     0.41669  0.41669  0.00000  0.16663
      14     C     3.16179  3.16179  0.00000 -0.32359
      15     H     0.41591  0.41591  0.00000  0.16818
      16     H     0.42050  0.42050  0.00000  0.15900
      17     C     3.14983  3.14983  0.00000 -0.29966
      18     H     0.42382  0.42382  0.00000  0.15236
      19     H     0.41882  0.41882  0.00000  0.16236
      20     C     3.24160  3.24160  0.00000 -0.48320
      21     H     0.42121  0.42121  0.00000  0.15758
      22     H     0.42306  0.42306  0.00000  0.15387
      23     H     0.42237  0.42237  0.00000  0.15527
      24     H     0.41963  0.41963  0.00000  0.16074
      25     H     0.41864  0.41864  0.00000  0.16273

   Total alpha = 36.00000, Total beta = 36.00000, Total charge =  0.00000
