  ==> Input File <==

--------------------------------------------------------------------------
set {
	reference rhf
	basis 6-31G*
}

set_num_threads( 1 )
memory 2 gb

molecule MOL {
0 1

H	 -2.698709	 -0.000305	 0.034435
C	 -1.693833	 0.000034	 0.434417
O	 -0.828952	 -0.000968	 -0.659236
H	 -1.574200	 0.882896	 1.055746
H	 -1.574147	 -0.881698	 1.057355
C	 -0.895823	 1.069409	 -1.572650
C	 -2.237817	 1.135994	 -2.298966
C	 -0.511955	 2.404946	 -0.938657
H	 -0.135613	 0.818057	 -2.302673
H	 -2.501545	 0.160110	 -2.692215
H	 -2.176202	 1.832438	 -3.129270
H	 -3.040130	 1.472597	 -1.650000
H	 0.418441	 2.307201	 -0.389780
H	 -0.374773	 3.156168	 -1.710221
H	 -1.274430	 2.771432	 -0.258833

	symmetry c1
}
set optking {
	frozen_dihedral = ("
		9 6 3 2
	")
}

ee = energy('scf')
oeprop('DIPOLE', 'QUADRUPOLE', 'MULLIKEN_CHARGES')
f=open( 'psi4out.xyz', 'w' )
f.write( "15  " )
f.write( str(ee) + "\n" )
f.write( MOL.save_string_xyz() )
f.close()
--------------------------------------------------------------------------

    Molecular point group: c1

    Geometry (in Angstrom), charge = 0, multiplicity = 1:

       Center              X                  Y                   Z               Mass
    ------------   -----------------  -----------------  -----------------  -----------------
           H         -1.451559664581    -0.917316845519     1.021544003734     1.007825032070
           C         -0.446683664581    -0.916977845519     1.421526003734    12.000000000000
           O          0.418197335419    -0.917979845519     0.327873003734    15.994914619560
           H         -0.327050664581    -0.034115845519     2.042855003734     1.007825032070
           H         -0.326997664581    -1.798709845519     2.044464003734     1.007825032070
           C          0.351326335419     0.152397154481    -0.585540996266    12.000000000000
           C         -0.990667664581     0.218982154481    -1.311856996266    12.000000000000
           C          0.735194335419     1.487934154481     0.048452003734    12.000000000000
           H          1.111536335419    -0.098954845519    -1.315563996266     1.007825032070
           H         -1.254395664581    -0.756901845519    -1.705105996266     1.007825032070
           H         -0.929052664581     0.915426154481    -2.142160996266     1.007825032070
           H         -1.792980664581     0.555585154481    -0.662890996266     1.007825032070
           H          1.665590335419     1.390189154481     0.597329003734     1.007825032070
           H          0.872376335419     2.239156154481    -0.723111996266     1.007825032070
           H         -0.027280664581     1.854420154481     0.728276003734     1.007825032070

  Charge       = 0
  Multiplicity = 1
  Basis Set: 6-31G*
  Basis Set:

    Orbital Energies (a.u.)
    -----------------------

    Doubly Occupied:

       1A    -20.546438     2A    -11.275232     3A    -11.261245
       4A    -11.210762     5A    -11.210654     6A     -1.369778
       7A     -1.050293     8A     -0.939908     9A     -0.931302
      10A     -0.781319    11A     -0.673372    12A     -0.641655
      13A     -0.633123    14A     -0.576457    15A     -0.565875
      16A     -0.550523    17A     -0.533542    18A     -0.500148
      19A     -0.496355    20A     -0.440783    21A     -0.404790

  @DF-RHF Final Energy:  -232.13524742832016

   => Energetics <=

    Nuclear Repulsion Energy =            198.9132186011168528
    One-Electron Energy =                -708.9097654289205366
    Two-Electron Energy =                 277.8612993994838689
    DFT Exchange-Correlation Energy =       0.0000000000000000
    Empirical Dispersion Energy =           0.0000000000000000
    PCM Polarization Energy =               0.0000000000000000
    EFP Energy =                            0.0000000000000000
    Total Energy =                       -232.1352474283198148

  Mulliken Charges: (a.u.)
   Center  Symbol    Alpha    Beta     Spin     Total
       1     H     0.42951  0.42951  0.00000  0.14097
       2     C     3.08144  3.08144  0.00000 -0.16289
       3     O     4.31322  4.31322  0.00000 -0.62644
       4     H     0.42969  0.42969  0.00000  0.14062
       5     H     0.41214  0.41214  0.00000  0.17571
       6     C     2.90844  2.90844  0.00000  0.18312
       7     C     3.25468  3.25468  0.00000 -0.50937
       8     C     3.25342  3.25342  0.00000 -0.50684
       9     H     0.41454  0.41454  0.00000  0.17092
      10     H     0.41122  0.41122  0.00000  0.17757
      11     H     0.41887  0.41887  0.00000  0.16226
      12     H     0.42099  0.42099  0.00000  0.15803
      13     H     0.41120  0.41120  0.00000  0.17760
      14     H     0.41932  0.41932  0.00000  0.16135
      15     H     0.42131  0.42131  0.00000  0.15739

   Total alpha = 21.00000, Total beta = 21.00000, Total charge =  0.00000
