  ==> Input File <==

--------------------------------------------------------------------------
set {
	reference rhf
	basis cc-pvtz
}

set_num_threads( 4 )
memory 2 gb

molecule MOL {
0 1

H	 1.854676	 -1.496068	 -0.200966
O	 1.675515	 -0.612943	 -0.465627
C	 1.135873	 0.113391	 0.608264
C	 0.027642	 1.012027	 0.090274
H	 1.902972	 0.727968	 1.072615
H	 0.756163	 -0.561896	 1.370018
C	 -1.138737	 0.285728	 -0.581921
H	 0.464661	 1.708096	 -0.618252
H	 -0.340737	 1.603071	 0.925246
C	 -1.933983	 -0.631436	 0.343653
H	 -0.763151	 -0.285569	 -1.422081
H	 -1.808359	 1.035291	 -0.992333
H	 -2.789188	 -1.049673	 -0.174718
H	 -1.335629	 -1.461368	 0.700418
H	 -2.305435	 -0.092167	 1.209725

	symmetry c1
}
set optking {
	frozen_dihedral = ("
		1 2 3 4
	")
}

ee = optimize('scf')
oeprop('DIPOLE', 'QUADRUPOLE', 'MULLIKEN_CHARGES')
f=open( 'psi4out.xyz', 'w' )
f.write( "15  " )
f.write( str(ee) + "\n" )
f.write( MOL.save_string_xyz() )
f.close()
--------------------------------------------------------------------------

    Molecular point group: c1
  Charge       = 0
  Multiplicity = 1
  Basis Set: CC-PVTZ
  Basis Set:
  @DF-RHF Final Energy:  -232.23625651050554
    Total Energy =                       -232.2362565105054841
    Molecular point group: c1
  Basis Set: CC-PVTZ
  Basis Set:
  Basis Set: CC-PVTZ
  Basis Set:
  @DF-RHF Final Energy:  -232.23636748956056
    Total Energy =                       -232.2363674895606209
  Basis Set: CC-PVTZ
  Basis Set:
  Basis Set: CC-PVTZ
  Basis Set:
  @DF-RHF Final Energy:  -232.23640925081517
    Total Energy =                       -232.2364092508150861
  Basis Set: CC-PVTZ
  Basis Set:
  Basis Set: CC-PVTZ
  Basis Set:
  @DF-RHF Final Energy:  -232.23640682948482
    Total Energy =                       -232.2364068294848494
  Basis Set: CC-PVTZ
  Basis Set:
  Charge       = 0
  Multiplicity = 1
  Basis Set: CC-PVTZ
  Basis Set:

    Orbital Energies (a.u.)
    -----------------------

    Doubly Occupied:

       1A    -20.545749     2A    -11.265709     3A    -11.210876
       4A    -11.209485     5A    -11.206594     6A     -1.363234
       7A     -1.066670     8A     -0.973332     9A     -0.871899
      10A     -0.777418    11A     -0.707918    12A     -0.648487
      13A     -0.609349    14A     -0.581195    15A     -0.564031
      16A     -0.536737    17A     -0.509038    18A     -0.481205
      19A     -0.469997    20A     -0.455257    21A     -0.430821

  @DF-RHF Final Energy:  -232.23641257156663

   => Energetics <=

    Nuclear Repulsion Energy =            191.5553076951239859
    One-Electron Energy =                -694.6134345767452487
    Two-Electron Energy =                 270.8217143100545172
    DFT Exchange-Correlation Energy =       0.0000000000000000
    Empirical Dispersion Energy =           0.0000000000000000
    PCM Polarization Energy =               0.0000000000000000
    EFP Energy =                            0.0000000000000000
    Total Energy =                       -232.2364125715667456
    Molecular point group: c1
  Basis Set: CC-PVTZ
  Basis Set:

  -Total Gradient:
     Atom            X                  Y                   Z
    ------   -----------------  -----------------  -----------------
       1       -0.001229130070    -0.000381721518    -0.000433711537
       2        0.001283482514     0.000255267836     0.000602276137
       3        0.000489953735     0.000757054536    -0.000269357038
       4       -0.000522409678    -0.000632170440     0.000091532748
       5       -0.000009224619     0.000014519583     0.000010947201
       6       -0.000005585943    -0.000011856412     0.000001914742
       7       -0.000006147213     0.000002815112     0.000001838479
       8       -0.000008608894     0.000002222514    -0.000002857056
       9        0.000007654227    -0.000001054293     0.000005501588
      10       -0.000008722718     0.000007321943     0.000002045168
      11        0.000002614468    -0.000002185322    -0.000006840525
      12        0.000001132866    -0.000008592771     0.000002292694
      13       -0.000003256541     0.000001202414    -0.000000570533
      14        0.000005302425     0.000002859071    -0.000003773568
      15        0.000002945443    -0.000005682253    -0.000001238501

  **** Optimization is complete! (in 5 steps) ****
    Final optimized geometry and variables:
    Molecular point group: c1

    Geometry (in Angstrom), charge = 0, multiplicity = 1:

    H            1.927508984434    -1.465138679870    -0.239231480678
    O            1.734120875854    -0.578580972444    -0.475629077670
    C            1.139131181605     0.103062065746     0.601486030852
    C            0.023040248868     1.000513712258     0.094678574540
    H            1.887852034891     0.708855773122     1.102940465633
    H            0.756410142018    -0.602075213880     1.332233896228
    C           -1.142697470734     0.274128696016    -0.577030906644
    H            0.455733211122     1.701418428109    -0.612062842547
    H           -0.343228054593     1.588655309874     0.933002566400
    C           -1.960678120621    -0.615146155138     0.356404068257
    H           -0.762491656447    -0.316078729258    -1.402397426570
    H           -1.800504008494     1.020545960248    -1.011058872796
    H           -2.808132961363    -1.043016186543    -0.166714340457
    H           -1.376119624401    -1.439171356693     0.749278504406
    H           -2.345199403773    -0.051146670797     1.200441424158

  Mulliken Charges: (a.u.)
   Center  Symbol    Alpha    Beta     Spin     Total
       1     H     0.39225  0.39225  0.00000  0.21551
       2     O     4.20509  4.20509  0.00000 -0.41018
       3     C     2.97840  2.97840  0.00000  0.04320
       4     C     3.09029  3.09029  0.00000 -0.18059
       5     H     0.45873  0.45873  0.00000  0.08254
       6     H     0.47112  0.47112  0.00000  0.05776
       7     C     3.09180  3.09180  0.00000 -0.18359
       8     H     0.44784  0.44784  0.00000  0.10431
       9     H     0.45479  0.45479  0.00000  0.09042
      10     C     3.15370  3.15370  0.00000 -0.30741
      11     H     0.44717  0.44717  0.00000  0.10566
      12     H     0.44957  0.44957  0.00000  0.10085
      13     H     0.44607  0.44607  0.00000  0.10787
      14     H     0.45753  0.45753  0.00000  0.08494
      15     H     0.45565  0.45565  0.00000  0.08870

   Total alpha = 21.00000, Total beta = 21.00000, Total charge = -0.00000
