  ==> Input File <==

--------------------------------------------------------------------------
set {
	reference rhf
	basis 6-31G*
}

set_num_threads( 1 )
memory 2 gb

molecule MOL {
0 1

H	 -3.013756	 -0.743375	 -0.929670
O	 -2.310168	 -0.871793	 -0.309793
C	 -2.026376	 0.340750	 0.341611
C	 -0.673256	 0.843270	 -0.132153
H	 -2.792215	 1.080697	 0.115987
H	 -2.013526	 0.200402	 1.421792
C	 0.486613	 -0.083066	 0.235839
H	 -0.715586	 0.970948	 -1.210718
H	 -0.508072	 1.829858	 0.297090
C	 1.840406	 0.433480	 -0.254303
H	 0.300215	 -1.068318	 -0.178947
H	 0.519509	 -0.203625	 1.318070
C	 3.000220	 -0.489290	 0.118523
H	 1.809207	 0.553576	 -1.335192
H	 2.021860	 1.424500	 0.157276
H	 2.864959	 -1.479103	 -0.307933
H	 3.946603	 -0.099227	 -0.243630
H	 3.080049	 -0.602997	 1.196117

	symmetry c1
}
set optking {
	frozen_dihedral = ("
		14 10 7 11,
		10 7 4 8,
		2 3 4 8
	")
}

ee = energy('scf')
oeprop('DIPOLE', 'QUADRUPOLE', 'MULLIKEN_CHARGES')
f=open( 'psi4out.xyz', 'w' )
f.write( "18  " )
f.write( str(ee) + "\n" )
f.write( MOL.save_string_xyz() )
f.close()
--------------------------------------------------------------------------

    Molecular point group: c1

    Geometry (in Angstrom), charge = 0, multiplicity = 1:

       Center              X                  Y                   Z               Mass
    ------------   -----------------  -----------------  -----------------  -----------------
           H         -3.015148036745    -0.748771713113    -0.919018055353     1.007825032070
           O         -2.311560036745    -0.877189713113    -0.299141055353    15.994914619560
           C         -2.027768036745     0.335353286887     0.352262944647    12.000000000000
           C         -0.674648036745     0.837873286887    -0.121501055353    12.000000000000
           H         -2.793607036745     1.075300286887     0.126638944647     1.007825032070
           H         -2.014918036745     0.195005286887     1.432443944647     1.007825032070
           C          0.485220963255    -0.088462713113     0.246490944647    12.000000000000
           H         -0.716978036745     0.965551286887    -1.200066055353     1.007825032070
           H         -0.509464036745     1.824461286887     0.307741944647     1.007825032070
           C          1.839013963255     0.428083286887    -0.243651055353    12.000000000000
           H          0.298822963255    -1.073714713113    -0.168295055353     1.007825032070
           H          0.518116963255    -0.209021713113     1.328721944647     1.007825032070
           C          2.998827963255    -0.494686713113     0.129174944647    12.000000000000
           H          1.807814963255     0.548179286887    -1.324540055353     1.007825032070
           H          2.020467963255     1.419103286887     0.167927944647     1.007825032070
           H          2.863566963255    -1.484499713113    -0.297281055353     1.007825032070
           H          3.945210963255    -0.104623713113    -0.232978055353     1.007825032070
           H          3.078656963255    -0.608393713113     1.206768944647     1.007825032070

  Charge       = 0
  Multiplicity = 1
  Basis Set: 6-31G*
  Basis Set:

    Orbital Energies (a.u.)
    -----------------------

    Doubly Occupied:

       1A    -20.552203     2A    -11.268707     3A    -11.210921
       4A    -11.210060     5A    -11.206244     6A    -11.204493
       7A     -1.360209     8A     -1.074390     9A     -1.008174
      10A     -0.913307    11A     -0.820399    12A     -0.786582
      13A     -0.697595    14A     -0.649634    15A     -0.613929
      16A     -0.589149    17A     -0.573934    18A     -0.550476
      19A     -0.525904    20A     -0.504148    21A     -0.488849
      22A     -0.467825    23A     -0.458496    24A     -0.448313
      25A     -0.423485

  @DF-RHF Final Energy:  -271.17727039268578

   => Energetics <=

    Nuclear Repulsion Energy =            249.2179471237523671
    One-Electron Energy =                -861.5753866775562528
    Two-Electron Energy =                 341.1801691611183855
    DFT Exchange-Correlation Energy =       0.0000000000000000
    Empirical Dispersion Energy =           0.0000000000000000
    PCM Polarization Energy =               0.0000000000000000
    EFP Energy =                            0.0000000000000000
    Total Energy =                       -271.1772703926855570

  Mulliken Charges: (a.u.)
   Center  Symbol    Alpha    Beta     Spin     Total
       1     H     0.27935  0.27935  0.00000  0.44130
       2     O     4.36984  4.36984  0.00000 -0.73969
       3     C     3.00347  3.00347  0.00000 -0.00695
       4     C     3.15437  3.15437  0.00000 -0.30875
       5     H     0.42907  0.42907  0.00000  0.14186
       6     H     0.42159  0.42159  0.00000  0.15681
       7     C     3.15337  3.15337  0.00000 -0.30674
       8     H     0.42387  0.42387  0.00000  0.15227
       9     H     0.42775  0.42775  0.00000  0.14450
      10     C     3.15128  3.15128  0.00000 -0.30257
      11     H     0.40838  0.40838  0.00000  0.18325
      12     H     0.42632  0.42632  0.00000  0.14736
      13     C     3.23894  3.23894  0.00000 -0.47787
      14     H     0.42360  0.42360  0.00000  0.15281
      15     H     0.42511  0.42511  0.00000  0.14977
      16     H     0.42090  0.42090  0.00000  0.15819
      17     H     0.42057  0.42057  0.00000  0.15887
      18     H     0.42222  0.42222  0.00000  0.15557

   Total alpha = 25.00000, Total beta = 25.00000, Total charge = -0.00000
