                              Psi4 1.0.54 Driver

  ==> Input File <==

--------------------------------------------------------------------------
set {
	reference rhf
	basis cc-pvtz
}

set_num_threads( 4 )
memory 2 gb

molecule MOL {
0 1

H	 -3.162190	 0.493205	 -0.000107
C	 -2.363908	 -0.234727	 0.000005
O	 -1.158738	 0.454634	 -0.000087
H	 -2.464314	 -0.863616	 -0.882153
H	 -2.464327	 -0.863359	 0.882345
C	 -1.199759	 1.687842	 0.646313
C	 0.169080	 2.334147	 0.575875
H	 -1.499546	 1.555153	 1.686101
H	 -1.943833	 2.331579	 0.176634
C	 0.207083	 3.693999	 1.264141
H	 0.890889	 1.664883	 1.030851
H	 0.450102	 2.435181	 -0.466608
H	 -0.047706	 3.612238	 2.315561
H	 1.195289	 4.132429	 1.198958
H	 -0.491210	 4.387765	 0.807913

	symmetry c1
}
set optking {
	frozen_dihedral = ("
		6 3 2 4
	")
}

ee,wfn = optimize('scf', return_wfn=True)
oeprop( wfn, 'DIPOLE', 'QUADRUPOLE', 'MULLIKEN_CHARGES')
f=open( 'psi4out.xyz', 'w' )
f.write( "15  " )
f.write( str(ee) + "\n" )
f.write( MOL.save_string_xyz() )
f.close()
--------------------------------------------------------------------------

    Molecular point group: c1
  Charge       = 0
  Multiplicity = 1
  Basis Set: CC-PVTZ
  Basis Set:
  @DF-RHF Final Energy:  -232.22543360509815
    Total Energy =                       -232.2254336050982602
    Molecular point group: c1
  Basis Set: CC-PVTZ
  Basis Set:
  Basis Set: CC-PVTZ
  Basis Set:
  @DF-RHF Final Energy:  -232.22621951577295
    Total Energy =                       -232.2262195157730389
  Basis Set: CC-PVTZ
  Basis Set:
  Basis Set: CC-PVTZ
  Basis Set:
  @DF-RHF Final Energy:  -232.22642940653509
    Total Energy =                       -232.2264294065352601
  Basis Set: CC-PVTZ
  Basis Set:
  Charge       = 0
  Multiplicity = 1
  Basis Set: CC-PVTZ
  Basis Set:

    Orbital Energies (a.u.)
    -----------------------

    Doubly Occupied:

       1A    -20.545816     2A    -11.264659     3A    -11.261480
       4A    -11.212487     5A    -11.210591     6A     -1.379502
       7A     -1.058265     8A     -0.956125     9A     -0.877388
      10A     -0.809409    11A     -0.675471    12A     -0.654857
      13A     -0.631547    14A     -0.608970    15A     -0.564063
      16A     -0.543827    17A     -0.503291    18A     -0.489092
      19A     -0.478869    20A     -0.462457    21A     -0.414327

  @DF-RHF Final Energy:  -232.22643043718523

   => Energetics <=

    Nuclear Repulsion Energy =            189.8524634763547851
    One-Electron Energy =                -690.9528068585450455
    Two-Electron Energy =                 268.8739129450050314
    DFT Exchange-Correlation Energy =       0.0000000000000000
    Empirical Dispersion Energy =           0.0000000000000000
    PCM Polarization Energy =               0.0000000000000000
    EFP Energy =                            0.0000000000000000
    Total Energy =                       -232.2264304371852290
    Molecular point group: c1
  Basis Set: CC-PVTZ
  Basis Set:

  -Total Gradient:
     Atom            X                  Y                   Z
    ------   -----------------  -----------------  -----------------
       1       -0.000012614924     0.000019497131     0.000003199940
       2        0.001375240783    -0.002074595294     0.000888528922
       3        0.000526170724    -0.001022017102     0.002463931408
       4       -0.001215558696     0.002162600960    -0.001363673947
       5        0.000025473124    -0.000011214665     0.000010716374
       6       -0.000696415236     0.001044865434    -0.001912615512
       7        0.000023500268    -0.000056566418    -0.000047419601
       8       -0.000002896824    -0.000022441718    -0.000016269065
       9       -0.000008899382    -0.000030738327    -0.000021245962
      10       -0.000029331789    -0.000009505614     0.000008019522
      11        0.000004885550     0.000001728585    -0.000001492764
      12        0.000013711115     0.000003974833    -0.000005235564
      13       -0.000000958529     0.000002002973     0.000000595528
      14       -0.000002345936    -0.000012054564    -0.000006296657
      15        0.000000039752     0.000004463786    -0.000000742621

  **** Optimization is complete! (in 4 steps) ****
    Final optimized geometry and variables:
    Molecular point group: c1

    Geometry (in Angstrom), charge = 0, multiplicity = 1:

    H           -2.318491602583    -1.157619608251    -0.507049405979
    C           -1.456675292861    -1.820230304694    -0.498533552201
    O           -0.263363864889    -1.105485832173    -0.497268576913
    H           -1.494749100295    -2.417989201543    -1.398966013443
    H           -1.532207852065    -2.468198822889     0.370372188286
    C           -0.305920631066     0.123918714772     0.157272095357
    C            1.061801130628     0.772287625238     0.084649157854
    H           -0.600548377782    -0.010579230405     1.198495514713
    H           -1.051979424923     0.767165242127    -0.308416738863
    C            1.097579056410     2.133607717522     0.770343789355
    H            1.785685468703     0.105556430533     0.540130340688
    H            1.341503829161     0.871685049568    -0.958444831472
    H            0.843573995180     2.053440461981     1.822123221749
    H            2.084923898474     2.573943129389     0.703718430669
    H            0.397622575115     2.825152413764     0.313137622983

  Mulliken Charges: (a.u.)
   Center  Symbol    Alpha    Beta     Spin     Total
       1     H     0.47490  0.47490  0.00000  0.05021
       2     C     3.03104  3.03104  0.00000 -0.06207
       3     O     4.17410  4.17410  0.00000 -0.34821
       4     H     0.45076  0.45076  0.00000  0.09849
       5     H     0.46477  0.46477  0.00000  0.07047
       6     C     2.95585  2.95585  0.00000  0.08830
       7     C     3.08121  3.08121  0.00000 -0.16242
       8     H     0.47675  0.47675  0.00000  0.04650
       9     H     0.47455  0.47455  0.00000  0.05090
      10     C     3.15584  3.15584  0.00000 -0.31167
      11     H     0.45100  0.45100  0.00000  0.09801
      12     H     0.45121  0.45121  0.00000  0.09757
      13     H     0.45584  0.45584  0.00000  0.08833
      14     H     0.44627  0.44627  0.00000  0.10746
      15     H     0.45593  0.45593  0.00000  0.08814

   Total alpha = 21.00000, Total beta = 21.00000, Total charge = -0.00000

*** Psi4 exiting successfully. Buy a developer a beer!
