                              Psi4 1.0.54 Driver

  ==> Input File <==

--------------------------------------------------------------------------
set {
	reference rhf
	basis cc-pvtz
}

set_num_threads( 4 )
memory 2 gb

molecule MOL {
0 1

H	 0.100707	 -0.061510	 -0.297634
N	 -0.625934	 -0.663929	 -0.000707
C	 -1.978635	 -0.158664	 0.001017
C	 -0.295639	 -1.918003	 0.379800
H	 -2.519057	 -0.493535	 -0.876362
H	 -1.938890	 0.917202	 -0.004137
H	 -2.514266	 -0.485137	 0.884506
C	 1.181360	 -2.234080	 0.293831
O	 -1.097355	 -2.723653	 0.750281
H	 1.748783	 -1.565961	 0.931206
H	 1.340091	 -3.252096	 0.609291
H	 1.536723	 -2.111344	 -0.722668

	symmetry c1
}
set optking {
	frozen_dihedral = ("
		4 2 3 5
	")
}

ee,wfn = optimize('scf', return_wfn=True)
oeprop( wfn, 'DIPOLE', 'QUADRUPOLE', 'MULLIKEN_CHARGES')
f=open( 'psi4out.xyz', 'w' )
f.write( "12  " )
f.write( str(ee) + "\n" )
f.write( MOL.save_string_xyz() )
f.close()
--------------------------------------------------------------------------

    Molecular point group: c1
  Charge       = 0
  Multiplicity = 1
  Basis Set: CC-PVTZ
  Basis Set:
  @DF-RHF Final Energy:  -247.10094952668547
    Total Energy =                       -247.1009495266854401
    Molecular point group: c1
  Basis Set: CC-PVTZ
  Basis Set:
  Basis Set: CC-PVTZ
  Basis Set:
  @DF-RHF Final Energy:  -247.10110732965407
    Total Energy =                       -247.1011073296540417
  Basis Set: CC-PVTZ
  Basis Set:
  Basis Set: CC-PVTZ
  Basis Set:
  @DF-RHF Final Energy:  -247.10086444041102
    Total Energy =                       -247.1008644404111578
  Basis Set: CC-PVTZ
  Basis Set:
  Basis Set: CC-PVTZ
  Basis Set:
  @DF-RHF Final Energy:  -247.10119133526368
    Total Energy =                       -247.1011913352637634
  Basis Set: CC-PVTZ
  Basis Set:
  @DF-RHF Final Energy:  -247.10120268632332
    Total Energy =                       -247.1012026863232904
  @DF-RHF Final Energy:  -247.10122967929965
    Total Energy =                       -247.1012296792997631
  @DF-RHF Final Energy:  -247.10123673470684
    Total Energy =                       -247.1012367347068448
  @DF-RHF Final Energy:  -247.10123880016891
    Total Energy =                       -247.1012388001690852
  @DF-RHF Final Energy:  -247.10124053081938
    Total Energy =                       -247.1012405308192683
  @DF-RHF Final Energy:  -247.10124625129657
    Total Energy =                       -247.1012462512966295
  @DF-RHF Final Energy:  -247.10124848875867
    Total Energy =                       -247.1012484887585288
  @DF-RHF Final Energy:  -247.10125625596413
    Total Energy =                       -247.1012562559640173
  @DF-RHF Final Energy:  -247.10126345200510
    Total Energy =                       -247.1012634520051847
  @DF-RHF Final Energy:  -247.10127886082847
    Total Energy =                       -247.1012788608283586
  @DF-RHF Final Energy:  -247.10129627291514
    Total Energy =                       -247.1012962729150786
  @DF-RHF Final Energy:  -247.10131732376638
    Total Energy =                       -247.1013173237662386
  @DF-RHF Final Energy:  -247.10132369918213
    Total Energy =                       -247.1013236991820463
  @DF-RHF Final Energy:  -247.10132726577862
    Total Energy =                       -247.1013272657784796
  @DF-RHF Final Energy:  -247.10133077155834
    Total Energy =                       -247.1013307715581391
  @DF-RHF Final Energy:  -247.10133424924410
    Total Energy =                       -247.1013342492441893
  @DF-RHF Final Energy:  -247.10133769986203
    Total Energy =                       -247.1013376998619151
  @DF-RHF Final Energy:  -247.10134104433513
    Total Energy =                       -247.1013410443351859
  @DF-RHF Final Energy:  -247.10135095350654
    Total Energy =                       -247.1013509535065964
  @DF-RHF Final Energy:  -247.10136059588831
    Total Energy =                       -247.1013605958883090
  @DF-RHF Final Energy:  -247.10136298105726
    Total Energy =                       -247.1013629810572638
  @DF-RHF Final Energy:  -247.10136963117972
    Total Energy =                       -247.1013696311797503
  @DF-RHF Final Energy:  -247.10137597238187
    Total Energy =                       -247.1013759723817884
  @DF-RHF Final Energy:  -247.10138191204553
    Total Energy =                       -247.1013819120454968
  @DF-RHF Final Energy:  -247.10138743229984
    Total Energy =                       -247.1013874322998163
  @DF-RHF Final Energy:  -247.10139251723629
    Total Energy =                       -247.1013925172360359
  @DF-RHF Final Energy:  -247.10139715221305
    Total Energy =                       -247.1013971522130532
  Basis Set: CC-PVTZ
  Basis Set:
  @DF-RHF Final Energy:  -247.10139827373584
    Total Energy =                       -247.1013982737359242
  Basis Set: CC-PVTZ
  Basis Set:
  Basis Set: CC-PVTZ
  Basis Set:
  @DF-RHF Final Energy:  -247.10139933265796
    Total Energy =                       -247.1013993326579339
  Basis Set: CC-PVTZ
  Basis Set:
  Basis Set: CC-PVTZ
  Basis Set:
  @DF-RHF Final Energy:  -247.10140232495962
    Total Energy =                       -247.1014023249595084
  Basis Set: CC-PVTZ
  Basis Set:
  Charge       = 0
  Multiplicity = 1
  Basis Set: CC-PVTZ
  Basis Set:

    Orbital Energies (a.u.)
    -----------------------

    Doubly Occupied:

       1A    -20.505336     2A    -15.576186     3A    -11.335756
       4A    -11.253724     5A    -11.228391     6A     -1.388063
       7A     -1.231415     8A     -1.016243     9A     -0.933793
      10A     -0.789505    11A     -0.690781    12A     -0.651821
      13A     -0.635839    14A     -0.585967    15A     -0.582946
      16A     -0.555936    17A     -0.547453    18A     -0.506900
      19A     -0.417220    20A     -0.390734

  @DF-RHF Final Energy:  -247.10140304763127

   => Energetics <=

    Nuclear Repulsion Energy =            181.8233860004530129
    One-Electron Energy =                -696.2015562130670787
    Two-Electron Energy =                 267.2767671649827435
    DFT Exchange-Correlation Energy =       0.0000000000000000
    Empirical Dispersion Energy =           0.0000000000000000
    PCM Polarization Energy =               0.0000000000000000
    EFP Energy =                            0.0000000000000000
    Total Energy =                       -247.1014030476313792
    Molecular point group: c1
  Basis Set: CC-PVTZ
  Basis Set:

  -Total Gradient:
     Atom            X                  Y                   Z
    ------   -----------------  -----------------  -----------------
       1        0.000000284156    -0.000000800864    -0.000003847056
       2        0.000018645385     0.000001862872    -0.000336113265
       3       -0.000088841578    -0.000236524718     0.000183151686
       4       -0.000001079951     0.000032023354     0.000181853939
       5        0.000069114514     0.000197330059    -0.000071623686
       6       -0.000000232403     0.000000317055     0.000001173120
       7       -0.000000313539    -0.000000971115    -0.000000354069
       8       -0.000001855905    -0.000001509910     0.000003684240
       9        0.000002446203     0.000007190676     0.000044253161
      10       -0.000000541172    -0.000005119086     0.000029104985
      11       -0.000004541387    -0.000022194099    -0.000019434984
      12        0.000006915677     0.000028395773    -0.000011848067

  **** Optimization is complete! (in 35 steps) ****
    Final optimized geometry and variables:
    Molecular point group: c1

    Geometry (in Angstrom), charge = 0, multiplicity = 1:

    H            0.680005111755     1.540573756045    -0.388326545248
    N           -0.040817494730     0.910408253619    -0.141400544842
    C           -1.411283565274     1.359054790620    -0.227916884698
    C            0.280404776206    -0.382030447934     0.077887466238
    H           -1.844877286770     1.158698340090    -1.201214414763
    H           -1.445947382744     2.423967265121    -0.043662374442
    H           -2.003722931289     0.853756290587     0.517960361168
    C            1.756316132375    -0.706235871343     0.026931433509
    O           -0.542227903311    -1.224758642837     0.285882281030
    H            2.381071132508     0.145021123048     0.264296690330
    H            1.958418833204    -1.510988154294     0.716711421344
    H            2.000760103702    -1.046983274100    -0.972549081709

  Mulliken Charges: (a.u.)
   Center  Symbol    Alpha    Beta     Spin     Total
       1     H     0.41115  0.41115  0.00000  0.17769
       2     N     3.61563  3.61563  0.00000 -0.23126
       3     C     3.07891  3.07891  0.00000 -0.15782
       4     C     2.84075  2.84075  0.00000  0.31849
       5     H     0.45680  0.45680  0.00000  0.08640
       6     H     0.45537  0.45537  0.00000  0.08925
       7     H     0.43803  0.43803  0.00000  0.12394
       8     C     3.14702  3.14702  0.00000 -0.29404
       9     O     4.21860  4.21860  0.00000 -0.43719
      10     H     0.45736  0.45736  0.00000  0.08529
      11     H     0.43594  0.43594  0.00000  0.12813
      12     H     0.44444  0.44444  0.00000  0.11112

   Total alpha = 20.00000, Total beta = 20.00000, Total charge = -0.00000

*** Psi4 exiting successfully. Buy a developer a beer!
