  ==> Input File <==

--------------------------------------------------------------------------
set {
	reference rhf
	basis 6-31G*
}

set_num_threads( 4 )
memory 2 gb

molecule MOL {
0 1

H	 -1.836216	 1.387520	 -0.000064
C	 -1.301823	 0.443321	 -0.000031
O	 -0.003969	 0.658512	 0.000451
O	 -1.829879	 -0.616434	 -0.000857
C	 0.850537	 -0.484732	 0.000380
C	 0.750800	 -1.125973	 -1.366801
H	 0.531941	 -1.158089	 0.784220
H	 1.859769	 -0.166179	 0.222347
H	 -0.268185	 -1.431362	 -1.575224
H	 1.387940	 -2.003176	 -1.409212
H	 1.066038	 -0.434765	 -2.139940

	symmetry c1
}
set optking {
	frozen_dihedral = ("
		7 5 3 2
	")
}

ee = optimize('scf')
oeprop('DIPOLE', 'QUADRUPOLE', 'MULLIKEN_CHARGES')
f=open( 'psi4out.xyz', 'w' )
f.write( "11  " )
f.write( str(ee) + "\n" )
f.write( MOL.save_string_xyz() )
f.close()
--------------------------------------------------------------------------

    Molecular point group: c1
  Charge       = 0
  Multiplicity = 1
  Basis Set: 6-31G*
  Basis Set:
  @DF-RHF Final Energy:  -266.82480695332697
    Total Energy =                       -266.8248069533268563
    Molecular point group: c1
  Basis Set: 6-31G*
  Basis Set:
  Basis Set: 6-31G*
  Basis Set:
  @DF-RHF Final Energy:  -266.82745368608153
    Total Energy =                       -266.8274536860815260
  Basis Set: 6-31G*
  Basis Set:
  Basis Set: 6-31G*
  Basis Set:
  @DF-RHF Final Energy:  -266.82596867084692
    Total Energy =                       -266.8259686708468621
  Basis Set: 6-31G*
  Basis Set:
  Basis Set: 6-31G*
  Basis Set:
  @DF-RHF Final Energy:  -266.82783800990637
    Total Energy =                       -266.8278380099062588
  Basis Set: 6-31G*
  Basis Set:
  Basis Set: 6-31G*
  Basis Set:
  @DF-RHF Final Energy:  -266.82789627915531
    Total Energy =                       -266.8278962791554250
  Basis Set: 6-31G*
  Basis Set:
  Basis Set: 6-31G*
  Basis Set:
  @DF-RHF Final Energy:  -266.82789750578399
    Total Energy =                       -266.8278975057841080
  Basis Set: 6-31G*
  Basis Set:
  Charge       = 0
  Multiplicity = 1
  Basis Set: 6-31G*
  Basis Set:

    Orbital Energies (a.u.)
    -----------------------

    Doubly Occupied:

       1A    -20.612793     2A    -20.557145     3A    -11.379291
       4A    -11.292556     5A    -11.222276     6A     -1.475537
       7A     -1.374201     8A     -1.048022     9A     -0.913005
      10A     -0.796426    11A     -0.742837    12A     -0.683677
      13A     -0.653497    14A     -0.624458    15A     -0.575654
      16A     -0.542057    17A     -0.534362    18A     -0.501364
      19A     -0.458931    20A     -0.452389

  @DF-RHF Final Energy:  -266.82789770043860

   => Energetics <=

    Nuclear Repulsion Energy =            182.5416634680700554
    One-Electron Energy =                -725.8581647756122948
    Two-Electron Energy =                 276.4886036071038689
    DFT Exchange-Correlation Energy =       0.0000000000000000
    Empirical Dispersion Energy =           0.0000000000000000
    PCM Polarization Energy =               0.0000000000000000
    EFP Energy =                            0.0000000000000000
    Total Energy =                       -266.8278977004383705
    Molecular point group: c1
  Basis Set: 6-31G*
  Basis Set:

  -Total Gradient:
     Atom            X                  Y                   Z
    ------   -----------------  -----------------  -----------------
       1       -0.000008216378    -0.000001248729     0.000002745674
       2       -0.000027906562     0.000038053459    -0.001705267320
       3        0.000356615580     0.000188444927     0.002754975620
       4       -0.000003589426    -0.000006612983    -0.000003866243
       5       -0.001544231433    -0.001065863251    -0.002266751552
       6       -0.000007998654     0.000000488063     0.000009136904
       7        0.001237357804     0.000843479179     0.001212039626
       8       -0.000007077769     0.000004489328    -0.000001733188
       9        0.000003807090     0.000001071969     0.000003079746
      10        0.000000232479    -0.000002595620    -0.000004191136
      11        0.000001007269     0.000000293658    -0.000000168130

  **** Optimization is complete! (in 7 steps) ****
    Final optimized geometry and variables:
    Molecular point group: c1

    Geometry (in Angstrom), charge = 0, multiplicity = 1:

    H           -1.485824526168     1.681341191444     0.321353217516
    C           -0.995078271665     0.713779039464     0.312461183195
    O            0.310187171518     0.874035586602     0.273779410883
    O           -1.573607509040    -0.319267052905     0.344529095906
    C            1.137888870913    -0.290016878485     0.226163337942
    C            1.130734580174    -0.948587202739    -1.140823653275
    H            0.830867995717    -0.971002417250     1.007005979225
    H            2.123073242314     0.082010961901     0.466073628272
    H            0.154694098202    -1.348595698935    -1.379797210293
    H            1.847087645052    -1.764170751743    -1.151541203809
    H            1.417614870595    -0.235160639641    -1.905817209240

  Mulliken Charges: (a.u.)
   Center  Symbol    Alpha    Beta     Spin     Total
       1     H     0.41067  0.41067  0.00000  0.17867
       2     C     2.72699  2.72699  0.00000  0.54603
       3     O     4.29218  4.29218  0.00000 -0.58435
       4     O     4.26445  4.26445  0.00000 -0.52890
       5     C     3.00770  3.00770  0.00000 -0.01540
       6     C     3.25859  3.25859  0.00000 -0.51718
       7     H     0.40475  0.40475  0.00000  0.19050
       8     H     0.40755  0.40755  0.00000  0.18490
       9     H     0.39794  0.39794  0.00000  0.20412
      10     H     0.41606  0.41606  0.00000  0.16789
      11     H     0.41314  0.41314  0.00000  0.17372

   Total alpha = 20.00000, Total beta = 20.00000, Total charge = -0.00000
