  ==> Input File <==

--------------------------------------------------------------------------
set {
	reference rhf
	basis 6-31G*
}

set_num_threads( 4 )
memory 2 gb

molecule MOL {
0 1

H	 -3.269016	 -0.876744	 0.468090
C	 -2.809304	 0.000122	 0.025886
N	 -1.391456	 0.000019	 0.300661
H	 -3.037557	 -0.000063	 -1.044252
H	 -3.269223	 0.876956	 0.468000
C	 -0.611531	 -0.459035	 -0.831935
C	 -1.061855	 -0.756704	 1.492526
H	 -0.851529	 -1.494511	 -1.092122
H	 -0.847338	 0.159568	 -1.691753
C	 0.875328	 -0.354490	 -0.530454
H	 -1.626118	 -0.355193	 2.327962
H	 -1.331662	 -1.811886	 1.386212
C	 0.425003	 -0.652157	 1.794007
H	 1.439591	 -0.756000	 -1.365889
H	 1.145135	 0.700693	 -0.424139
N	 1.204928	 -1.111212	 0.661411
H	 0.660810	 -1.270762	 2.653825
H	 0.665002	 0.383318	 2.054195
C	 2.622776	 -1.111316	 0.936186
H	 3.161072	 -1.519485	 0.088007
H	 2.830346	 -1.738174	 1.796298
H	 3.018860	 -0.112020	 1.140689

	symmetry c1
}
set optking {
	frozen_dihedral = ("
		6 3 2 4
	")
}

ee = optimize('scf')
oeprop('DIPOLE', 'QUADRUPOLE', 'MULLIKEN_CHARGES')
f=open( 'psi4out.xyz', 'w' )
f.write( "22  " )
f.write( str(ee) + "\n" )
f.write( MOL.save_string_xyz() )
f.close()
--------------------------------------------------------------------------

    Molecular point group: c1
  Charge       = 0
  Multiplicity = 1
  Basis Set: 6-31G*
  Basis Set:
  @DF-RHF Final Energy:  -344.22536655067609
    Total Energy =                       -344.2253665506758580
    Molecular point group: c1
  Basis Set: 6-31G*
  Basis Set:
  Basis Set: 6-31G*
  Basis Set:
  @DF-RHF Final Energy:  -344.22639902193782
    Total Energy =                       -344.2263990219378229
  Basis Set: 6-31G*
  Basis Set:
  Basis Set: 6-31G*
  Basis Set:
  @DF-RHF Final Energy:  -344.22655757334451
    Total Energy =                       -344.2265575733445075
  Basis Set: 6-31G*
  Basis Set:
  Basis Set: 6-31G*
  Basis Set:
  @DF-RHF Final Energy:  -344.22656817838867
    Total Energy =                       -344.2265681783886748
  Basis Set: 6-31G*
  Basis Set:
  Charge       = 0
  Multiplicity = 1
  Basis Set: 6-31G*
  Basis Set:

    Orbital Energies (a.u.)
    -----------------------

    Doubly Occupied:

       1A    -15.541547     2A    -15.538228     3A    -11.238747
       4A    -11.238423     5A    -11.237660     6A    -11.237637
       7A    -11.235923     8A    -11.235586     9A     -1.253329
      10A     -1.201678    11A     -1.024655    12A     -0.990898
      13A     -0.911773    14A     -0.866970    15A     -0.835282
      16A     -0.753303    17A     -0.664682    18A     -0.635503
      19A     -0.629789    20A     -0.625418    21A     -0.619295
      22A     -0.579302    23A     -0.551730    24A     -0.547462
      25A     -0.542696    26A     -0.518731    27A     -0.496554
      28A     -0.488369    29A     -0.465593    30A     -0.455653
      31A     -0.348647    32A     -0.338082

  @DF-RHF Final Energy:  -344.22656926461553

   => Energetics <=

    Nuclear Repulsion Energy =            420.9661046329330816
    One-Electron Energy =               -1300.6870592887960356
    Two-Electron Energy =                 535.4943853912473060
    DFT Exchange-Correlation Energy =       0.0000000000000000
    Empirical Dispersion Energy =           0.0000000000000000
    PCM Polarization Energy =               0.0000000000000000
    EFP Energy =                            0.0000000000000000
    Total Energy =                       -344.2265692646155912
    Molecular point group: c1
  Basis Set: 6-31G*
  Basis Set:

  -Total Gradient:
     Atom            X                  Y                   Z
    ------   -----------------  -----------------  -----------------
       1       -0.000024758341    -0.000004124058     0.000001190841
       2        0.000330571678     0.007197697893    -0.000203307604
       3       -0.000480499376    -0.005928455715     0.001416369942
       4       -0.000197356005    -0.004579281663    -0.000209981307
       5        0.000029883128    -0.000047352820     0.000003975197
       6        0.000332646741     0.003325972156    -0.001043449503
       7        0.000003192194     0.000046258612     0.000010956725
       8       -0.000018955808     0.000005727947     0.000009018489
       9        0.000004152517    -0.000000946890     0.000006953310
      10        0.000026624912     0.000018029885     0.000003990470
      11       -0.000007051830    -0.000004346863    -0.000000354243
      12        0.000011079043     0.000012425113    -0.000000953146
      13       -0.000007167447    -0.000047704339     0.000026430332
      14        0.000007329579     0.000001271729     0.000001479116
      15        0.000002314521     0.000007962233    -0.000003499319
      16       -0.000023353173     0.000011839996    -0.000015358123
      17        0.000025330073    -0.000001557992     0.000010815677
      18       -0.000018757272    -0.000010565616    -0.000005312688
      19        0.000003033828    -0.000005826570    -0.000008476986
      20        0.000001690575     0.000001238934     0.000001571774
      21        0.000000720168     0.000001018335    -0.000000641003
      22       -0.000000669705     0.000000719693    -0.000001417951

  **** Optimization is complete! (in 5 steps) ****
    Final optimized geometry and variables:
    Molecular point group: c1

    Geometry (in Angstrom), charge = 0, multiplicity = 1:

    H           -3.252073396295    -0.306401095488    -0.078752216826
    C           -2.728354962638     0.581719105917    -0.438831097765
    N           -1.302284474773     0.511749931228    -0.192927479263
    H           -2.925864507648     0.635840110493    -1.502682024854
    H           -3.165237853016     1.447566161540     0.048036660763
    C           -0.513771249484     0.077129628307    -1.326679979849
    C           -0.965826949115    -0.206574567145     1.016080772948
    H           -0.730522654338    -0.958778673758    -1.606478929017
    H           -0.750439983787     0.705591518906    -2.178148403299
    C            0.969185547441     0.202308873968    -1.012846168025
    H           -1.531743021663     0.214562424583     1.841198261190
    H           -1.231256449979    -1.265758008416     0.940806136517
    C            0.520437682080    -0.085347664204     1.313334905296
    H            1.545706060090    -0.191673115084    -1.843537289432
    H            1.223000842068     1.261386389489    -0.904762345846
    N            1.301458232798    -0.548060813490     0.182652145179
    H            0.764544270717    -0.693337645355     2.178453133356
    H            0.752410150791     0.954746678179     1.562280282452
    C            2.719369167735    -0.539887366304     0.457167355006
    H            3.259780694913    -0.950494337809    -0.388501084782
    H            2.929949948956    -1.160604685154     1.320978700546
    H            3.110851989348     0.462428660861     0.655935166234

  Mulliken Charges: (a.u.)
   Center  Symbol    Alpha    Beta     Spin     Total
       1     H     0.42992  0.42992  0.00000  0.14016
       2     C     3.13783  3.13783  0.00000 -0.27565
       3     N     3.79344  3.79344  0.00000 -0.58688
       4     H     0.41957  0.41957  0.00000  0.16086
       5     H     0.41594  0.41594  0.00000  0.16812
       6     C     3.05276  3.05276  0.00000 -0.10551
       7     C     3.05347  3.05347  0.00000 -0.10694
       8     H     0.42963  0.42963  0.00000  0.14075
       9     H     0.41802  0.41802  0.00000  0.16396
      10     C     3.05704  3.05704  0.00000 -0.11408
      11     H     0.41799  0.41799  0.00000  0.16402
      12     H     0.42895  0.42895  0.00000  0.14210
      13     C     3.05654  3.05654  0.00000 -0.11309
      14     H     0.41829  0.41829  0.00000  0.16343
      15     H     0.42891  0.42891  0.00000  0.14219
      16     N     3.78720  3.78720  0.00000 -0.57441
      17     H     0.41822  0.41822  0.00000  0.16357
      18     H     0.42897  0.42897  0.00000  0.14206
      19     C     3.14011  3.14011  0.00000 -0.28023
      20     H     0.41682  0.41682  0.00000  0.16635
      21     H     0.41683  0.41683  0.00000  0.16635
      22     H     0.43357  0.43357  0.00000  0.13286

   Total alpha = 32.00000, Total beta = 32.00000, Total charge =  0.00000
