  ==> Input File <==

--------------------------------------------------------------------------
set {
	reference rhf
	basis 6-31G*
}

set_num_threads( 4 )
memory 2 gb

molecule MOL {
0 1

H	 -3.518014	 0.027633	 0.753737
O	 -3.110592	 -0.228745	 -0.062285
C	 -1.776383	 -0.070618	 -0.007991
C	 -1.132503	 0.411679	 1.127707
C	 -1.046708	 -0.409452	 -1.140613
H	 -1.705491	 0.671982	 2.001341
C	 0.239274	 0.553264	 1.126155
H	 -1.566190	 -0.779260	 -2.004125
C	 0.324635	 -0.262276	 -1.126764
H	 0.749107	 0.924173	 1.995406
C	 0.984182	 0.218375	 0.000000
H	 0.890557	 -0.524708	 -2.004217
C	 2.452467	 0.370529	 0.000000
O	 3.228994	 -0.533774	 0.000000
H	 2.809473	 1.405765	 0.000000

	symmetry c1
}
set optking {
	frozen_dihedral = ("
		7 11 13 14
	")
}

ee = optimize('scf')
oeprop('DIPOLE', 'QUADRUPOLE', 'MULLIKEN_CHARGES')
f=open( 'psi4out.xyz', 'w' )
f.write( "15  " )
f.write( str(ee) + "\n" )
f.write( MOL.save_string_xyz() )
f.close()
--------------------------------------------------------------------------

    Molecular point group: c1
  Charge       = 0
  Multiplicity = 1
  Basis Set: 6-31G*
  Basis Set:
  @DF-RHF Final Energy:  -418.27496403513442
    Total Energy =                       -418.2749640351346443
    Molecular point group: c1
  Basis Set: 6-31G*
  Basis Set:
  Basis Set: 6-31G*
  Basis Set:
  @DF-RHF Final Energy:  -418.27507353947533
    Total Energy =                       -418.2750735394755566
  Basis Set: 6-31G*
  Basis Set:
  Basis Set: 6-31G*
  Basis Set:
  @DF-RHF Final Energy:  -418.27584011231829
    Total Energy =                       -418.2758401123179510
  Basis Set: 6-31G*
  Basis Set:
  Basis Set: 6-31G*
  Basis Set:
  @DF-RHF Final Energy:  -418.27598352127501
    Total Energy =                       -418.2759835212741564
  Basis Set: 6-31G*
  Basis Set:
  Basis Set: 6-31G*
  Basis Set:
  @DF-RHF Final Energy:  -418.27598706037355
    Total Energy =                       -418.2759870603731542
  Basis Set: 6-31G*
  Basis Set:
  Charge       = 0
  Multiplicity = 1
  Basis Set: 6-31G*
  Basis Set:

    Orbital Energies (a.u.)
    -----------------------

    Doubly Occupied:

       1A    -20.604170     2A    -20.568928     3A    -11.333764
       4A    -11.314727     5A    -11.257550     6A    -11.252752
       7A    -11.243439     8A    -11.243169     9A    -11.236290
      10A     -1.424103    11A     -1.407955    12A     -1.168162
      13A     -1.038613    14A     -1.035028    15A     -0.888563
      16A     -0.858049    17A     -0.802229    18A     -0.752642
      19A     -0.701956    20A     -0.680076    21A     -0.649150
      22A     -0.628018    23A     -0.605551    24A     -0.601706
      25A     -0.589369    26A     -0.559873    27A     -0.530474
      28A     -0.502932    29A     -0.490536    30A     -0.421607
      31A     -0.354136    32A     -0.323795

  @DF-RHF Final Energy:  -418.27598762391870

   => Energetics <=

    Nuclear Repulsion Energy =            400.6302706021541553
    One-Electron Energy =               -1363.6738975074022164
    Two-Electron Energy =                 544.7676392813295934
    DFT Exchange-Correlation Energy =       0.0000000000000000
    Empirical Dispersion Energy =           0.0000000000000000
    PCM Polarization Energy =               0.0000000000000000
    EFP Energy =                            0.0000000000000000
    Total Energy =                       -418.2759876239184678
    Molecular point group: c1
  Basis Set: 6-31G*
  Basis Set:

  -Total Gradient:
     Atom            X                  Y                   Z
    ------   -----------------  -----------------  -----------------
       1       -0.000009307414     0.000010131815    -0.000002562838
       2        0.000001687246     0.000034503070     0.000007933391
       3        0.000027126318    -0.000165124150    -0.000082272750
       4        0.000089620127     0.000062365158     0.000037939714
       5       -0.000117374659     0.000029050281     0.000008662521
       6       -0.000004623944    -0.000002799933    -0.000010358954
       7        0.000184085473    -0.005488727160     0.001794412835
       8       -0.000000463428    -0.000000184173     0.000005081679
       9        0.000060044283     0.000089916098     0.000041707822
      10        0.000021553368     0.000004679441    -0.000026775073
      11       -0.000388446360     0.007829662555     0.000500112269
      12       -0.000008362348    -0.000002268617     0.000003722351
      13        0.000190765682    -0.002133307145    -0.009305809431
      14       -0.000100550572    -0.000262595418     0.007023946775
      15        0.000054246234    -0.000005301821     0.000004259687

  **** Optimization is complete! (in 6 steps) ****
    Final optimized geometry and variables:
    Molecular point group: c1

    Geometry (in Angstrom), charge = 0, multiplicity = 1:

    H           -3.514672113365    -0.009651235793     0.785869071499
    O           -3.111500518409    -0.251260711357    -0.036378421335
    C           -1.775620122959    -0.070699981056     0.009926427095
    C           -1.128611962204     0.421956238449     1.132017067477
    C           -1.046190216786    -0.402469331642    -1.125192371524
    H           -1.689899525739     0.665878595197     2.017854243637
    C            0.245613400736     0.595362724709     1.111250490029
    H           -1.563986585525    -0.792375996618    -1.981235450259
    C            0.323583215210    -0.243757601802    -1.125971021597
    H            0.737447648345     0.980018956529     1.988044826592
    C            0.982657190438     0.281159201216    -0.018286785793
    H            0.888648681863    -0.527714399168    -1.995433251601
    C            2.475780022092     0.373575513654     0.011604859011
    O            3.195136075171    -0.572024860065    -0.019511754267
    H            2.895760497019     1.377452797398     0.127300858028

  Mulliken Charges: (a.u.)
   Center  Symbol    Alpha    Beta     Spin     Total
       1     H     0.27000  0.27000  0.00000  0.45999
       2     O     4.37551  4.37551  0.00000 -0.75102
       3     C     2.79099  2.79099  0.00000  0.41801
       4     C     3.14314  3.14314  0.00000 -0.28628
       5     C     3.12291  3.12291  0.00000 -0.24582
       6     H     0.39974  0.39974  0.00000  0.20052
       7     C     3.09494  3.09494  0.00000 -0.18988
       8     H     0.38667  0.38667  0.00000  0.22666
       9     C     3.08865  3.08865  0.00000 -0.17730
      10     H     0.39166  0.39166  0.00000  0.21669
      11     C     3.04525  3.04525  0.00000 -0.09051
      12     H     0.38686  0.38686  0.00000  0.22627
      13     C     2.85437  2.85437  0.00000  0.29125
      14     O     4.22414  4.22414  0.00000 -0.44827
      15     H     0.42516  0.42516  0.00000  0.14968

   Total alpha = 32.00000, Total beta = 32.00000, Total charge = -0.00000
