  ==> Input File <==

--------------------------------------------------------------------------
set {
	reference rhf
	basis 6-31G*
}

set_num_threads( 4 )
memory 2 gb

molecule MOL {
0 1

H	 -3.650283	 0.221984	 0.000000
C	 -2.577024	 0.154109	 0.000000
C	 -1.960329	 -1.089307	 0.000000
C	 -1.811733	 1.307557	 0.000000
H	 -2.554473	 -1.985285	 0.000000
C	 -0.581547	 -1.175855	 0.000000
H	 -2.287118	 2.271701	 0.000000
C	 -0.428719	 1.219221	 0.000000
H	 -0.090826	 -2.129898	 0.000000
C	 0.198341	 -0.021559	 0.000000
H	 0.149947	 2.124040	 0.000000
C	 1.691355	 -0.173192	 0.000000
C	 2.447288	 -0.018995	 1.303200
O	 2.277754	 -0.412469	 -1.014030
H	 2.290035	 0.967181	 1.728065
H	 3.500512	 -0.160585	 1.107849
H	 2.115540	 -0.750936	 2.032574

	symmetry c1
}
set optking {
	frozen_dihedral = ("
		13 12 10 8
	")
}

ee = optimize('scf')
oeprop('DIPOLE', 'QUADRUPOLE', 'MULLIKEN_CHARGES')
f=open( 'psi4out.xyz', 'w' )
f.write( "17  " )
f.write( str(ee) + "\n" )
f.write( MOL.save_string_xyz() )
f.close()
--------------------------------------------------------------------------

    Molecular point group: c1
  Charge       = 0
  Multiplicity = 1
  Basis Set: 6-31G*
  Basis Set:
  @DF-RHF Final Energy:  -382.46555838462234
    Total Energy =                       -382.4655583846223408
    Molecular point group: c1
  Basis Set: 6-31G*
  Basis Set:
  Basis Set: 6-31G*
  Basis Set:
  @DF-RHF Final Energy:  -382.46517930189617
    Total Energy =                       -382.4651793018965691
  Basis Set: 6-31G*
  Basis Set:
  Basis Set: 6-31G*
  Basis Set:
  @DF-RHF Final Energy:  -382.46610129473356
    Total Energy =                       -382.4661012947332210
  Basis Set: 6-31G*
  Basis Set:
  Basis Set: 6-31G*
  Basis Set:
  @DF-RHF Final Energy:  -382.46644007948385
    Total Energy =                       -382.4664400794832773
  Basis Set: 6-31G*
  Basis Set:
  Basis Set: 6-31G*
  Basis Set:
  @DF-RHF Final Energy:  -382.46644639147502
    Total Energy =                       -382.4664463914745056
  Basis Set: 6-31G*
  Basis Set:
  Basis Set: 6-31G*
  Basis Set:
  @DF-RHF Final Energy:  -382.46644879753626
    Total Energy =                       -382.4664487975369411
  Basis Set: 6-31G*
  Basis Set:
  Charge       = 0
  Multiplicity = 1
  Basis Set: 6-31G*
  Basis Set:

    Orbital Energies (a.u.)
    -----------------------

    Doubly Occupied:

       1A    -20.557901     2A    -11.334332     3A    -11.247412
       4A    -11.244061     5A    -11.242690     6A    -11.241126
       7A    -11.240429     8A    -11.239023     9A    -11.231504
      10A     -1.402764    11A     -1.165580    12A     -1.050228
      13A     -1.025514    14A     -0.998696    15A     -0.858757
      16A     -0.837366    17A     -0.761613    18A     -0.702272
      19A     -0.663298    20A     -0.642409    21A     -0.627397
      22A     -0.620103    23A     -0.598843    24A     -0.589995
      25A     -0.562220    26A     -0.522041    27A     -0.511885
      28A     -0.505811    29A     -0.491899    30A     -0.409619
      31A     -0.343546    32A     -0.341198

  @DF-RHF Final Energy:  -382.46644906934876

   => Energetics <=

    Nuclear Repulsion Energy =            402.5470796194531431
    One-Electron Energy =               -1316.4039890933822790
    Two-Electron Energy =                 531.3904604045802671
    DFT Exchange-Correlation Energy =       0.0000000000000000
    Empirical Dispersion Energy =           0.0000000000000000
    PCM Polarization Energy =               0.0000000000000000
    EFP Energy =                            0.0000000000000000
    Total Energy =                       -382.4664490693488688
    Molecular point group: c1
  Basis Set: 6-31G*
  Basis Set:

  -Total Gradient:
     Atom            X                  Y                   Z
    ------   -----------------  -----------------  -----------------
       1       -0.000001435787    -0.000001942258     0.000001775340
       2       -0.000000467598    -0.000011341273     0.000019253621
       3       -0.000007819432     0.000005874861    -0.000010611441
       4        0.000017574959     0.000018824991    -0.000030310734
       5       -0.000000578874     0.000001348812    -0.000004275214
       6       -0.000012948571     0.000014841389     0.000020037261
       7       -0.000000264817    -0.000000146526     0.000000269198
       8       -0.000081938789    -0.000006784582    -0.002401710576
       9        0.000010306919    -0.000001634743    -0.000000786344
      10        0.000028066322    -0.000981839206     0.003760816668
      11       -0.000005845187     0.000004365150    -0.000007682468
      12        0.000222332529     0.003075084902    -0.001791209104
      13       -0.000200914768    -0.002135907469     0.000423098436
      14        0.000000653800     0.000007357958     0.000021402739
      15        0.000006081190     0.000002222642    -0.000009349127
      16        0.000016461799     0.000001825608     0.000009966285
      17        0.000010736300     0.000007849746    -0.000000684538

  **** Optimization is complete! (in 7 steps) ****
    Final optimized geometry and variables:
    Molecular point group: c1

    Geometry (in Angstrom), charge = 0, multiplicity = 1:

    H           -3.642101536298     0.279820343040    -0.030795021434
    C           -2.569961988703     0.198955039113    -0.028210533544
    C           -1.967562500876    -1.048973944197    -0.036554689416
    C           -1.787536970636     1.342065922657    -0.022858220615
    H           -2.571011378107    -1.938792324744    -0.048689648175
    C           -0.586685468786    -1.154216970823    -0.040439541997
    H           -2.250194848922     2.312628849891    -0.027356035952
    C           -0.406081500222     1.237930071554    -0.014646505042
    H           -0.121704031487    -2.123789440446    -0.067425885556
    C            0.200096028685    -0.010703230986    -0.017533268744
    H            0.195881473963     2.130137727589    -0.013347771333
    C            1.703425415976    -0.136505747174    -0.056329077332
    C            2.435405313492     0.054616312171     1.252293884655
    O            2.271361664319    -0.422374347078    -1.064099834335
    H            2.196579744104     1.018971944027     1.690090114334
    H            3.502301835682    -0.024941532769     1.094071651817
    H            2.111362704783    -0.703640249221     1.959324176386

  Mulliken Charges: (a.u.)
   Center  Symbol    Alpha    Beta     Spin     Total
       1     H     0.39676  0.39676  0.00000  0.20647
       2     C     3.09919  3.09919  0.00000 -0.19838
       3     C     3.09823  3.09823  0.00000 -0.19647
       4     C     3.09798  3.09798  0.00000 -0.19596
       5     H     0.39607  0.39607  0.00000  0.20787
       6     C     3.10190  3.10190  0.00000 -0.20380
       7     H     0.39632  0.39632  0.00000  0.20735
       8     C     3.10422  3.10422  0.00000 -0.20843
       9     H     0.39174  0.39174  0.00000  0.21653
      10     C     3.02843  3.02843  0.00000 -0.05686
      11     H     0.39523  0.39523  0.00000  0.20954
      12     C     2.75299  2.75299  0.00000  0.49402
      13     C     3.28674  3.28674  0.00000 -0.57348
      14     O     4.24627  4.24627  0.00000 -0.49254
      15     H     0.40668  0.40668  0.00000  0.18664
      16     H     0.39752  0.39752  0.00000  0.20495
      17     H     0.40373  0.40373  0.00000  0.19254

   Total alpha = 32.00000, Total beta = 32.00000, Total charge =  0.00000
