  ==> Input File <==

--------------------------------------------------------------------------
set {
	reference rhf
	basis 6-31G*
}

set_num_threads( 1 )
memory 2 gb

molecule MOL {
0 1

O	 0.625848	 1.349995	 -0.000749
C	 0.486307	 0.169203	 0.000779
C	 1.608116	 -0.841643	 0.000302
O	 -0.698257	 -0.426125	 0.001050
C	 2.990107	 -0.200498	 -0.000684
H	 1.468623	 -1.481519	 -0.865924
H	 1.469683	 -1.481289	 0.866878
H	 3.129736	 0.423364	 -0.875135
H	 3.757882	 -0.966877	 -0.001197
H	 3.130964	 0.423383	 0.873533
C	 -0.753059	 -1.781857	 0.432776
C	 -2.197085	 -2.228266	 0.344357
H	 -0.376358	 -1.845115	 1.444547
H	 -0.110391	 -2.379441	 -0.199255
H	 -2.828423	 -1.616562	 0.978699
H	 -2.284845	 -3.261004	 0.665912
H	 -2.561089	 -2.153908	 -0.674087

	symmetry c1
}
set optking {
	frozen_dihedral = ("
		2 4 11 13,
		4 2 3 6
	")
}

ee = energy('scf')
oeprop('DIPOLE', 'QUADRUPOLE', 'MULLIKEN_CHARGES')
f=open( 'psi4out.xyz', 'w' )
f.write( "17  " )
f.write( str(ee) + "\n" )
f.write( MOL.save_string_xyz() )
f.close()
--------------------------------------------------------------------------

    Molecular point group: c1

    Geometry (in Angstrom), charge = 0, multiplicity = 1:

       Center              X                  Y                   Z               Mass
    ------------   -----------------  -----------------  -----------------  -----------------
           O          0.338904564779     1.920895142005    -0.114070127558    15.994914619560
           C          0.199363564779     0.740103142005    -0.112542127558    12.000000000000
           C          1.321172564779    -0.270742857995    -0.113019127558    12.000000000000
           O         -0.985200435221     0.144775142005    -0.112271127558    15.994914619560
           C          2.703163564779     0.370402142005    -0.114005127558    12.000000000000
           H          1.181679564779    -0.910618857995    -0.979245127558     1.007825032070
           H          1.182739564779    -0.910388857995     0.753556872442     1.007825032070
           H          2.842792564779     0.994264142005    -0.988456127558     1.007825032070
           H          3.470938564779    -0.395976857995    -0.114518127558     1.007825032070
           H          2.844020564779     0.994283142005     0.760211872442     1.007825032070
           C         -1.040002435221    -1.210956857995     0.319454872442    12.000000000000
           C         -2.484028435221    -1.657365857995     0.231035872442    12.000000000000
           H         -0.663301435221    -1.274214857995     1.331225872442     1.007825032070
           H         -0.397334435221    -1.808540857995    -0.312576127558     1.007825032070
           H         -3.115366435221    -1.045661857995     0.865377872442     1.007825032070
           H         -2.571788435221    -2.690103857995     0.552590872442     1.007825032070
           H         -2.848032435221    -1.583007857995    -0.787408127558     1.007825032070

  Charge       = 0
  Multiplicity = 1
  Basis Set: 6-31G*
  Basis Set:

    Orbital Energies (a.u.)
    -----------------------

    Doubly Occupied:

       1A    -20.602870     2A    -20.543524     3A    -11.373419
       4A    -11.301156     5A    -11.243298     6A    -11.229858
       7A    -11.218996     8A     -1.466156     9A     -1.368015
      10A     -1.064596    11A     -1.050800    12A     -0.906423
      13A     -0.886599    14A     -0.768318    15A     -0.708360
      16A     -0.702767    17A     -0.658445    18A     -0.632043
      19A     -0.595661    20A     -0.575575    21A     -0.560650
      22A     -0.544216    23A     -0.527635    24A     -0.518106
      25A     -0.511131    26A     -0.499847    27A     -0.447784
      28A     -0.429011

  @DF-RHF Final Energy:  -344.88605024426653

   => Energetics <=

    Nuclear Repulsion Energy =            318.6916205492643144
    One-Electron Energy =               -1101.2847914049368683
    Two-Electron Energy =                 437.7071206114056281
    DFT Exchange-Correlation Energy =       0.0000000000000000
    Empirical Dispersion Energy =           0.0000000000000000
    PCM Polarization Energy =               0.0000000000000000
    EFP Energy =                            0.0000000000000000
    Total Energy =                       -344.8860502442668690

  Mulliken Charges: (a.u.)
   Center  Symbol    Alpha    Beta     Spin     Total
       1     O     4.27259  4.27259  0.00000 -0.54519
       2     C     2.59215  2.59215  0.00000  0.81570
       3     C     3.24206  3.24206  0.00000 -0.48412
       4     O     4.30498  4.30498  0.00000 -0.60997
       5     C     3.23363  3.23363  0.00000 -0.46725
       6     H     0.39907  0.39907  0.00000  0.20187
       7     H     0.40225  0.40225  0.00000  0.19551
       8     H     0.40793  0.40793  0.00000  0.18413
       9     H     0.41965  0.41965  0.00000  0.16070
      10     H     0.40885  0.40885  0.00000  0.18230
      11     C     3.01472  3.01472  0.00000 -0.02944
      12     C     3.24352  3.24352  0.00000 -0.48704
      13     H     0.41287  0.41287  0.00000  0.17426
      14     H     0.41449  0.41449  0.00000  0.17102
      15     H     0.40606  0.40606  0.00000  0.18788
      16     H     0.41735  0.41735  0.00000  0.16530
      17     H     0.40783  0.40783  0.00000  0.18434

   Total alpha = 28.00000, Total beta = 28.00000, Total charge = -0.00000
