                              Psi4 1.0.54 Driver

  ==> Input File <==

--------------------------------------------------------------------------
set {
	reference rhf
	basis cc-pvtz
}

set_num_threads( 4 )
memory 2 gb

molecule MOL {
0 1

O	 -2.440701	 -0.934798	 -0.415053
C	 -1.922978	 0.063265	 -0.045005
C	 -2.632749	 1.372204	 0.158357
O	 -0.637375	 0.157174	 0.243149
H	 -2.187724	 2.129143	 -0.474664
H	 -3.677681	 1.257276	 -0.079438
H	 -2.516788	 1.693160	 1.185542
C	 0.162530	 -1.009518	 0.097799
C	 1.587210	 -0.664190	 0.477086
H	 0.096803	 -1.356267	 -0.924704
H	 -0.233803	 -1.785900	 0.736810
C	 2.507419	 -0.407007	 -0.713223
H	 1.975035	 -1.492228	 1.064180
H	 1.576723	 0.202958	 1.130373
C	 3.938751	 -0.090892	 -0.292537
H	 2.505709	 -1.280329	 -1.360066
H	 2.113150	 0.413266	 -1.301906
H	 4.570526	 0.083118	 -1.155651
H	 4.371849	 -0.908230	 0.274717
H	 3.976423	 0.797640	 0.328839

	symmetry c1
}
set optking {
	frozen_dihedral = ("
		12 9 8 10
	")
}

ee,wfn = optimize('scf', return_wfn=True)
oeprop( wfn, 'DIPOLE', 'QUADRUPOLE', 'MULLIKEN_CHARGES')
f=open( 'psi4out.xyz', 'w' )
f.write( "20  " )
f.write( str(ee) + "\n" )
f.write( MOL.save_string_xyz() )
f.close()
--------------------------------------------------------------------------

    Molecular point group: c1
  Charge       = 0
  Multiplicity = 1
  Basis Set: CC-PVTZ
  Basis Set:
  @DF-RHF Final Energy:  -384.08344345268745
    Total Energy =                       -384.0834434526873338
    Molecular point group: c1
  Basis Set: CC-PVTZ
  Basis Set:
  Basis Set: CC-PVTZ
  Basis Set:
  @DF-RHF Final Energy:  -384.08373187427406
    Total Energy =                       -384.0837318742740081
  Basis Set: CC-PVTZ
  Basis Set:
  Basis Set: CC-PVTZ
  Basis Set:
  @DF-RHF Final Energy:  -384.08377265728728
    Total Energy =                       -384.0837726572867723
  Basis Set: CC-PVTZ
  Basis Set:
  Basis Set: CC-PVTZ
  Basis Set:
  @DF-RHF Final Energy:  -384.08364955618856
    Total Energy =                       -384.0836495561884476
  Basis Set: CC-PVTZ
  Basis Set:
  Basis Set: CC-PVTZ
  Basis Set:
  @DF-RHF Final Energy:  -384.08383162653911
    Total Energy =                       -384.0838316265385401
  Basis Set: CC-PVTZ
  Basis Set:
  Charge       = 0
  Multiplicity = 1
  Basis Set: CC-PVTZ
  Basis Set:

    Orbital Energies (a.u.)
    -----------------------

    Doubly Occupied:

       1A    -20.593267     2A    -20.531826     3A    -11.365639
       4A    -11.280352     5A    -11.231066     6A    -11.222876
       7A    -11.221475     8A    -11.212509     9A     -1.469601
      10A     -1.363814    11A     -1.086691    12A     -1.029409
      13A     -0.980880    14A     -0.882241    15A     -0.808345
      16A     -0.781428    17A     -0.691683    18A     -0.684494
      19A     -0.669607    20A     -0.632355    21A     -0.604021
      22A     -0.593699    23A     -0.571927    24A     -0.554102
      25A     -0.545043    26A     -0.527139    27A     -0.514846
      28A     -0.481963    29A     -0.479678    30A     -0.477091
      31A     -0.450137    32A     -0.440358

  @DF-RHF Final Energy:  -384.08383218025511

   => Energetics <=

    Nuclear Repulsion Energy =            382.6456392220038083
    One-Electron Energy =               -1281.4998153064379949
    Two-Electron Energy =                 514.7703439041790716
    DFT Exchange-Correlation Energy =       0.0000000000000000
    Empirical Dispersion Energy =           0.0000000000000000
    PCM Polarization Energy =               0.0000000000000000
    EFP Energy =                            0.0000000000000000
    Total Energy =                       -384.0838321802550581
    Molecular point group: c1
  Basis Set: CC-PVTZ
  Basis Set:

  -Total Gradient:
     Atom            X                  Y                   Z
    ------   -----------------  -----------------  -----------------
       1        0.000024281064     0.000068489122     0.000006403957
       2       -0.000119919864    -0.000021951787     0.000037531622
       3       -0.000037309867    -0.000006188164    -0.000016335379
       4        0.000109337379    -0.000148466047     0.000013366458
       5        0.000000525132    -0.000009783832    -0.000006613256
       6       -0.000022301740     0.000033178229     0.000002199197
       7        0.000006574320    -0.000018767914    -0.000021049728
       8        0.001209569301    -0.006418932864     0.001501900523
       9       -0.001299261179     0.005435582739    -0.000133025046
      10       -0.000705516674     0.004196845297    -0.001282307443
      11       -0.000026018221    -0.000000121068     0.000013823825
      12        0.000814031223    -0.003130850437    -0.000120560855
      13        0.000016172303    -0.000002292068    -0.000003071542
      14        0.000011099776     0.000006899132     0.000003257469
      15        0.000009897928     0.000030235781    -0.000005559214
      16       -0.000008903229    -0.000009812817     0.000004062544
      17        0.000002136641    -0.000005041047     0.000002541346
      18        0.000009934725     0.000010713538    -0.000002609451
      19        0.000000975124    -0.000010484120    -0.000002821925
      20        0.000004695862     0.000000748328     0.000008866897

  **** Optimization is complete! (in 6 steps) ****
    Final optimized geometry and variables:
    Molecular point group: c1

    Geometry (in Angstrom), charge = 0, multiplicity = 1:

    O           -2.487215269441    -0.756677860180    -0.407108197023
    C           -1.973096243321     0.237280380588    -0.020393830244
    C           -2.677840342106     1.553000764868     0.154328606633
    O           -0.698104862374     0.319871076848     0.312277523657
    H           -2.200811609042     2.304897833004    -0.461031478097
    H           -3.713921136444     1.448225218287    -0.123699297790
    H           -2.598705441193     1.873288374396     1.185146500990
    C            0.097714984842    -0.858635323593     0.193384312647
    C            1.526795415383    -0.499274677628     0.583609246716
    H            0.035826334964    -1.187134277846    -0.834152730613
    H           -0.322088572557    -1.623420387676     0.828906117743
    C            2.434620038013    -0.210317329552    -0.609480727341
    H            1.949415925788    -1.326319157067     1.146203083174
    H            1.499223091725     0.349183782768     1.256626669071
    C            3.849892681609     0.178094503040    -0.197707812236
    H            2.471143141634    -1.089019718938    -1.246677406519
    H            2.000616011833     0.585429146648    -1.208450734909
    H            4.472098077470     0.367156411663    -1.064550227655
    H            4.319589771258    -0.610581161886     0.380877324185
    H            3.847478224350     1.076237103795     0.410621802939

  Mulliken Charges: (a.u.)
   Center  Symbol    Alpha    Beta     Spin     Total
       1     O     4.19773  4.19773  0.00000 -0.39545
       2     C     2.80882  2.80882  0.00000  0.38236
       3     C     3.13786  3.13786  0.00000 -0.27573
       4     O     4.15459  4.15459  0.00000 -0.30918
       5     H     0.44622  0.44622  0.00000  0.10756
       6     H     0.43813  0.43813  0.00000  0.12373
       7     H     0.44582  0.44582  0.00000  0.10835
       8     C     2.98684  2.98684  0.00000  0.02631
       9     C     3.08650  3.08650  0.00000 -0.17301
      10     H     0.45369  0.45369  0.00000  0.09261
      11     H     0.44644  0.44644  0.00000  0.10713
      12     C     3.08665  3.08665  0.00000 -0.17329
      13     H     0.45099  0.45099  0.00000  0.09802
      14     H     0.44830  0.44830  0.00000  0.10340
      15     C     3.15074  3.15074  0.00000 -0.30149
      16     H     0.45307  0.45307  0.00000  0.09386
      17     H     0.45157  0.45157  0.00000  0.09687
      18     H     0.44720  0.44720  0.00000  0.10560
      19     H     0.45495  0.45495  0.00000  0.09010
      20     H     0.45387  0.45387  0.00000  0.09226

   Total alpha = 32.00000, Total beta = 32.00000, Total charge = -0.00000

*** Psi4 exiting successfully. Buy a developer a beer!
