  ==> Input File <==

--------------------------------------------------------------------------
set {
	reference rhf
	basis cc-pvtz
}

set_num_threads( 4 )
memory 2 gb

molecule MOL {
0 1

H	 -2.498963	 -0.741158	 -0.729149
O	 -2.346257	 -0.289210	 0.080372
C	 -1.183935	 0.486039	 -0.009831
C	 0.062853	 -0.375310	 0.027457
H	 -1.178881	 1.094526	 -0.908634
H	 -1.184406	 1.155156	 0.838676
O	 1.171890	 0.462025	 0.046361
H	 0.090855	 -1.027582	 -0.846988
H	 0.038299	 -1.012365	 0.909008
C	 2.393906	 -0.196430	 0.112202
H	 2.542234	 -0.845909	 -0.747711
H	 3.172986	 0.551655	 0.121653
H	 2.473287	 -0.797281	 1.015085

	symmetry c1
}
set optking {
	frozen_dihedral = ("
		8 4 3 5
	")
}

ee = optimize('scf')
oeprop('DIPOLE', 'QUADRUPOLE', 'MULLIKEN_CHARGES')
f=open( 'psi4out.xyz', 'w' )
f.write( "13  " )
f.write( str(ee) + "\n" )
f.write( MOL.save_string_xyz() )
f.close()
--------------------------------------------------------------------------

    Molecular point group: c1
  Charge       = 0
  Multiplicity = 1
  Basis Set: CC-PVTZ
  Basis Set:
  @DF-RHF Final Energy:  -268.06222593529839
    Total Energy =                       -268.0622259352982724
    Molecular point group: c1
  Basis Set: CC-PVTZ
  Basis Set:
  Basis Set: CC-PVTZ
  Basis Set:
  @DF-RHF Final Energy:  -268.06223886008956
    Total Energy =                       -268.0622388600895079
  Basis Set: CC-PVTZ
  Basis Set:
  Charge       = 0
  Multiplicity = 1
  Basis Set: CC-PVTZ
  Basis Set:

    Orbital Energies (a.u.)
    -----------------------

    Doubly Occupied:

       1A    -20.555828     2A    -20.552773     3A    -11.269211
       4A    -11.267685     5A    -11.267567     6A     -1.391831
       7A     -1.369096     8A     -1.019720     9A     -0.913838
      10A     -0.842695    11A     -0.712194    12A     -0.675970
      13A     -0.663248    14A     -0.640204    15A     -0.595933
      16A     -0.571521    17A     -0.547553    18A     -0.491163
      19A     -0.483425    20A     -0.441726    21A     -0.424762

  @DF-RHF Final Energy:  -268.06224230662696

   => Energetics <=

    Nuclear Repulsion Energy =            190.4935690365528558
    One-Electron Energy =                -743.7157318591436024
    Two-Electron Energy =                 285.1599205159636199
    DFT Exchange-Correlation Energy =       0.0000000000000000
    Empirical Dispersion Energy =           0.0000000000000000
    PCM Polarization Energy =               0.0000000000000000
    EFP Energy =                            0.0000000000000000
    Total Energy =                       -268.0622423066270699
    Molecular point group: c1
  Basis Set: CC-PVTZ
  Basis Set:

  -Total Gradient:
     Atom            X                  Y                   Z
    ------   -----------------  -----------------  -----------------
       1        0.000016446736     0.000005796506     0.000005114940
       2        0.000077437464     0.000095793938     0.000013528990
       3        0.000608327715     0.000883576152     0.000451388679
       4       -0.000622820034    -0.000851553705     0.000520306990
       5       -0.000461956443    -0.000661722994    -0.000508189467
       6       -0.000013046292    -0.000030900426     0.000019428961
       7       -0.000100476582    -0.000092230646    -0.000005452992
       8        0.000467917704     0.000637849323    -0.000537293974
       9        0.000002727458     0.000005351280     0.000030851157
      10        0.000043617059     0.000000798568     0.000025263019
      11       -0.000012647587     0.000007188559    -0.000002714338
      12       -0.000001375224    -0.000002089600    -0.000006201419
      13       -0.000004151982     0.000002143045    -0.000006030547

  **** Optimization is complete! (in 3 steps) ****
    Final optimized geometry and variables:
    Molecular point group: c1

    Geometry (in Angstrom), charge = 0, multiplicity = 1:

    H           -2.494966452196    -0.736830285879    -0.786258105869
    O           -2.346312517990    -0.290833672196     0.027275221027
    C           -1.182946357528     0.484992393873    -0.050926804361
    C            0.062863265944    -0.377349526144    -0.004473571320
    H           -1.174610021660     1.091781205652    -0.950885348942
    H           -1.189245452766     1.151606388672     0.799252825822
    O            1.171879901316     0.460672363587     0.009346619215
    H            0.096223039621    -1.032810680847    -0.876362111376
    H            0.035733513317    -1.006315244192     0.882569362904
    C            2.394555964714    -0.197393765768     0.064803131278
    H            2.538080965834    -0.842879137547    -0.798941901884
    H            3.173327431351     0.551009202785     0.073027259732
    H            2.479624705496    -0.802376162786     0.964425839101

  Mulliken Charges: (a.u.)
   Center  Symbol    Alpha    Beta     Spin     Total
       1     H     0.39420  0.39420  0.00000  0.21161
       2     O     4.20196  4.20196  0.00000 -0.40393
       3     C     2.97350  2.97350  0.00000  0.05300
       4     C     2.96580  2.96580  0.00000  0.06841
       5     H     0.46674  0.46674  0.00000  0.06652
       6     H     0.45233  0.45233  0.00000  0.09534
       7     O     4.17542  4.17542  0.00000 -0.35084
       8     H     0.48192  0.48192  0.00000  0.03616
       9     H     0.46920  0.46920  0.00000  0.06160
      10     C     3.03182  3.03182  0.00000 -0.06364
      11     H     0.47130  0.47130  0.00000  0.05741
      12     H     0.44591  0.44591  0.00000  0.10817
      13     H     0.46990  0.46990  0.00000  0.06020

   Total alpha = 21.00000, Total beta = 21.00000, Total charge = -0.00000
