                              Psi4 1.0.54 Driver

  ==> Input File <==

--------------------------------------------------------------------------
set {
	reference rhf
	basis cc-pvtz
}

set_num_threads( 4 )
memory 2 gb

molecule MOL {
0 1

H	 -3.258660	 -0.290394	 1.471450
C	 -3.307964	 -0.275695	 0.374072
C	 -2.653809	 0.914422	 -0.273689
O	 -3.855140	 -1.148880	 -0.205112
C	 -1.135057	 0.935999	 -0.077210
H	 -2.920722	 0.925747	 -1.322480
H	 -3.086778	 1.797539	 0.191011
C	 -0.406325	 -0.188222	 -0.810188
H	 -0.758521	 1.893451	 -0.420497
H	 -0.908908	 0.886262	 0.985135
C	 1.106812	 -0.147173	 -0.613936
H	 -0.635261	 -0.126929	 -1.870820
H	 -0.784883	 -1.151010	 -0.476780
C	 1.834018	 -1.265585	 -1.357962
H	 1.477639	 0.819318	 -0.940627
H	 1.332894	 -0.218567	 0.447708
C	 3.345138	 -1.314689	 -1.125573
H	 1.639195	 -1.173007	 -2.423916
H	 1.408090	 -2.217947	 -1.054817
C	 4.115660	 -0.118509	 -1.679228
H	 3.732265	 -2.219374	 -1.583907
H	 3.541189	 -1.408134	 -0.060614
H	 3.933468	 0.003749	 -2.742174
H	 3.838400	 0.806283	 -1.187728
H	 5.182525	 -0.251914	 -1.541510

	symmetry c1
}
set optking {
	frozen_dihedral = ("
		6 3 2 4
	")
}

ee,wfn = optimize('scf', return_wfn=True)
oeprop( wfn, 'DIPOLE', 'QUADRUPOLE', 'MULLIKEN_CHARGES')
f=open( 'psi4out.xyz', 'w' )
f.write( "25  " )
f.write( str(ee) + "\n" )
f.write( MOL.save_string_xyz() )
f.close()
--------------------------------------------------------------------------

    Molecular point group: c1
  Charge       = 0
  Multiplicity = 1
  Basis Set: CC-PVTZ
  Basis Set:
  @DF-RHF Final Energy:  -387.26007558027771
    Total Energy =                       -387.2600755802779986
    Molecular point group: c1
  Basis Set: CC-PVTZ
  Basis Set:
  Basis Set: CC-PVTZ
  Basis Set:
  @DF-RHF Final Energy:  -387.25909107090882
    Total Energy =                       -387.2590910709087666
  Basis Set: CC-PVTZ
  Basis Set:
  Basis Set: CC-PVTZ
  Basis Set:
  @DF-RHF Final Energy:  -387.26011532614223
    Total Energy =                       -387.2601153261417721
  Basis Set: CC-PVTZ
  Basis Set:
  Basis Set: CC-PVTZ
  Basis Set:
  @DF-RHF Final Energy:  -387.26011899373219
    Total Energy =                       -387.2601189937319077
  Basis Set: CC-PVTZ
  Basis Set:
  Basis Set: CC-PVTZ
  Basis Set:
  @DF-RHF Final Energy:  -387.26013544435614
    Total Energy =                       -387.2601354443564787
  Basis Set: CC-PVTZ
  Basis Set:
  Basis Set: CC-PVTZ
  Basis Set:
  @DF-RHF Final Energy:  -387.26013716115631
    Total Energy =                       -387.2601371611561945
  Basis Set: CC-PVTZ
  Basis Set:
  Charge       = 0
  Multiplicity = 1
  Basis Set: CC-PVTZ
  Basis Set:

    Orbital Energies (a.u.)
    -----------------------

    Doubly Occupied:

       1A    -20.551772     2A    -11.320921     3A    -11.233861
       4A    -11.233263     5A    -11.219512     6A    -11.216408
       7A    -11.215309     8A    -11.213825     9A    -11.208101
      10A     -1.406605    11A     -1.104047    12A     -1.070035
      13A     -1.013889    14A     -0.943143    15A     -0.875546
      16A     -0.819358    17A     -0.787817    18A     -0.780361
      19A     -0.671060    20A     -0.663938    21A     -0.634588
      22A     -0.624177    23A     -0.599975    24A     -0.592805
      25A     -0.579594    26A     -0.550681    27A     -0.536592
      28A     -0.525377    29A     -0.509500    30A     -0.496806
      31A     -0.490999    32A     -0.478625    33A     -0.464008
      34A     -0.458284    35A     -0.441807    36A     -0.411756

  @DF-RHF Final Energy:  -387.26013726796776

   => Energetics <=

    Nuclear Repulsion Energy =            440.8164032607047034
    One-Electron Energy =               -1398.2643893168763043
    Two-Electron Energy =                 570.1878487882040645
    DFT Exchange-Correlation Energy =       0.0000000000000000
    Empirical Dispersion Energy =           0.0000000000000000
    PCM Polarization Energy =               0.0000000000000000
    EFP Energy =                            0.0000000000000000
    Total Energy =                       -387.2601372679675933
    Molecular point group: c1
  Basis Set: CC-PVTZ
  Basis Set:

  -Total Gradient:
     Atom            X                  Y                   Z
    ------   -----------------  -----------------  -----------------
       1       -0.000002820394    -0.000003634126     0.000009584333
       2       -0.001678257014     0.000967700165     0.000111889178
       3        0.001577735912    -0.001000347669    -0.000318012875
       4        0.001012389857    -0.000575865637    -0.000043720724
       5       -0.000015626440     0.000011734195    -0.000000141814
       6       -0.000895116685     0.000611258502     0.000239348140
       7        0.000001975382     0.000000711405    -0.000006635206
       8       -0.000000638749    -0.000011948383     0.000004417895
       9       -0.000002253635    -0.000001438529     0.000004057267
      10        0.000003216965    -0.000000658002    -0.000002526163
      11       -0.000000860135    -0.000000581983     0.000004575479
      12       -0.000001220376    -0.000000752864     0.000001756848
      13        0.000000415805     0.000001747275    -0.000000266711
      14        0.000001489347    -0.000000298186    -0.000003100342
      15        0.000005269545     0.000002188667     0.000001825617
      16       -0.000001813407    -0.000001913397     0.000000403875
      17       -0.000000330382     0.000000789305    -0.000005957313
      18       -0.000000215975    -0.000003509911    -0.000000977359
      19        0.000001309894     0.000002953509     0.000002289772
      20       -0.000000492706     0.000000336907     0.000000739403
      21        0.000000080556     0.000000282821    -0.000000661526
      22       -0.000001719416    -0.000000379098    -0.000000725180
      23       -0.000000158827    -0.000000309140     0.000000840180
      24       -0.000002927000     0.000001478990     0.000000815453
      25        0.000000567871     0.000000455184     0.000000181770

  **** Optimization is complete! (in 7 steps) ****
    Final optimized geometry and variables:
    Molecular point group: c1

    Geometry (in Angstrom), charge = 0, multiplicity = 1:

    H           -3.109250724677    -0.001565738799     2.157202710682
    C           -3.194427815742     0.011903792258     1.062142870753
    C           -2.558355608263     1.198865973131     0.392153561629
    O           -3.739036716599    -0.874749237406     0.500833383501
    C           -1.035230545245     1.218650492681     0.574553296664
    H           -2.833848588326     1.196126485331    -0.654490732029
    H           -2.980279169434     2.090510679493     0.848970216951
    C           -0.308779427718     0.103171865754    -0.173596642103
    H           -0.665764473328     2.180244242072     0.235227737637
    H           -0.799652825320     1.162321042150     1.634640251522
    C            1.205381511716     0.149902576769     0.014147561036
    H           -0.544263957302     0.174960437535    -1.232040270690
    H           -0.682131281610    -0.863318924449     0.151857473278
    C            1.932799583212    -0.957233084450    -0.746374600489
    H            1.570482101919     1.121459844954    -0.304106793364
    H            1.438410386790     0.067639758277     1.073558464560
    C            3.445206842746    -1.003514845596    -0.522226870420
    H            1.732285169237    -0.853065892332    -1.810202448418
    H            1.511654369353    -1.914433379109    -0.452133320440
    C            4.208441938395     0.202415431173    -1.064749522212
    H            3.833428477173    -1.900958634322    -0.993729329047
    H            3.646969207461    -1.109435476864     0.540499198924
    H            4.019709826997     0.337677106298    -2.124984441589
    H            3.930743667012     1.119833178759    -0.559836822188
    H            5.276567521896     0.071069446714    -0.934843860438

  Mulliken Charges: (a.u.)
   Center  Symbol    Alpha    Beta     Spin     Total
       1     H     0.46433  0.46433  0.00000  0.07135
       2     C     2.90408  2.90408  0.00000  0.19183
       3     C     3.08922  3.08922  0.00000 -0.17844
       4     O     4.16709  4.16709  0.00000 -0.33418
       5     C     3.11497  3.11497  0.00000 -0.22994
       6     H     0.44359  0.44359  0.00000  0.11282
       7     H     0.44131  0.44131  0.00000  0.11739
       8     C     3.08855  3.08855  0.00000 -0.17710
       9     H     0.44345  0.44345  0.00000  0.11311
      10     H     0.45012  0.45012  0.00000  0.09976
      11     C     3.09297  3.09297  0.00000 -0.18594
      12     H     0.45052  0.45052  0.00000  0.09896
      13     H     0.44610  0.44610  0.00000  0.10779
      14     C     3.09563  3.09563  0.00000 -0.19125
      15     H     0.45198  0.45198  0.00000  0.09604
      16     H     0.45453  0.45453  0.00000  0.09095
      17     C     3.09068  3.09068  0.00000 -0.18137
      18     H     0.45306  0.45306  0.00000  0.09388
      19     H     0.44759  0.44759  0.00000  0.10483
      20     C     3.15269  3.15269  0.00000 -0.30539
      21     H     0.44773  0.44773  0.00000  0.10453
      22     H     0.45478  0.45478  0.00000  0.09044
      23     H     0.45460  0.45460  0.00000  0.09080
      24     H     0.45444  0.45444  0.00000  0.09112
      25     H     0.44600  0.44600  0.00000  0.10801

   Total alpha = 36.00000, Total beta = 36.00000, Total charge = -0.00000

*** Psi4 exiting successfully. Buy a developer a beer!
