  ==> Input File <==

--------------------------------------------------------------------------
set {
	reference rhf
	basis 6-31G*
}

set_num_threads( 1 )
memory 2 gb

molecule MOL {
0 1

H	 2.176868	 -0.646004	 -0.217325
O	 1.337496	 -0.537251	 0.205931
C	 0.702312	 0.627605	 -0.264544
C	 -0.714990	 0.596302	 0.266387
H	 0.682322	 0.642550	 -1.350929
H	 1.215941	 1.520383	 0.085680
O	 -1.405996	 -0.526611	 -0.195820
H	 -1.257453	 1.468809	 -0.075599
H	 -0.688972	 0.618407	 1.353696
H	 -2.142534	 -0.671418	 0.384316

	symmetry c1
}
set optking {
	frozen_dihedral = ("
		5 3 4 7
	")
}

ee = energy('scf')
oeprop('DIPOLE', 'QUADRUPOLE', 'MULLIKEN_CHARGES')
f=open( 'psi4out.xyz', 'w' )
f.write( "10  " )
f.write( str(ee) + "\n" )
f.write( MOL.save_string_xyz() )
f.close()
--------------------------------------------------------------------------

    Molecular point group: c1

    Geometry (in Angstrom), charge = 0, multiplicity = 1:

       Center              X                  Y                   Z               Mass
    ------------   -----------------  -----------------  -----------------  -----------------
           H          2.197206319744    -0.656097654628    -0.223210006137     1.007825032070
           O          1.357834319744    -0.547344654628     0.200045993863    15.994914619560
           C          0.722650319744     0.617511345372    -0.270429006137    12.000000000000
           C         -0.694651680256     0.586208345372     0.260501993863    12.000000000000
           H          0.702660319744     0.632456345372    -1.356814006137     1.007825032070
           H          1.236279319744     1.510289345372     0.079794993863     1.007825032070
           O         -1.385657680256    -0.536704654628    -0.201705006137    15.994914619560
           H         -1.237114680256     1.458715345372    -0.081484006137     1.007825032070
           H         -0.668633680256     0.608313345372     1.347810993863     1.007825032070
           H         -2.122195680256    -0.681511654628     0.378430993863     1.007825032070

  Charge       = 0
  Multiplicity = 1
  Basis Set: 6-31G*
  Basis Set:

    Orbital Energies (a.u.)
    -----------------------

    Doubly Occupied:

       1A    -20.551201     2A    -20.549975     3A    -11.272215
       4A    -11.268756     5A     -1.369840     6A     -1.347362
       7A     -1.000062     8A     -0.830925     9A     -0.711914
      10A     -0.705873    11A     -0.609155    12A     -0.601655
      13A     -0.588949    14A     -0.522508    15A     -0.473377
      16A     -0.441298    17A     -0.435619

  @DF-RHF Final Energy:  -228.91732169630873

   => Energetics <=

    Nuclear Repulsion Energy =            133.7269387321379952
    One-Electron Energy =                -578.7271617904073082
    Two-Electron Energy =                 216.0829013619607508
    DFT Exchange-Correlation Energy =       0.0000000000000000
    Empirical Dispersion Energy =           0.0000000000000000
    PCM Polarization Energy =               0.0000000000000000
    EFP Energy =                            0.0000000000000000
    Total Energy =                       -228.9173216963085338

  Mulliken Charges: (a.u.)
   Center  Symbol    Alpha    Beta     Spin     Total
       1     H     0.28039  0.28039  0.00000  0.43921
       2     O     4.36606  4.36606  0.00000 -0.73212
       3     C     3.00255  3.00255  0.00000 -0.00510
       4     C     2.99970  2.99970  0.00000  0.00059
       5     H     0.42333  0.42333  0.00000  0.15334
       6     H     0.42909  0.42909  0.00000  0.14181
       7     O     4.36346  4.36346  0.00000 -0.72692
       8     H     0.43047  0.43047  0.00000  0.13906
       9     H     0.42525  0.42525  0.00000  0.14951
      10     H     0.27969  0.27969  0.00000  0.44062

   Total alpha = 17.00000, Total beta = 17.00000, Total charge =  0.00000
