  ==> Input File <==

--------------------------------------------------------------------------
set {
	reference rhf
	basis 6-31G*
}

set_num_threads( 4 )
memory 2 gb

molecule MOL {
0 1

H	 -3.420663	 1.227371	 -1.044276
O	 -3.452007	 0.283848	 -0.965577
C	 -3.181085	 -0.079926	 0.364119
C	 -1.765924	 0.277073	 0.805136
H	 -3.327791	 -1.152017	 0.410903
H	 -3.905698	 0.375695	 1.036898
C	 -1.020921	 1.164215	 -0.193096
H	 -1.811189	 0.773098	 1.775122
H	 -1.213278	 -0.647462	 0.963370
C	 0.389658	 1.535004	 0.269465
H	 -1.598379	 2.066778	 -0.368112
H	 -0.962809	 0.648872	 -1.150404
C	 1.131256	 2.418176	 -0.737572
H	 0.325366	 2.040351	 1.230147
H	 0.965301	 0.626168	 0.440515
C	 2.580976	 2.743608	 -0.360001
H	 0.579846	 3.346898	 -0.875843
H	 1.130480	 1.919262	 -1.704475
C	 2.732953	 3.609798	 0.891807
H	 3.047727	 3.256991	 -1.197182
H	 3.134727	 1.816328	 -0.226903
H	 2.178783	 4.539400	 0.792430
H	 3.774954	 3.863965	 1.060536
H	 2.373952	 3.104155	 1.782092

	symmetry c1
}
set optking {
	frozen_dihedral = ("
		7 4 3 2
	")
}

ee = optimize('scf')
oeprop('DIPOLE', 'QUADRUPOLE', 'MULLIKEN_CHARGES')
f=open( 'psi4out.xyz', 'w' )
f.write( "24  " )
f.write( str(ee) + "\n" )
f.write( MOL.save_string_xyz() )
f.close()
--------------------------------------------------------------------------

    Molecular point group: c1
  Charge       = 0
  Multiplicity = 1
  Basis Set: 6-31G*
  Basis Set:
  @DF-RHF Final Energy:  -349.23814379733705
    Total Energy =                       -349.2381437973367042
    Molecular point group: c1
  Basis Set: 6-31G*
  Basis Set:
  Basis Set: 6-31G*
  Basis Set:
  @DF-RHF Final Energy:  -349.23862783275189
    Total Energy =                       -349.2386278327514333
  Basis Set: 6-31G*
  Basis Set:
  Basis Set: 6-31G*
  Basis Set:
  @DF-RHF Final Energy:  -349.23964724695509
    Total Energy =                       -349.2396472469554851
  Basis Set: 6-31G*
  Basis Set:
  Basis Set: 6-31G*
  Basis Set:
  @DF-RHF Final Energy:  -349.23967389167854
    Total Energy =                       -349.2396738916784784
  Basis Set: 6-31G*
  Basis Set:
  Basis Set: 6-31G*
  Basis Set:
  @DF-RHF Final Energy:  -349.23968013303084
    Total Energy =                       -349.2396801330309017
  Basis Set: 6-31G*
  Basis Set:
  Basis Set: 6-31G*
  Basis Set:
  @DF-RHF Final Energy:  -349.23968366774727
    Total Energy =                       -349.2396836677474994
  Basis Set: 6-31G*
  Basis Set:
  Charge       = 0
  Multiplicity = 1
  Basis Set: 6-31G*
  Basis Set:

    Orbital Energies (a.u.)
    -----------------------

    Doubly Occupied:

       1A    -20.552527     2A    -11.267944     3A    -11.216634
       4A    -11.216042     5A    -11.215344     6A    -11.214206
       7A    -11.213436     8A    -11.208475     9A     -1.359218
      10A     -1.089562    11A     -1.046490    12A     -0.984364
      13A     -0.918581    14A     -0.853539    15A     -0.793754
      16A     -0.778333    17A     -0.690949    18A     -0.648275
      19A     -0.625140    20A     -0.610429    21A     -0.603724
      22A     -0.587151    23A     -0.558305    24A     -0.542823
      25A     -0.517526    26A     -0.511152    27A     -0.494826
      28A     -0.482219    29A     -0.463310    30A     -0.458833
      31A     -0.454174    32A     -0.446542    33A     -0.421185

  @DF-RHF Final Energy:  -349.23968371370233

   => Energetics <=

    Nuclear Repulsion Energy =            385.1926934721191174
    One-Electron Energy =               -1236.7747309552910338
    Two-Electron Energy =                 502.3423537694692982
    DFT Exchange-Correlation Energy =       0.0000000000000000
    Empirical Dispersion Energy =           0.0000000000000000
    PCM Polarization Energy =               0.0000000000000000
    EFP Energy =                            0.0000000000000000
    Total Energy =                       -349.2396837137026182
    Molecular point group: c1
  Basis Set: 6-31G*
  Basis Set:

  -Total Gradient:
     Atom            X                  Y                   Z
    ------   -----------------  -----------------  -----------------
       1        0.000002890092    -0.000004120203     0.000013483249
       2       -0.000717609756     0.001831594288     0.000595062806
       3        0.001314279657    -0.003195433559    -0.001155669075
       4       -0.001297733392     0.002921865939     0.001397705830
       5       -0.000005139791     0.000000187686    -0.000017349129
       6       -0.000002343036     0.000001809927    -0.000004921261
       7        0.000703598610    -0.001546693913    -0.000824429507
       8       -0.000000750799     0.000004733094     0.000000942850
       9       -0.000003125265    -0.000001306118     0.000000752936
      10       -0.000000330807    -0.000006277081    -0.000009638574
      11        0.000008265144    -0.000005200164    -0.000003803046
      12       -0.000011373857    -0.000008500954    -0.000001447088
      13       -0.000002571869     0.000008871180     0.000010535861
      14       -0.000015901074    -0.000013280745    -0.000011314833
      15        0.000012551840     0.000002242543    -0.000001420289
      16       -0.000000170315    -0.000014125063     0.000010017287
      17       -0.000004295867     0.000001271067     0.000012681879
      18        0.000002909000     0.000012125386    -0.000004692680
      19        0.000007404009     0.000008914778    -0.000002136336
      20        0.000001386568    -0.000009230022    -0.000006121958
      21       -0.000002845150    -0.000002079576     0.000010938956
      22       -0.000003897929     0.000003131515     0.000002708649
      23       -0.000001072898     0.000003075655    -0.000004597628
      24        0.000015876887     0.000006424342    -0.000007288900

  **** Optimization is complete! (in 7 steps) ****
    Final optimized geometry and variables:
    Molecular point group: c1

    Geometry (in Angstrom), charge = 0, multiplicity = 1:

    H           -3.222184303455    -0.359014799564    -1.076100181056
    O           -3.144605469353    -1.295441835596    -0.965914019936
    C           -2.814248052046    -1.587881411189     0.367945034476
    C           -1.386858273762    -1.163703421391     0.796278700061
    H           -2.926792161656    -2.658814437987     0.462124967887
    H           -3.547642330627    -1.134340682840     1.030951192099
    C           -0.639555608271    -0.283159644104    -0.209172884740
    H           -1.439790955549    -0.650928675565     1.753473948618
    H           -0.789707062545    -2.055434818018     0.968634877888
    C            0.771540584907     0.073817983941     0.263258079908
    H           -1.193021936040     0.639773829076    -0.381794907498
    H           -0.588415703229    -0.792471826798    -1.165433798650
    C            1.524673145702     0.958127139245    -0.734267452638
    H            0.709351179558     0.570433893084     1.228277831833
    H            1.336876808307    -0.842489090338     0.426567388527
    C            2.977911598306     1.261349438707    -0.351744025746
    H            0.985963745303     1.895849767065    -0.863208781805
    H            1.518521194641     0.469231303388    -1.706196917942
    C            3.139160488098     2.115589851213     0.907063685130
    H            3.452822319007     1.774778158980    -1.184205846868
    H            3.518693152575     0.325659369336    -0.225067016482
    H            2.597578991138     3.053290663849     0.814252527759
    H            4.184131356151     2.354659951242     1.079203351593
    H            2.772165963632     1.607770594589     1.792782814799

  Mulliken Charges: (a.u.)
   Center  Symbol    Alpha    Beta     Spin     Total
       1     H     0.28069  0.28069  0.00000  0.43861
       2     O     4.36902  4.36902  0.00000 -0.73804
       3     C     2.99469  2.99469  0.00000  0.01062
       4     C     3.17904  3.17904  0.00000 -0.35807
       5     H     0.41375  0.41375  0.00000  0.17250
       6     H     0.42955  0.42955  0.00000  0.14091
       7     C     3.15330  3.15330  0.00000 -0.30659
       8     H     0.42103  0.42103  0.00000  0.15793
       9     H     0.41787  0.41787  0.00000  0.16426
      10     C     3.15430  3.15430  0.00000 -0.30860
      11     H     0.43338  0.43338  0.00000  0.13324
      12     H     0.40910  0.40910  0.00000  0.18179
      13     C     3.15251  3.15251  0.00000 -0.30502
      14     H     0.42240  0.42240  0.00000  0.15520
      15     H     0.42327  0.42327  0.00000  0.15347
      16     C     3.15238  3.15238  0.00000 -0.30477
      17     H     0.42524  0.42524  0.00000  0.14952
      18     H     0.42127  0.42127  0.00000  0.15746
      19     C     3.24113  3.24113  0.00000 -0.48227
      20     H     0.42093  0.42093  0.00000  0.15814
      21     H     0.42310  0.42310  0.00000  0.15380
      22     H     0.42266  0.42266  0.00000  0.15468
      23     H     0.41919  0.41919  0.00000  0.16161
      24     H     0.42020  0.42020  0.00000  0.15960

   Total alpha = 33.00000, Total beta = 33.00000, Total charge =  0.00000
