  ==> Input File <==

--------------------------------------------------------------------------
set {
	reference rhf
	basis 6-31G*
}

set_num_threads( 1 )
memory 2 gb

molecule MOL {
0 1

H	 -3.892951	 0.981613	 -0.358725
C	 -3.196921	 0.361773	 0.172313
C	 -2.076860	 -0.007332	 -0.404944
H	 -3.439953	 0.057760	 1.173024
O	 -1.479270	 -1.195124	 -0.124057
H	 -1.578194	 0.594521	 -1.144066
C	 -0.214717	 -1.432425	 -0.640239
C	 0.869261	 -0.889550	 0.263404
H	 -0.082927	 -0.997348	 -1.624634
H	 -0.082754	 -2.502103	 -0.709962
F	 2.056320	 -1.172637	 -0.252890
F	 0.789731	 0.424747	 0.390400
F	 0.816041	 -1.413754	 1.470370

	symmetry c1
}
set optking {
	frozen_dihedral = ("
		11 8 7 9,
		3 5 7 9,
		6 3 5 7
	")
}

ee = energy('scf')
oeprop('DIPOLE', 'QUADRUPOLE', 'MULLIKEN_CHARGES')
f=open( 'psi4out.xyz', 'w' )
f.write( "13  " )
f.write( str(ee) + "\n" )
f.write( MOL.save_string_xyz() )
f.close()
--------------------------------------------------------------------------

    Molecular point group: c1

    Geometry (in Angstrom), charge = 0, multiplicity = 1:

       Center              X                  Y                   Z               Mass
    ------------   -----------------  -----------------  -----------------  -----------------
           H         -3.744846127061     1.661409587653    -0.506024676921     1.007825032070
           C         -3.048816127061     1.041569587653     0.025013323079    12.000000000000
           C         -1.928755127061     0.672464587653    -0.552243676921    12.000000000000
           H         -3.291848127061     0.737556587653     1.025724323079     1.007825032070
           O         -1.331165127061    -0.515327412347    -0.271356676921    15.994914619560
           H         -1.430089127061     1.274317587653    -1.291365676921     1.007825032070
           C         -0.066612127061    -0.752628412347    -0.787538676921    12.000000000000
           C          1.017365872939    -0.209753412347     0.116104323079    12.000000000000
           H          0.065177872939    -0.317551412347    -1.771933676921     1.007825032070
           H          0.065350872939    -1.822306412347    -0.857261676921     1.007825032070
           F          2.204424872939    -0.492840412347    -0.400189676921    18.998403224000
           F          0.937835872939     1.104543587653     0.243100323079    18.998403224000
           F          0.964145872939    -0.733957412347     1.323070323079    18.998403224000

  Charge       = 0
  Multiplicity = 1
  Basis Set: 6-31G*
  Basis Set:

    Orbital Energies (a.u.)
    -----------------------

    Doubly Occupied:

       1A    -26.345623     2A    -26.345287     3A    -26.341801
       4A    -20.612108     5A    -11.504219     6A    -11.319056
       7A    -11.302911     8A    -11.213084     9A     -1.743005
      10A     -1.641085    11A     -1.639582    12A     -1.440628
      13A     -1.085067    14A     -1.016990    15A     -0.926413
      16A     -0.837748    17A     -0.832260    18A     -0.822116
      19A     -0.792751    20A     -0.722350    21A     -0.712454
      22A     -0.696248    23A     -0.676637    24A     -0.661669
      25A     -0.655858    26A     -0.644397    27A     -0.637343
      28A     -0.584235    29A     -0.571135    30A     -0.523489
      31A     -0.511242    32A     -0.339203

  @DF-RHF Final Energy:  -527.51657611047153

   => Energetics <=

    Nuclear Repulsion Energy =            413.5344535024703987
    One-Electron Energy =               -1550.7059490564943189
    Two-Electron Energy =                 609.6549194435532399
    DFT Exchange-Correlation Energy =       0.0000000000000000
    Empirical Dispersion Energy =           0.0000000000000000
    PCM Polarization Energy =               0.0000000000000000
    EFP Energy =                            0.0000000000000000
    Total Energy =                       -527.5165761104707371

  Mulliken Charges: (a.u.)
   Center  Symbol    Alpha    Beta     Spin     Total
       1     H     0.40626  0.40626  0.00000  0.18749
       2     C     3.24045  3.24045  0.00000 -0.48090
       3     C     2.89698  2.89698  0.00000  0.20605
       4     H     0.40223  0.40223  0.00000  0.19554
       5     O     4.29445  4.29445  0.00000 -0.58891
       6     H     0.40714  0.40714  0.00000  0.18572
       7     C     3.06494  3.06494  0.00000 -0.12988
       8     C     2.45630  2.45630  0.00000  1.08740
       9     H     0.40514  0.40514  0.00000  0.18972
      10     H     0.38922  0.38922  0.00000  0.22156
      11     F     4.68271  4.68271  0.00000 -0.36542
      12     F     4.67976  4.67976  0.00000 -0.35953
      13     F     4.67442  4.67442  0.00000 -0.34885

   Total alpha = 32.00000, Total beta = 32.00000, Total charge =  0.00000
