  ==> Input File <==

--------------------------------------------------------------------------
set {
	reference rhf
	basis 6-31G*
}

set_num_threads( 4 )
memory 2 gb

molecule MOL {
0 1

H	 2.946660	 -0.859950	 -1.510857
C	 2.230078	 -1.083299	 -0.728838
C	 1.322923	 0.120767	 -0.479465
H	 1.658641	 -1.951812	 -1.041118
H	 2.786757	 -1.350189	 0.164175
C	 0.306652	 -0.176050	 0.621399
H	 0.789971	 0.380783	 -1.388190
H	 1.912321	 0.982272	 -0.188464
N	 -1.068537	 -0.011044	 0.085269
H	 0.372515	 -1.192590	 0.973735
H	 0.391664	 0.520566	 1.441230
O	 -1.656956	 -0.997225	 -0.235017
O	 -1.478635	 1.104830	 -0.018026

	symmetry c1
}
set optking {
	frozen_dihedral = ("
		7 3 6 9
	")
}

ee = optimize('scf')
oeprop('DIPOLE', 'QUADRUPOLE', 'MULLIKEN_CHARGES')
f=open( 'psi4out.xyz', 'w' )
f.write( "13  " )
f.write( str(ee) + "\n" )
f.write( MOL.save_string_xyz() )
f.close()
--------------------------------------------------------------------------

    Molecular point group: c1
  Charge       = 0
  Multiplicity = 1
  Basis Set: 6-31G*
  Basis Set:
  @DF-RHF Final Energy:  -321.72948894868983
    Total Energy =                       -321.7294889486896636
    Molecular point group: c1
  Basis Set: 6-31G*
  Basis Set:
  Basis Set: 6-31G*
  Basis Set:
  @DF-RHF Final Energy:  -321.72376304073936
    Total Energy =                       -321.7237630407391862
  Basis Set: 6-31G*
  Basis Set:
  Basis Set: 6-31G*
  Basis Set:
  @DF-RHF Final Energy:  -321.72356437047358
    Total Energy =                       -321.7235643704736390
  Basis Set: 6-31G*
  Basis Set:
  Basis Set: 6-31G*
  Basis Set:
  @DF-RHF Final Energy:  -321.72980155729243
    Total Energy =                       -321.7298015572926602
  Basis Set: 6-31G*
  Basis Set:
  @DF-RHF Final Energy:  -321.72990046339407
    Total Energy =                       -321.7299004633940740
  @DF-RHF Final Energy:  -321.72995672753268
    Total Energy =                       -321.7299567275327945
  @DF-RHF Final Energy:  -321.72996221390986
    Total Energy =                       -321.7299622139095163
  @DF-RHF Final Energy:  -321.72996325509706
    Total Energy =                       -321.7299632550971182
  @DF-RHF Final Energy:  -321.72996590098160
    Total Energy =                       -321.7299659009818242
  @DF-RHF Final Energy:  -321.72997400260107
    Total Energy =                       -321.7299740026012387
  @DF-RHF Final Energy:  -321.72995688790127
    Total Energy =                       -321.7299568879012099
  @DF-RHF Final Energy:  -321.73001706764535
    Total Energy =                       -321.7300170676452353
  @DF-RHF Final Energy:  -321.73003547137034
    Total Energy =                       -321.7300354713703427
  @DF-RHF Final Energy:  -321.73005171135173
    Total Energy =                       -321.7300517113516207
  @DF-RHF Final Energy:  -321.73006181014370
    Total Energy =                       -321.7300618101435248
  @DF-RHF Final Energy:  -321.73007205657359
    Total Energy =                       -321.7300720565735901
  @DF-RHF Final Energy:  -321.73008226464697
    Total Energy =                       -321.7300822646470237
  @DF-RHF Final Energy:  -321.73009232790105
    Total Energy =                       -321.7300923279010476
  @DF-RHF Final Energy:  -321.73010238417129
    Total Energy =                       -321.7301023841714027
  @DF-RHF Final Energy:  -321.73011228290295
    Total Energy =                       -321.7301122829028373
  @DF-RHF Final Energy:  -321.73013990587793
    Total Energy =                       -321.7301399058777633
  @DF-RHF Final Energy:  -321.73018446365165
    Total Energy =                       -321.7301844636516535
  Basis Set: 6-31G*
  Basis Set:
  @DF-RHF Final Energy:  -321.73020439004631
    Total Energy =                       -321.7302043900464241
  Basis Set: 6-31G*
  Basis Set:
  Basis Set: 6-31G*
  Basis Set:
  @DF-RHF Final Energy:  -321.73020787163262
    Total Energy =                       -321.7302078716326150
  Basis Set: 6-31G*
  Basis Set:
  Basis Set: 6-31G*
  Basis Set:
  @DF-RHF Final Energy:  -321.73020812824063
    Total Energy =                       -321.7302081282406334
  Basis Set: 6-31G*
  Basis Set:
  Charge       = 0
  Multiplicity = 1
  Basis Set: 6-31G*
  Basis Set:

    Orbital Energies (a.u.)
    -----------------------

    Doubly Occupied:

       1A    -20.603942     2A    -20.598714     3A    -15.847928
       4A    -11.300054     5A    -11.254393     6A    -11.234143
       7A     -1.631402     8A     -1.416830     9A     -1.130769
      10A     -1.026099    11A     -0.885088    12A     -0.830289
      13A     -0.761126    14A     -0.735037    15A     -0.723000
      16A     -0.659142    17A     -0.612780    18A     -0.587025
      19A     -0.541735    20A     -0.518494    21A     -0.511644
      22A     -0.482956    23A     -0.474078    24A     -0.448684

  @DF-RHF Final Energy:  -321.73020852800676

   => Energetics <=

    Nuclear Repulsion Energy =            248.2869082604103994
    One-Electron Energy =                -930.4035330787106659
    Two-Electron Energy =                 360.3864162902934254
    DFT Exchange-Correlation Energy =       0.0000000000000000
    Empirical Dispersion Energy =           0.0000000000000000
    PCM Polarization Energy =               0.0000000000000000
    EFP Energy =                            0.0000000000000000
    Total Energy =                       -321.7302085280068127
    Molecular point group: c1
  Basis Set: 6-31G*
  Basis Set:

  -Total Gradient:
     Atom            X                  Y                   Z
    ------   -----------------  -----------------  -----------------
       1       -0.000001089281    -0.000002881898     0.000002080981
       2        0.000000250828     0.000002564786    -0.000005986683
       3        0.000002139701     0.000087723519     0.000025285633
       4        0.000000592585    -0.000001570395     0.000000796380
       5        0.000000720604     0.000000300049     0.000000465712
       6       -0.000026653765    -0.000064410280    -0.000014504719
       7       -0.000002056132    -0.000061792706    -0.000017137234
       8        0.000000029299     0.000008776355    -0.000003072921
       9        0.000012519446     0.000032776499     0.000026913043
      10       -0.000005779785     0.000002572136    -0.000001008116
      11        0.000001850250    -0.000002629642     0.000001741994
      12       -0.000000431297    -0.000006757285    -0.000018615097
      13        0.000017907545     0.000005328860     0.000003041027

  **** Optimization is complete! (in 26 steps) ****
    Final optimized geometry and variables:
    Molecular point group: c1

    Geometry (in Angstrom), charge = 0, multiplicity = 1:

    H            3.067165242681    -0.803035724662    -1.379384623121
    C            2.348287177784    -0.967309032878    -0.584384413716
    C            1.433014494868     0.246385444687    -0.428829950810
    H            1.772274268218    -1.853298048396    -0.829527158955
    H            2.903279628089    -1.165092855523     0.328095970782
    C            0.411418555100     0.078490538339     0.710514518374
    H            0.905961266898     0.417260019998    -1.358105280318
    H            2.024773990365     1.133348619255    -0.233036254108
    N           -0.989440662826     0.196643082166     0.220288856710
    H            0.456550749411    -0.910247675655     1.145645116084
    H            0.509293714721     0.817643536381     1.486944567688
    O           -1.315534043497    -0.534124856699    -0.665864881491
    O           -1.697161541413     0.992864720162     0.752993369817

  Mulliken Charges: (a.u.)
   Center  Symbol    Alpha    Beta     Spin     Total
       1     H     0.41083  0.41083  0.00000  0.17834
       2     C     3.24760  3.24760  0.00000 -0.49519
       3     C     3.17310  3.17310  0.00000 -0.34620
       4     H     0.40832  0.40832  0.00000  0.18336
       5     H     0.41842  0.41842  0.00000  0.16316
       6     C     3.09104  3.09104  0.00000 -0.18209
       7     H     0.39174  0.39174  0.00000  0.21652
       8     H     0.40734  0.40734  0.00000  0.18532
       9     N     3.22466  3.22466  0.00000  0.55069
      10     H     0.38559  0.38559  0.00000  0.22882
      11     H     0.38323  0.38323  0.00000  0.23354
      12     O     4.23171  4.23171  0.00000 -0.46341
      13     O     4.22642  4.22642  0.00000 -0.45284

   Total alpha = 24.00000, Total beta = 24.00000, Total charge = -0.00000
