  ==> Input File <==

--------------------------------------------------------------------------
set {
	reference rhf
	basis 6-31G*
}

set_num_threads( 4 )
memory 2 gb

molecule MOL {
0 1

H	 -1.796418	 -1.068983	 0.517315
O	 -1.422729	 -0.573567	 -0.196946
C	 -0.731407	 0.539437	 0.309156
C	 0.680193	 0.672443	 -0.251532
H	 -1.319765	 1.404033	 0.030086
H	 -0.700012	 0.506517	 1.397677
C	 1.599139	 -0.492137	 0.118598
H	 0.616402	 0.758534	 -1.332349
H	 1.107032	 1.602637	 0.117369
H	 1.239738	 -1.428634	 -0.297334
H	 2.601428	 -0.335055	 -0.265730
H	 1.674954	 -0.608418	 1.197020

	symmetry c1
}
set optking {
	frozen_dihedral = ("
		1 2 3 4
	")
}

ee = optimize('scf')
oeprop('DIPOLE', 'QUADRUPOLE', 'MULLIKEN_CHARGES')
f=open( 'psi4out.xyz', 'w' )
f.write( "12  " )
f.write( str(ee) + "\n" )
f.write( MOL.save_string_xyz() )
f.close()
--------------------------------------------------------------------------

    Molecular point group: c1
  Charge       = 0
  Multiplicity = 1
  Basis Set: 6-31G*
  Basis Set:
  @DF-RHF Final Energy:  -193.10803735305970
    Total Energy =                       -193.1080373530597569
    Molecular point group: c1
  Basis Set: 6-31G*
  Basis Set:
  Basis Set: 6-31G*
  Basis Set:
  @DF-RHF Final Energy:  -193.10881062297531
    Total Energy =                       -193.1088106229752839
  Basis Set: 6-31G*
  Basis Set:
  Basis Set: 6-31G*
  Basis Set:
  @DF-RHF Final Energy:  -193.10897292810773
    Total Energy =                       -193.1089729281076757
  Basis Set: 6-31G*
  Basis Set:
  Basis Set: 6-31G*
  Basis Set:
  @DF-RHF Final Energy:  -193.10898826780161
    Total Energy =                       -193.1089882678015215
  Basis Set: 6-31G*
  Basis Set:
  Basis Set: 6-31G*
  Basis Set:
  @DF-RHF Final Energy:  -193.10899464184894
    Total Energy =                       -193.1089946418489944
  Basis Set: 6-31G*
  Basis Set:
  Charge       = 0
  Multiplicity = 1
  Basis Set: 6-31G*
  Basis Set:

    Orbital Energies (a.u.)
    -----------------------

    Doubly Occupied:

       1A    -20.552296     2A    -11.268639     3A    -11.214032
       4A    -11.206097     5A     -1.358652     6A     -1.047071
       7A     -0.920484     8A     -0.800025     9A     -0.705233
      10A     -0.638031    11A     -0.592173    12A     -0.581887
      13A     -0.522512    14A     -0.508222    15A     -0.486585
      16A     -0.466709    17A     -0.429269

  @DF-RHF Final Energy:  -193.10899505500996

   => Energetics <=

    Nuclear Repulsion Energy =            133.1623165876028736
    One-Electron Energy =                -525.9467908566864480
    Two-Electron Energy =                 199.6754792140735617
    DFT Exchange-Correlation Energy =       0.0000000000000000
    Empirical Dispersion Energy =           0.0000000000000000
    PCM Polarization Energy =               0.0000000000000000
    EFP Energy =                            0.0000000000000000
    Total Energy =                       -193.1089950550100411
    Molecular point group: c1
  Basis Set: 6-31G*
  Basis Set:

  -Total Gradient:
     Atom            X                  Y                   Z
    ------   -----------------  -----------------  -----------------
       1        0.000714243193    -0.000420802074     0.000050935439
       2       -0.000783344029     0.000466201400     0.000104619902
       3       -0.000129689022     0.000286215981    -0.000528990607
       4        0.000218285469    -0.000348571040     0.000414613527
       5       -0.000035800672     0.000006678127     0.000007100751
       6       -0.000000333601    -0.000019408828    -0.000017538217
       7        0.000019710411    -0.000010582687    -0.000025220069
       8       -0.000008765977    -0.000022860833     0.000022107831
       9        0.000016999322     0.000038682307    -0.000020165695
      10       -0.000002111715     0.000011176021    -0.000015311712
      11        0.000011607113     0.000005265090     0.000014118556
      12       -0.000020800490     0.000008006538    -0.000006269705

  **** Optimization is complete! (in 6 steps) ****
    Final optimized geometry and variables:
    Molecular point group: c1

    Geometry (in Angstrom), charge = 0, multiplicity = 1:

    H           -1.748291109735    -1.111449123031     0.455303141507
    O           -1.371493945847    -0.583332723151    -0.231044331843
    C           -0.726849807076     0.544008009476     0.315159883678
    C            0.679042947841     0.668659991317    -0.252070891589
    H           -1.305008611505     1.431951801188     0.075901100331
    H           -0.680245667662     0.470389714770     1.399651795332
    C            1.587152642079    -0.498299112098     0.129404305210
    H            0.606125851318     0.738939005390    -1.333656547956
    H            1.108112714015     1.605829898820     0.096715753185
    H            1.179199252310    -1.435423558608    -0.230569389369
    H            2.577924094509    -0.377201032035    -0.296987518287
    H            1.700061144691    -0.570991050618     1.208498162656

  Mulliken Charges: (a.u.)
   Center  Symbol    Alpha    Beta     Spin     Total
       1     H     0.27908  0.27908  0.00000  0.44183
       2     O     4.37192  4.37192  0.00000 -0.74385
       3     C     2.99797  2.99797  0.00000  0.00406
       4     C     3.15642  3.15642  0.00000 -0.31284
       5     H     0.42259  0.42259  0.00000  0.15481
       6     H     0.43301  0.43301  0.00000  0.13399
       7     C     3.24402  3.24402  0.00000 -0.48805
       8     H     0.41412  0.41412  0.00000  0.17175
       9     H     0.42478  0.42478  0.00000  0.15044
      10     H     0.41030  0.41030  0.00000  0.17939
      11     H     0.41902  0.41902  0.00000  0.16195
      12     H     0.42675  0.42675  0.00000  0.14650

   Total alpha = 17.00000, Total beta = 17.00000, Total charge =  0.00000
