  ==> Input File <==

--------------------------------------------------------------------------
set {
	reference rhf
	basis 6-31G*
}

set_num_threads( 4 )
memory 2 gb

molecule MOL {
0 1

H	 2.598167	 -0.560780	 -0.467313
O	 1.654024	 -0.625927	 -0.460906
C	 1.135793	 0.118896	 0.612333
C	 0.031547	 1.023609	 0.088541
H	 1.915668	 0.729681	 1.063582
H	 0.754543	 -0.542641	 1.387006
C	 -1.134819	 0.293262	 -0.585751
H	 0.474374	 1.714721	 -0.623187
H	 -0.338529	 1.620940	 0.920081
C	 -1.917817	 -0.639439	 0.339494
H	 -0.758119	 -0.268455	 -1.433105
H	 -1.813832	 1.041889	 -0.986690
H	 -2.777680	 -1.057197	 -0.174994
H	 -1.310268	 -1.471279	 0.680599
H	 -2.283753	 -0.111424	 1.216626

	symmetry c1
}
set optking {
	frozen_dihedral = ("
		1 2 3 4
	")
}

ee = optimize('scf')
oeprop('DIPOLE', 'QUADRUPOLE', 'MULLIKEN_CHARGES')
f=open( 'psi4out.xyz', 'w' )
f.write( "15  " )
f.write( str(ee) + "\n" )
f.write( MOL.save_string_xyz() )
f.close()
--------------------------------------------------------------------------

    Molecular point group: c1
  Charge       = 0
  Multiplicity = 1
  Basis Set: 6-31G*
  Basis Set:
  @DF-RHF Final Energy:  -232.14163810141704
    Total Energy =                       -232.1416381014169019
    Molecular point group: c1
  Basis Set: 6-31G*
  Basis Set:
  Basis Set: 6-31G*
  Basis Set:
  @DF-RHF Final Energy:  -232.14184351222914
    Total Energy =                       -232.1418435122291726
  Basis Set: 6-31G*
  Basis Set:
  Basis Set: 6-31G*
  Basis Set:
  @DF-RHF Final Energy:  -232.14188693292010
    Total Energy =                       -232.1418869329201016
  Basis Set: 6-31G*
  Basis Set:
  Basis Set: 6-31G*
  Basis Set:
  @DF-RHF Final Energy:  -232.14190386874765
    Total Energy =                       -232.1419038687478178
  Basis Set: 6-31G*
  Basis Set:
  Basis Set: 6-31G*
  Basis Set:
  @DF-RHF Final Energy:  -232.14191110588263
    Total Energy =                       -232.1419111058825138
  Basis Set: 6-31G*
  Basis Set:
  Charge       = 0
  Multiplicity = 1
  Basis Set: 6-31G*
  Basis Set:

    Orbital Energies (a.u.)
    -----------------------

    Doubly Occupied:

       1A    -20.551742     2A    -11.267774     3A    -11.211902
       4A    -11.207974     5A    -11.202952     6A     -1.358048
       7A     -1.062934     8A     -0.968887     9A     -0.868891
      10A     -0.776877    11A     -0.699899    12A     -0.644168
      13A     -0.611536    14A     -0.571748    15A     -0.561237
      16A     -0.531059    17A     -0.507611    18A     -0.479743
      19A     -0.465765    20A     -0.451178    21A     -0.425645

  @DF-RHF Final Energy:  -232.14191154227481

   => Energetics <=

    Nuclear Repulsion Energy =            191.6266727984474016
    One-Electron Energy =                -694.6820281722762047
    Two-Electron Energy =                 270.9134438315540478
    DFT Exchange-Correlation Energy =       0.0000000000000000
    Empirical Dispersion Energy =           0.0000000000000000
    PCM Polarization Energy =               0.0000000000000000
    EFP Energy =                            0.0000000000000000
    Total Energy =                       -232.1419115422747268
    Molecular point group: c1
  Basis Set: 6-31G*
  Basis Set:

  -Total Gradient:
     Atom            X                  Y                   Z
    ------   -----------------  -----------------  -----------------
       1       -0.000021510954     0.000714100103    -0.000541849357
       2        0.000143254544    -0.000714598012     0.000631925898
       3       -0.000473904970    -0.000393877247     0.000000240849
       4        0.000369116949     0.000362058796    -0.000130049779
       5        0.000012367232     0.000008553004     0.000005877442
       6       -0.000018346868     0.000001631298     0.000010013570
       7        0.000008817938     0.000026295590     0.000005183273
       8       -0.000012176596    -0.000005708948     0.000005356059
       9       -0.000016147180     0.000004025673     0.000000641469
      10       -0.000001968077    -0.000021552716     0.000004215784
      11       -0.000000489759    -0.000004333811     0.000008791493
      12        0.000018055282     0.000016145302    -0.000001447185
      13        0.000001836107    -0.000003123986     0.000000620685
      14        0.000006693229     0.000008563840     0.000001164229
      15       -0.000015596878     0.000001821113    -0.000000684426

  **** Optimization is complete! (in 6 steps) ****
    Final optimized geometry and variables:
    Molecular point group: c1

    Geometry (in Angstrom), charge = 0, multiplicity = 1:

    H            2.593425559612    -0.598226024809    -0.471516805321
    O            1.651015389955    -0.657719873497    -0.450304566226
    C            1.136638635199     0.119743520444     0.606895281866
    C            0.021968400182     1.024834710350     0.100158359095
    H            1.919475150292     0.732249197088     1.047202668466
    H            0.773609145384    -0.540730827974     1.388238180214
    C           -1.137082114616     0.289785202439    -0.581709988048
    H            0.453704295795     1.731154512257    -0.604115599151
    H           -0.354880596200     1.605818263175     0.940918280764
    C           -1.922475907497    -0.644694477608     0.339998791723
    H           -0.750198789512    -0.272392333092    -1.424663333900
    H           -1.816152145181     1.034251049000    -0.990170006145
    H           -2.771711984207    -1.073853776257    -0.182735210943
    H           -1.311230179600    -1.468147599185     0.694150050291
    H           -2.304555072181    -0.114083743706     1.208599252162

  Mulliken Charges: (a.u.)
   Center  Symbol    Alpha    Beta     Spin     Total
       1     H     0.27903  0.27903  0.00000  0.44195
       2     O     4.37272  4.37272  0.00000 -0.74544
       3     C     3.00114  3.00114  0.00000 -0.00228
       4     C     3.15754  3.15754  0.00000 -0.31507
       5     H     0.42959  0.42959  0.00000  0.14081
       6     H     0.42364  0.42364  0.00000  0.15273
       7     C     3.15437  3.15437  0.00000 -0.30873
       8     H     0.42000  0.42000  0.00000  0.16001
       9     H     0.42640  0.42640  0.00000  0.14720
      10     C     3.24354  3.24354  0.00000 -0.48707
      11     H     0.40747  0.40747  0.00000  0.18505
      12     H     0.42313  0.42313  0.00000  0.15374
      13     H     0.41926  0.41926  0.00000  0.16148
      14     H     0.41693  0.41693  0.00000  0.16613
      15     H     0.42525  0.42525  0.00000  0.14949

   Total alpha = 21.00000, Total beta = 21.00000, Total charge = -0.00000
