                              Psi4 1.0.54 Driver

  ==> Input File <==

--------------------------------------------------------------------------
set {
	reference rhf
	basis cc-pvtz
}

set_num_threads( 4 )
memory 2 gb

molecule MOL {
0 1

O	 0.395927	 1.296676	 -0.000076
C	 0.503051	 0.114301	 -0.000074
C	 -0.701422	 -0.805636	 -0.000109
C	 1.858118	 -0.556123	 0.000212
C	 -1.897429	 -0.261088	 0.764818
H	 -0.961806	 -1.004531	 -1.036486
H	 -0.383401	 -1.761942	 0.407053
H	 -2.230372	 0.679107	 0.345997
H	 -2.720750	 -0.964275	 0.725746
H	 -1.646856	 -0.085017	 1.802336
H	 1.961106	 -1.191101	 -0.872843
H	 2.636688	 0.191085	 -0.000109
H	 1.961070	 -1.190284	 0.873873

	symmetry c1
}
set optking {
	frozen_dihedral = ("
		6 3 2 1
	")
}

ee,wfn = optimize('scf', return_wfn=True)
oeprop( wfn, 'DIPOLE', 'QUADRUPOLE', 'MULLIKEN_CHARGES')
f=open( 'psi4out.xyz', 'w' )
f.write( "13  " )
f.write( str(ee) + "\n" )
f.write( MOL.save_string_xyz() )
f.close()
--------------------------------------------------------------------------

    Molecular point group: c1
  Charge       = 0
  Multiplicity = 1
  Basis Set: CC-PVTZ
  Basis Set:
  @DF-RHF Final Energy:  -231.08209928061166
    Total Energy =                       -231.0820992806117147
    Molecular point group: c1
  Basis Set: CC-PVTZ
  Basis Set:
  Basis Set: CC-PVTZ
  Basis Set:
  @DF-RHF Final Energy:  -231.08080573659359
    Total Energy =                       -231.0808057365938168
  Basis Set: CC-PVTZ
  Basis Set:
  Basis Set: CC-PVTZ
  Basis Set:
  @DF-RHF Final Energy:  -231.08249814744696
    Total Energy =                       -231.0824981474470405
  Basis Set: CC-PVTZ
  Basis Set:
  Basis Set: CC-PVTZ
  Basis Set:
  @DF-RHF Final Energy:  -231.08249998172454
    Total Energy =                       -231.0824999817245384
  Basis Set: CC-PVTZ
  Basis Set:
  Basis Set: CC-PVTZ
  Basis Set:
  @DF-RHF Final Energy:  -231.08265251003559
    Total Energy =                       -231.0826525100355582
  Basis Set: CC-PVTZ
  Basis Set:
  Basis Set: CC-PVTZ
  Basis Set:
  @DF-RHF Final Energy:  -231.08266327728438
    Total Energy =                       -231.0826632772843254
  Basis Set: CC-PVTZ
  Basis Set:
  Basis Set: CC-PVTZ
  Basis Set:
  @DF-RHF Final Energy:  -231.08266579441261
    Total Energy =                       -231.0826657944126055
  Basis Set: CC-PVTZ
  Basis Set:
  Charge       = 0
  Multiplicity = 1
  Basis Set: CC-PVTZ
  Basis Set:

    Orbital Energies (a.u.)
    -----------------------

    Doubly Occupied:

       1A    -20.538817     2A    -11.321502     3A    -11.233258
       4A    -11.228023     5A    -11.214651     6A     -1.399488
       7A     -1.062633     8A     -1.001623     9A     -0.879347
      10A     -0.731632    11A     -0.660307    12A     -0.643596
      13A     -0.620232    14A     -0.586531    15A     -0.572209
      16A     -0.526174    17A     -0.518945    18A     -0.506423
      19A     -0.485607    20A     -0.403778

  @DF-RHF Final Energy:  -231.08266594281926

   => Energetics <=

    Nuclear Repulsion Energy =            177.2279810277906620
    One-Electron Energy =                -664.3517438481626414
    Two-Electron Energy =                 256.0410968775527181
    DFT Exchange-Correlation Energy =       0.0000000000000000
    Empirical Dispersion Energy =           0.0000000000000000
    PCM Polarization Energy =               0.0000000000000000
    EFP Energy =                            0.0000000000000000
    Total Energy =                       -231.0826659428192897
    Molecular point group: c1
  Basis Set: CC-PVTZ
  Basis Set:

  -Total Gradient:
     Atom            X                  Y                   Z
    ------   -----------------  -----------------  -----------------
       1        0.000041830031     0.000003358199    -0.001651079784
       2       -0.000204803196     0.000280690910     0.002317085210
       3        0.000979162580    -0.001662484516    -0.000621245545
       4       -0.000016008326     0.000021158976     0.000001081483
       5        0.000003089668     0.000006275780    -0.000002919854
       6       -0.000807808976     0.001375042086    -0.000045798164
       7        0.000003040087    -0.000005096895    -0.000000619316
       8       -0.000002687013     0.000004911196     0.000000348941
       9        0.000000905712    -0.000001303371     0.000000142297
      10       -0.000000390665    -0.000000698863     0.000001803923
      11        0.000001577969    -0.000006613814    -0.000000983466
      12        0.000000211681    -0.000008575581     0.000000882071
      13        0.000001880449    -0.000006664106     0.000001302204

  **** Optimization is complete! (in 8 steps) ****
    Final optimized geometry and variables:
    Molecular point group: c1

    Geometry (in Angstrom), charge = 0, multiplicity = 1:

    O            0.523623851110     1.267934835286    -0.134236309743
    C            0.499027144376     0.080922460557    -0.119909408610
    C           -0.807614225231    -0.690424752950    -0.154237598606
    C            1.767713217086    -0.737509984834    -0.112515247149
    C           -1.967619562939     0.049100159577     0.500650490285
    H           -1.026885807907    -0.854113481106    -1.207250380875
    H           -0.666844067070    -1.670275597683     0.287661337587
    H           -2.111861804273     1.017127214381     0.043143249985
    H           -2.883193217463    -0.521184443603     0.401123315740
    H           -1.782292156037     0.206366537063     1.556601541133
    H            1.740576938410    -1.485428398455    -0.897497883329
    H            2.625135363981    -0.095255970845    -0.242233386498
    H            1.849618367369    -1.266264582018     0.831641457705

  Mulliken Charges: (a.u.)
   Center  Symbol    Alpha    Beta     Spin     Total
       1     O     4.17255  4.17255  0.00000 -0.34511
       2     C     2.85969  2.85969  0.00000  0.28063
       3     C     3.10054  3.10054  0.00000 -0.20108
       4     C     3.15128  3.15128  0.00000 -0.30257
       5     C     3.14321  3.14321  0.00000 -0.28642
       6     H     0.44545  0.44545  0.00000  0.10909
       7     H     0.44638  0.44638  0.00000  0.10723
       8     H     0.44127  0.44127  0.00000  0.11746
       9     H     0.45009  0.45009  0.00000  0.09983
      10     H     0.45344  0.45344  0.00000  0.09312
      11     H     0.45053  0.45053  0.00000  0.09895
      12     H     0.43623  0.43623  0.00000  0.12754
      13     H     0.44934  0.44934  0.00000  0.10133

   Total alpha = 20.00000, Total beta = 20.00000, Total charge = -0.00000

*** Psi4 exiting successfully. Buy a developer a beer!
