  ==> Input File <==

--------------------------------------------------------------------------
set {
	reference rhf
	basis 6-31G*
}

set_num_threads( 4 )
memory 2 gb

molecule MOL {
0 1

H	 1.877755	 0.597260	 1.128133
O	 1.096871	 0.055370	 1.185633
C	 0.489431	 0.077273	 0.000046
C	 -0.764129	 -0.759190	 0.000191
O	 0.917588	 0.694551	 -0.919854
C	 -2.038368	 0.075731	 -0.000248
H	 -0.717284	 -1.412404	 -0.866059
H	 -0.717458	 -1.411724	 0.866967
H	 -2.086483	 0.712501	 -0.875098
H	 -2.908485	 -0.571682	 -0.000042
H	 -2.086576	 0.713280	 0.874068

	symmetry c1
}
set optking {
	frozen_dihedral = ("
		2 3 4 7
	")
}

ee = optimize('scf')
oeprop('DIPOLE', 'QUADRUPOLE', 'MULLIKEN_CHARGES')
f=open( 'psi4out.xyz', 'w' )
f.write( "11  " )
f.write( str(ee) + "\n" )
f.write( MOL.save_string_xyz() )
f.close()
--------------------------------------------------------------------------

    Molecular point group: c1
  Charge       = 0
  Multiplicity = 1
  Basis Set: 6-31G*
  Basis Set:
  @DF-RHF Final Energy:  -266.84329636792438
    Total Energy =                       -266.8432963679243812
    Molecular point group: c1
  Basis Set: 6-31G*
  Basis Set:
  Basis Set: 6-31G*
  Basis Set:
  @DF-RHF Final Energy:  -266.84388294165012
    Total Energy =                       -266.8438829416500653
  Basis Set: 6-31G*
  Basis Set:
  Basis Set: 6-31G*
  Basis Set:
  @DF-RHF Final Energy:  -266.84238621302927
    Total Energy =                       -266.8423862130290445
  Basis Set: 6-31G*
  Basis Set:
  Basis Set: 6-31G*
  Basis Set:
  @DF-RHF Final Energy:  -266.84405014241270
    Total Energy =                       -266.8440501424128115
  Basis Set: 6-31G*
  Basis Set:
  Basis Set: 6-31G*
  Basis Set:
  @DF-RHF Final Energy:  -266.84405668349007
    Total Energy =                       -266.8440566834900665
  Basis Set: 6-31G*
  Basis Set:
  Charge       = 0
  Multiplicity = 1
  Basis Set: 6-31G*
  Basis Set:

    Orbital Energies (a.u.)
    -----------------------

    Doubly Occupied:

       1A    -20.615776     2A    -20.549461     3A    -11.381504
       4A    -11.242689     5A    -11.229194     6A     -1.475889
       7A     -1.365627     8A     -1.066598     9A     -0.914319
      10A     -0.811669    11A     -0.702939    12A     -0.687745
      13A     -0.644953    14A     -0.613289    15A     -0.592998
      16A     -0.539132    17A     -0.526464    18A     -0.511890
      19A     -0.474166    20A     -0.442172

  @DF-RHF Final Energy:  -266.84405687255685

   => Energetics <=

    Nuclear Repulsion Energy =            179.8055977956283584
    One-Electron Energy =                -720.5223593218519227
    Two-Electron Energy =                 273.8727046536666876
    DFT Exchange-Correlation Energy =       0.0000000000000000
    Empirical Dispersion Energy =           0.0000000000000000
    PCM Polarization Energy =               0.0000000000000000
    EFP Energy =                            0.0000000000000000
    Total Energy =                       -266.8440568725568482
    Molecular point group: c1
  Basis Set: 6-31G*
  Basis Set:

  -Total Gradient:
     Atom            X                  Y                   Z
    ------   -----------------  -----------------  -----------------
       1       -0.000009561051     0.000004893220    -0.000005777037
       2       -0.000084032351     0.000112108526     0.000097971032
       3        0.000099647050    -0.000120095548    -0.000190262351
       4        0.000084533548    -0.000124905368     0.000171201028
       5       -0.000009723639    -0.000014606943     0.000024725365
       6        0.000021811211    -0.000002084684    -0.000001799943
       7       -0.000094489064     0.000141774482    -0.000099263182
       8       -0.000004272180    -0.000002464045     0.000000027810
       9        0.000002722064     0.000008299099     0.000007207741
      10        0.000002151943    -0.000004904470    -0.000002013437
      11       -0.000008787532     0.000001985730    -0.000002017028

  **** Optimization is complete! (in 6 steps) ****
    Final optimized geometry and variables:
    Molecular point group: c1

    Geometry (in Angstrom), charge = 0, multiplicity = 1:

    H            1.929686952588     0.575661877362     1.015862510474
    O            1.176242052945    -0.002058713317     1.093554272950
    C            0.515044200401     0.025421687565    -0.060761515162
    C           -0.723555196381    -0.834807991401    -0.053245755408
    O            0.873646644861     0.686946203533    -0.980962965363
    C           -1.987369338974     0.032679628078    -0.087072873989
    H           -0.684847092734    -1.456472562721    -0.940319302426
    H           -0.718400381904    -1.476344304144     0.817743148478
    H           -1.986987340059     0.673029169254    -0.960486628659
    H           -2.869924066899    -0.595815150595    -0.122092600119
    H           -2.056778314551     0.658392816241     0.796613948297

  Mulliken Charges: (a.u.)
   Center  Symbol    Alpha    Beta     Spin     Total
       1     H     0.26817  0.26817  0.00000  0.46366
       2     O     4.34684  4.34684  0.00000 -0.69368
       3     C     2.62943  2.62943  0.00000  0.74114
       4     C     3.20191  3.20191  0.00000 -0.40383
       5     O     4.27965  4.27965  0.00000 -0.55930
       6     C     3.24993  3.24993  0.00000 -0.49987
       7     H     0.39794  0.39794  0.00000  0.20411
       8     H     0.39950  0.39950  0.00000  0.20099
       9     H     0.40267  0.40267  0.00000  0.19466
      10     H     0.41154  0.41154  0.00000  0.17691
      11     H     0.41241  0.41241  0.00000  0.17518

   Total alpha = 20.00000, Total beta = 20.00000, Total charge = -0.00000
