                              Psi4 1.0.54 Driver

  ==> Input File <==

--------------------------------------------------------------------------
set {
	reference rhf
	basis cc-pvtz
}

set_num_threads( 4 )
memory 2 gb

molecule MOL {
0 1

H	 -2.149496	 -2.244167	 0.000000
O	 -2.454378	 -1.354528	 0.000000
C	 -1.430628	 -0.482077	 0.000000
C	 -0.157520	 -0.990171	 -0.213794
C	 -1.607477	 0.870420	 0.201737
H	 -0.041010	 -2.044442	 -0.368606
C	 0.927354	 -0.143561	 -0.224252
H	 -2.586755	 1.276896	 0.368287
C	 -0.502499	 1.710937	 0.188161
H	 1.908212	 -0.544441	 -0.390233
C	 0.768859	 1.216710	 -0.023572
C	 -0.696702	 3.124681	 0.400102
H	 1.611353	 1.877861	 -0.031199
N	 -0.852156	 4.229643	 0.566171

	symmetry c1
}
set optking {
	frozen_dihedral = ("
		5 3 2 1
	")
}

ee,wfn = optimize('scf', return_wfn=True)
oeprop( wfn, 'DIPOLE', 'QUADRUPOLE', 'MULLIKEN_CHARGES')
f=open( 'psi4out.xyz', 'w' )
f.write( "14  " )
f.write( str(ee) + "\n" )
f.write( MOL.save_string_xyz() )
f.close()
--------------------------------------------------------------------------

    Molecular point group: c1
  Charge       = 0
  Multiplicity = 1
  Basis Set: CC-PVTZ
  Basis Set:
  @DF-RHF Final Energy:  -397.43023653721207
    Total Energy =                       -397.4302365372121812
    Molecular point group: c1
  Basis Set: CC-PVTZ
  Basis Set:
  Basis Set: CC-PVTZ
  Basis Set:
  @DF-RHF Final Energy:  -397.43230454123380
    Total Energy =                       -397.4323045412334068
  Basis Set: CC-PVTZ
  Basis Set:
  Basis Set: CC-PVTZ
  Basis Set:
  @DF-RHF Final Energy:  -397.43249292702177
    Total Energy =                       -397.4324929270217126
  Basis Set: CC-PVTZ
  Basis Set:
  Basis Set: CC-PVTZ
  Basis Set:
  @DF-RHF Final Energy:  -397.43252372037045
    Total Energy =                       -397.4325237203706820
  Basis Set: CC-PVTZ
  Basis Set:
  Basis Set: CC-PVTZ
  Basis Set:
  @DF-RHF Final Energy:  -397.43252894778630
    Total Energy =                       -397.4325289477864089
  Basis Set: CC-PVTZ
  Basis Set:
  Charge       = 0
  Multiplicity = 1
  Basis Set: CC-PVTZ
  Basis Set:

    Orbital Energies (a.u.)
    -----------------------

    Doubly Occupied:

       1A    -20.606738     2A    -15.563569     3A    -11.324888
       4A    -11.291592     5A    -11.266833     6A    -11.262058
       7A    -11.256826     8A    -11.256573     9A    -11.255092
      10A     -1.439191    11A     -1.236512    12A     -1.186679
      13A     -1.066332    14A     -1.043494    15A     -0.902832
      16A     -0.861696    17A     -0.799211    18A     -0.718157
      19A     -0.695801    20A     -0.675639    21A     -0.631776
      22A     -0.621911    23A     -0.598068    24A     -0.567594
      25A     -0.551082    26A     -0.544013    27A     -0.528564
      28A     -0.479776    29A     -0.477574    30A     -0.367457
      31A     -0.342114

  @DF-RHF Final Energy:  -397.43252917957295

   => Energetics <=

    Nuclear Repulsion Energy =            380.5054277711786881
    One-Electron Energy =               -1293.0366326498906346
    Two-Electron Energy =                 515.0986756991389939
    DFT Exchange-Correlation Energy =       0.0000000000000000
    Empirical Dispersion Energy =           0.0000000000000000
    PCM Polarization Energy =               0.0000000000000000
    EFP Energy =                            0.0000000000000000
    Total Energy =                       -397.4325291795729527
    Molecular point group: c1
  Basis Set: CC-PVTZ
  Basis Set:

  -Total Gradient:
     Atom            X                  Y                   Z
    ------   -----------------  -----------------  -----------------
       1        0.000013866307     0.000010868291     0.000965132312
       2        0.000043803158    -0.000027052056    -0.000918042558
       3       -0.000156954054     0.000077381897    -0.000684817017
       4        0.000014815530    -0.000003077757    -0.000022773769
       5        0.000111187530    -0.000046940821     0.000683054596
       6       -0.000000769538    -0.000001959243     0.000000787643
       7       -0.000003329679    -0.000010818490    -0.000011139996
       8       -0.000005902286    -0.000006543278     0.000001108814
       9       -0.000006253353     0.000000003900    -0.000050366454
      10        0.000001116764     0.000007186817    -0.000001391352
      11       -0.000016618933     0.000005065562     0.000037462756
      12        0.000014956306     0.000004044019    -0.000007734242
      13        0.000005620804    -0.000004559835    -0.000001967904
      14       -0.000015538555    -0.000003599009     0.000010687171

  **** Optimization is complete! (in 6 steps) ****
    Final optimized geometry and variables:
    Molecular point group: c1

    Geometry (in Angstrom), charge = 0, multiplicity = 1:

    H           -1.547733203876    -3.038965792786    -0.080614740440
    O           -1.783123266175    -2.128590173496    -0.084926661190
    C           -0.693080121908    -1.340204236014    -0.100159505122
    C            0.581820755455    -1.832343159215    -0.312740515281
    C           -0.885468349499     0.013836086814     0.105359018895
    H            0.730157969610    -2.884198340414    -0.474441191891
    C            1.663418313951    -0.971718287101    -0.320814130177
    H           -1.874822885068     0.388386593797     0.272697780449
    C            0.205794018022     0.861282472369     0.089347530517
    H            2.647903716259    -1.363847960951    -0.486135136905
    C            1.489215814329     0.380278103779    -0.121961029484
    C            0.002330643676     2.274113165722     0.302376856842
    H            2.323217536589     1.052106289935    -0.128902437022
    N           -0.153110860092     3.378969269423     0.468890891692

  Mulliken Charges: (a.u.)
   Center  Symbol    Alpha    Beta     Spin     Total
       1     H     0.38544  0.38544  0.00000  0.22911
       2     O     4.16898  4.16898  0.00000 -0.33797
       3     C     2.84103  2.84103  0.00000  0.31794
       4     C     3.13070  3.13070  0.00000 -0.26140
       5     C     3.12239  3.12239  0.00000 -0.24478
       6     H     0.42900  0.42900  0.00000  0.14200
       7     C     3.05654  3.05654  0.00000 -0.11309
       8     H     0.40962  0.40962  0.00000  0.18075
       9     C     2.92058  2.92058  0.00000  0.15885
      10     H     0.41669  0.41669  0.00000  0.16663
      11     C     3.10610  3.10610  0.00000 -0.21220
      12     C     3.02417  3.02417  0.00000 -0.04833
      13     H     0.41453  0.41453  0.00000  0.17093
      14     N     3.57422  3.57422  0.00000 -0.14845

   Total alpha = 31.00000, Total beta = 31.00000, Total charge = -0.00000

*** Psi4 exiting successfully. Buy a developer a beer!
