  ==> Input File <==

--------------------------------------------------------------------------
set {
	reference rhf
	basis cc-pvtz
}

set_num_threads( 4 )
memory 2 gb

molecule MOL {
0 1

H	 -0.000342	 -0.223902	 -3.352295
C	 -0.027146	 0.371068	 -2.446756
C	 0.024493	 -0.518541	 -1.216015
H	 -0.932586	 0.964979	 -2.449855
H	 0.819708	 1.049865	 -2.473332
N	 -0.042516	 0.263377	 -0.000000
H	 -0.822211	 -1.197105	 -1.225584
H	 0.921114	 -1.142847	 -1.255206
C	 0.024493	 -0.518541	 1.216015
H	 0.682568	 0.950412	 -0.000000
C	 -0.569830	 -1.902404	 1.014780
H	 1.068207	 -0.611660	 1.497863
H	 -0.478178	 -0.024233	 2.051602
H	 -0.053674	 -2.426895	 0.220390
H	 -0.494061	 -2.488894	 1.923074
H	 -1.620649	 -1.840864	 0.749022

	symmetry c1
}
set optking {
	frozen_dihedral = ("
		12 9 6 3
	")
}

ee = optimize('scf')
oeprop('DIPOLE', 'QUADRUPOLE', 'MULLIKEN_CHARGES')
f=open( 'psi4out.xyz', 'w' )
f.write( "16  " )
f.write( str(ee) + "\n" )
f.write( MOL.save_string_xyz() )
f.close()
--------------------------------------------------------------------------

    Molecular point group: c1
  Charge       = 0
  Multiplicity = 1
  Basis Set: CC-PVTZ
  Basis Set:
  @DF-RHF Final Energy:  -212.38111306205496
    Total Energy =                       -212.3811130620550784
    Molecular point group: c1
  Basis Set: CC-PVTZ
  Basis Set:
  Basis Set: CC-PVTZ
  Basis Set:
  @DF-RHF Final Energy:  -212.38268923094483
    Total Energy =                       -212.3826892309449477
  Basis Set: CC-PVTZ
  Basis Set:
  Basis Set: CC-PVTZ
  Basis Set:
  @DF-RHF Final Energy:  -212.38672908371254
    Total Energy =                       -212.3867290837124528
  Basis Set: CC-PVTZ
  Basis Set:
  Basis Set: CC-PVTZ
  Basis Set:
  @DF-RHF Final Energy:  -212.38744495445695
    Total Energy =                       -212.3874449544570666
  Basis Set: CC-PVTZ
  Basis Set:
  Basis Set: CC-PVTZ
  Basis Set:
  @DF-RHF Final Energy:  -212.38752456408739
    Total Energy =                       -212.3875245640873572
  Basis Set: CC-PVTZ
  Basis Set:
  Basis Set: CC-PVTZ
  Basis Set:
  @DF-RHF Final Energy:  -212.38753565803040
    Total Energy =                       -212.3875356580302878
  Basis Set: CC-PVTZ
  Basis Set:
  Charge       = 0
  Multiplicity = 1
  Basis Set: CC-PVTZ
  Basis Set:

    Orbital Energies (a.u.)
    -----------------------

    Doubly Occupied:

       1A    -15.524756     2A    -11.239487     3A    -11.237778
       4A    -11.208057     5A    -11.205882     6A     -1.200550
       7A     -1.025408     8A     -0.969926     9A     -0.853550
      10A     -0.793213    11A     -0.662292    12A     -0.626737
      13A     -0.613499    14A     -0.592693    15A     -0.538584
      16A     -0.515371    17A     -0.513959    18A     -0.494562
      19A     -0.484757    20A     -0.475761    21A     -0.350642

  @DF-RHF Final Energy:  -212.38753657585980

   => Energetics <=

    Nuclear Repulsion Energy =            191.9894895834196120
    One-Electron Energy =                -666.4991232008603674
    Two-Electron Energy =                 262.1220970415809006
    DFT Exchange-Correlation Energy =       0.0000000000000000
    Empirical Dispersion Energy =           0.0000000000000000
    PCM Polarization Energy =               0.0000000000000000
    EFP Energy =                            0.0000000000000000
    Total Energy =                       -212.3875365758598264
    Molecular point group: c1
  Basis Set: CC-PVTZ
  Basis Set:

  -Total Gradient:
     Atom            X                  Y                   Z
    ------   -----------------  -----------------  -----------------
       1       -0.000000756750     0.000000151191    -0.000001237231
       2        0.000003293113    -0.000005198353     0.000003115506
       3       -0.004858888522    -0.000682531501    -0.000017595214
       4        0.000002492406    -0.000002863853     0.000003083591
       5       -0.000000342635     0.000001292057    -0.000000553169
       6        0.006962825937     0.002496197122     0.000901219706
       7        0.000009741582    -0.000006889668    -0.000006193798
       8       -0.000002052101     0.000007104398    -0.000005745789
       9       -0.001464432837    -0.006973831866    -0.004074320269
      10        0.000030473112     0.000004635598    -0.000018962694
      11       -0.000013943927     0.000002861849     0.000020725604
      12       -0.000661948143     0.005174423369     0.003232738248
      13       -0.000007712330    -0.000000316172    -0.000028306641
      14       -0.000001102340     0.000001548661    -0.000021723943
      15       -0.000000398440    -0.000012439894    -0.000005382200
      16        0.000002751876    -0.000004142938     0.000019138291

  **** Optimization is complete! (in 7 steps) ****
    Final optimized geometry and variables:
    Molecular point group: c1

    Geometry (in Angstrom), charge = 0, multiplicity = 1:

    H            0.126522828017     0.420076678984    -3.114219795841
    C            0.088625493286     0.943323797499    -2.165840642456
    C            0.150566983281    -0.038605299430    -1.006925576793
    H           -0.826328714277     1.521456280549    -2.125971274996
    H            0.924896921552     1.635166553569    -2.137759925845
    N            0.059542861540     0.666368054667     0.253524888745
    H           -0.680120540419    -0.727193021889    -1.085787836450
    H            1.062043574610    -0.636573786945    -1.096510947196
    C            0.160215213666    -0.091295593478     1.492460635113
    H            0.693618395164     1.434088664206     0.270676962719
    C           -0.485325851416    -1.466591047851     1.453382599075
    H            1.193566738856    -0.170194116192     1.835862483187
    H           -0.343353965234     0.488718732499     2.260206885300
    H            0.020495981363    -2.142564494158     0.775738852990
    H           -0.450959429971    -1.906004725767     2.443166742626
    H           -1.524678337861    -1.398566740602     1.153967355067

  Mulliken Charges: (a.u.)
   Center  Symbol    Alpha    Beta     Spin     Total
       1     H     0.45366  0.45366  0.00000  0.09268
       2     C     3.14516  3.14516  0.00000 -0.29031
       3     C     3.02063  3.02063  0.00000 -0.04125
       4     H     0.44981  0.44981  0.00000  0.10039
       5     H     0.45945  0.45945  0.00000  0.08110
       6     N     3.64273  3.64273  0.00000 -0.28546
       7     H     0.45664  0.45664  0.00000  0.08671
       8     H     0.47419  0.47419  0.00000  0.05161
       9     C     3.02307  3.02307  0.00000 -0.04613
      10     H     0.44115  0.44115  0.00000  0.11769
      11     C     3.15866  3.15866  0.00000 -0.31732
      12     H     0.46901  0.46901  0.00000  0.06197
      13     H     0.45851  0.45851  0.00000  0.08298
      14     H     0.45164  0.45164  0.00000  0.09673
      15     H     0.44598  0.44598  0.00000  0.10805
      16     H     0.44972  0.44972  0.00000  0.10056

   Total alpha = 21.00000, Total beta = 21.00000, Total charge = -0.00000
