                              Psi4 1.0.54 Driver

  ==> Input File <==

--------------------------------------------------------------------------
set {
	reference rhf
	basis cc-pvtz
}

set_num_threads( 4 )
memory 2 gb

molecule MOL {
0 1

H	 1.426901	 2.420259	 -2.432508
O	 0.722592	 2.200056	 -1.851548
C	 1.186441	 1.359925	 -0.826345
C	 0.027642	 1.012027	 0.090274
H	 1.958618	 1.860415	 -0.247537
H	 1.627138	 0.459160	 -1.244519
C	 -1.138737	 0.285728	 -0.581921
H	 -0.338305	 1.933280	 0.531730
H	 0.416541	 0.405836	 0.904831
C	 -1.933983	 -0.631436	 0.343653
H	 -0.763151	 -0.285569	 -1.422081
H	 -1.808359	 1.035291	 -0.992333
H	 -2.789188	 -1.049673	 -0.174718
H	 -1.335629	 -1.461368	 0.700418
H	 -2.305435	 -0.092167	 1.209725

	symmetry c1
}
set optking {
	frozen_dihedral = ("
		8 4 7 11
	")
}

ee,wfn = optimize('scf', return_wfn=True)
oeprop( wfn, 'DIPOLE', 'QUADRUPOLE', 'MULLIKEN_CHARGES')
f=open( 'psi4out.xyz', 'w' )
f.write( "15  " )
f.write( str(ee) + "\n" )
f.write( MOL.save_string_xyz() )
f.close()
--------------------------------------------------------------------------

    Molecular point group: c1
  Charge       = 0
  Multiplicity = 1
  Basis Set: CC-PVTZ
  Basis Set:
  @DF-RHF Final Energy:  -232.23613918392027
    Total Energy =                       -232.2361391839202724
    Molecular point group: c1
  Basis Set: CC-PVTZ
  Basis Set:
  Basis Set: CC-PVTZ
  Basis Set:
  @DF-RHF Final Energy:  -232.23661746870405
    Total Energy =                       -232.2366174687039688
  Basis Set: CC-PVTZ
  Basis Set:
  Basis Set: CC-PVTZ
  Basis Set:
  @DF-RHF Final Energy:  -232.23666093636928
    Total Energy =                       -232.2366609363693897
  Basis Set: CC-PVTZ
  Basis Set:
  Basis Set: CC-PVTZ
  Basis Set:
  @DF-RHF Final Energy:  -232.23666202051550
    Total Energy =                       -232.2366620205153822
  Basis Set: CC-PVTZ
  Basis Set:
  Charge       = 0
  Multiplicity = 1
  Basis Set: CC-PVTZ
  Basis Set:

    Orbital Energies (a.u.)
    -----------------------

    Doubly Occupied:

       1A    -20.546194     2A    -11.265760     3A    -11.210530
       4A    -11.207625     5A    -11.203915     6A     -1.364189
       7A     -1.065206     8A     -0.975410     9A     -0.857534
      10A     -0.787421    11A     -0.706834    12A     -0.645945
      13A     -0.604984    14A     -0.590782    15A     -0.550138
      16A     -0.537517    17A     -0.508593    18A     -0.476897
      19A     -0.468056    20A     -0.454585    21A     -0.433110

  @DF-RHF Final Energy:  -232.23666222255645

   => Energetics <=

    Nuclear Repulsion Energy =            188.8538605073998156
    One-Electron Energy =                -689.2585908187517134
    Two-Electron Energy =                 268.1680680887957919
    DFT Exchange-Correlation Energy =       0.0000000000000000
    Empirical Dispersion Energy =           0.0000000000000000
    PCM Polarization Energy =               0.0000000000000000
    EFP Energy =                            0.0000000000000000
    Total Energy =                       -232.2366622225561059
    Molecular point group: c1
  Basis Set: CC-PVTZ
  Basis Set:

  -Total Gradient:
     Atom            X                  Y                   Z
    ------   -----------------  -----------------  -----------------
       1       -0.000003035816     0.000002034840     0.000005372231
       2       -0.000015734422     0.000024226254    -0.000013051532
       3        0.000034250582    -0.000031068292    -0.000022390482
       4       -0.001176864449    -0.001616614199     0.003594853894
       5       -0.000011907704    -0.000011506467     0.000003336308
       6        0.000006867574    -0.000003820190     0.000012490071
       7        0.000826185354    -0.003386180981     0.002159651401
       8        0.000828921619     0.001905723278    -0.003346048348
       9       -0.000005034659     0.000005862109    -0.000008819556
      10        0.000006816760    -0.000017945738    -0.000002851397
      11       -0.000500625356     0.003097909585    -0.002378897220
      12       -0.000000280280     0.000011625596     0.000001714391
      13        0.000018568917     0.000007208584     0.000005631585
      14       -0.000007498807     0.000005718763    -0.000005450760
      15       -0.000000629312     0.000006826858    -0.000005540588

  **** Optimization is complete! (in 5 steps) ****
    Final optimized geometry and variables:
    Molecular point group: c1

    Geometry (in Angstrom), charge = 0, multiplicity = 1:

    H            1.584762046899     1.560850742561    -1.827026598473
    O            0.898717073860     1.350286555694    -1.221287736836
    C            1.377278247421     0.476829128404    -0.231707362995
    C            0.234587816755     0.119535626314     0.699477227332
    H            2.177155888918     0.948056348068     0.334276764239
    H            1.781253150341    -0.426197532878    -0.685225585287
    C           -0.920744747973    -0.604093531162    -0.001491860105
    H           -0.123893632116     1.045575040539     1.137307873678
    H            0.635317576025    -0.493353920424     1.501525567079
    C           -1.731518580643    -1.492212182035     0.934579083568
    H           -0.536290899694    -1.181934613862    -0.836794208035
    H           -1.573358700955     0.134693149145    -0.451845432089
    H           -2.564399354579    -1.952961726485     0.415900902446
    H           -1.120394978522    -2.285986656327     1.351762540471
    H           -2.135611250706    -0.919228319749     1.763075471466

  Mulliken Charges: (a.u.)
   Center  Symbol    Alpha    Beta     Spin     Total
       1     H     0.39600  0.39600  0.00000  0.20801
       2     O     4.19958  4.19958  0.00000 -0.39917
       3     C     2.97224  2.97224  0.00000  0.05552
       4     C     3.08943  3.08943  0.00000 -0.17886
       5     H     0.46640  0.46640  0.00000  0.06720
       6     H     0.47463  0.47463  0.00000  0.05075
       7     C     3.08050  3.08050  0.00000 -0.16101
       8     H     0.45139  0.45139  0.00000  0.09722
       9     H     0.45543  0.45543  0.00000  0.08915
      10     C     3.14906  3.14906  0.00000 -0.29812
      11     H     0.45655  0.45655  0.00000  0.08690
      12     H     0.44713  0.44713  0.00000  0.10573
      13     H     0.44919  0.44919  0.00000  0.10163
      14     H     0.45760  0.45760  0.00000  0.08481
      15     H     0.45488  0.45488  0.00000  0.09024

   Total alpha = 21.00000, Total beta = 21.00000, Total charge = -0.00000

*** Psi4 exiting successfully. Buy a developer a beer!
