                              Psi4 1.0.54 Driver

  ==> Input File <==

--------------------------------------------------------------------------
set {
	reference rhf
	basis cc-pvtz
}

set_num_threads( 4 )
memory 2 gb

molecule MOL {
0 1

H	 1.128311	 0.207724	 1.465118
C	 1.134565	 0.093781	 0.372499
C	 0.062554	 0.862911	 -0.350953
O	 1.948932	 -0.587720	 -0.146651
C	 -0.098630	 0.420366	 -1.808618
H	 0.287991	 1.919082	 -0.279012
H	 -0.867309	 0.680732	 0.183127
C	 1.107062	 0.755938	 -2.681743
H	 -0.983223	 0.896451	 -2.215326
H	 -0.288611	 -0.648881	 -1.841226
H	 1.292017	 1.824206	 -2.694108
H	 0.944329	 0.433621	 -3.703149
H	 2.009237	 0.272623	 -2.323243

	symmetry c1
}
set optking {
	frozen_dihedral = ("
		6 3 2 4
	")
}

ee,wfn = optimize('scf', return_wfn=True)
oeprop( wfn, 'DIPOLE', 'QUADRUPOLE', 'MULLIKEN_CHARGES')
f=open( 'psi4out.xyz', 'w' )
f.write( "13  " )
f.write( str(ee) + "\n" )
f.write( MOL.save_string_xyz() )
f.close()
--------------------------------------------------------------------------

    Molecular point group: c1
  Charge       = 0
  Multiplicity = 1
  Basis Set: CC-PVTZ
  Basis Set:
  @DF-RHF Final Energy:  -231.06877002156384
    Total Energy =                       -231.0687700215639779
    Molecular point group: c1
  Basis Set: CC-PVTZ
  Basis Set:
  Basis Set: CC-PVTZ
  Basis Set:
  @DF-RHF Final Energy:  -231.07048956515885
    Total Energy =                       -231.0704895651587378
  Basis Set: CC-PVTZ
  Basis Set:
  Basis Set: CC-PVTZ
  Basis Set:
  @DF-RHF Final Energy:  -231.06913008498594
    Total Energy =                       -231.0691300849860568
  Basis Set: CC-PVTZ
  Basis Set:
  Basis Set: CC-PVTZ
  Basis Set:
  @DF-RHF Final Energy:  -231.07068358673504
    Total Energy =                       -231.0706835867350435
  Basis Set: CC-PVTZ
  Basis Set:
  Basis Set: CC-PVTZ
  Basis Set:
  @DF-RHF Final Energy:  -231.07082084402171
    Total Energy =                       -231.0708208440217390
  Basis Set: CC-PVTZ
  Basis Set:
  Basis Set: CC-PVTZ
  Basis Set:
  @DF-RHF Final Energy:  -231.07082460986058
    Total Energy =                       -231.0708246098603809
  Basis Set: CC-PVTZ
  Basis Set:
  Charge       = 0
  Multiplicity = 1
  Basis Set: CC-PVTZ
  Basis Set:

    Orbital Energies (a.u.)
    -----------------------

    Doubly Occupied:

       1A    -20.553734     2A    -11.324066     3A    -11.237319
       4A    -11.224520     5A    -11.206716     6A     -1.409451
       7A     -1.078593     8A     -0.973661     9A     -0.849247
      10A     -0.768213    11A     -0.688063    12A     -0.646292
      13A     -0.618737    14A     -0.584362    15A     -0.569047
      16A     -0.523944    17A     -0.497024    18A     -0.484226
      19A     -0.483226    20A     -0.412981

  @DF-RHF Final Energy:  -231.07082511520409

   => Energetics <=

    Nuclear Repulsion Energy =            176.4649561086939968
    One-Electron Energy =                -662.8047166014224558
    Two-Electron Energy =                 255.2689353775243148
    DFT Exchange-Correlation Energy =       0.0000000000000000
    Empirical Dispersion Energy =           0.0000000000000000
    PCM Polarization Energy =               0.0000000000000000
    EFP Energy =                            0.0000000000000000
    Total Energy =                       -231.0708251152041726
    Molecular point group: c1
  Basis Set: CC-PVTZ
  Basis Set:

  -Total Gradient:
     Atom            X                  Y                   Z
    ------   -----------------  -----------------  -----------------
       1        0.000023692663     0.000010058374     0.000021570160
       2       -0.002132924434    -0.002679047255     0.000020221203
       3       -0.000740604875     0.001171380902     0.002026430913
       4        0.001658640583     0.001759314627    -0.000258015650
       5       -0.000024154723     0.000046984966     0.000017747120
       6        0.001230859129    -0.000301020110    -0.001815049489
       7       -0.000026978559     0.000006216629     0.000017822554
       8       -0.000012789878     0.000009334367    -0.000044523053
       9        0.000001576439    -0.000000513178    -0.000007937049
      10       -0.000002721572    -0.000008841605    -0.000001548288
      11       -0.000000007661    -0.000007942231     0.000000098678
      12        0.000012897895    -0.000003382431     0.000012385424
      13        0.000012514996    -0.000002543059     0.000010797477

  **** Optimization is complete! (in 7 steps) ****
    Final optimized geometry and variables:
    Molecular point group: c1

    Geometry (in Angstrom), charge = 0, multiplicity = 1:

    H            0.225677659669     0.001202424882     2.427541591524
    C            0.258103615950    -0.209084207885     1.351040653874
    C           -0.741379484588     0.566310876951     0.533247236134
    O            1.052957367231    -0.972533360314     0.922939301381
    C           -0.902761245884     0.109793570567    -0.915856976940
    H           -0.420276714455     1.606752409127     0.566669680875
    H           -1.688024456640     0.527831504110     1.064948975256
    C            0.245292651456     0.527171499673    -1.830896897535
    H           -1.829603850626     0.524783466057    -1.297647272933
    H           -1.012239368410    -0.968402942282    -0.937684045697
    H            0.347548263974     1.607735443382    -1.855738232758
    H            0.064176349475     0.192130423882    -2.845516955747
    H            1.184193480318     0.105106730429    -1.501055491441

  Mulliken Charges: (a.u.)
   Center  Symbol    Alpha    Beta     Spin     Total
       1     H     0.44939  0.44939  0.00000  0.10121
       2     C     2.92027  2.92027  0.00000  0.15947
       3     C     3.09680  3.09680  0.00000 -0.19360
       4     O     4.16718  4.16718  0.00000 -0.33436
       5     C     3.08353  3.08353  0.00000 -0.16705
       6     H     0.44688  0.44688  0.00000  0.10624
       7     H     0.44008  0.44008  0.00000  0.11983
       8     C     3.15052  3.15052  0.00000 -0.30104
       9     H     0.44769  0.44769  0.00000  0.10461
      10     H     0.44829  0.44829  0.00000  0.10341
      11     H     0.45945  0.45945  0.00000  0.08110
      12     H     0.44886  0.44886  0.00000  0.10229
      13     H     0.44105  0.44105  0.00000  0.11789

   Total alpha = 20.00000, Total beta = 20.00000, Total charge = -0.00000

*** Psi4 exiting successfully. Buy a developer a beer!
