  ==> Input File <==

--------------------------------------------------------------------------
set {
	reference rhf
	basis cc-pvtz
}

set_num_threads( 4 )
memory 2 gb

molecule MOL {
0 1

H	 -1.752232	 -2.214755	 -0.011938
C	 -1.343852	 -1.221619	 -0.018179
N	 -0.058800	 -1.097635	 -0.261688
C	 -2.148159	 -0.124236	 0.219734
C	 0.449026	 0.119242	 -0.273393
H	 -3.196988	 -0.237571	 0.417076
N	 -1.655094	 1.094230	 0.209506
C	 -0.370318	 1.215445	 -0.035100
C	 1.924033	 0.265863	 -0.538106
H	 0.033214	 2.210441	 -0.046812
C	 2.735576	 -0.926245	 -0.028472
H	 2.066761	 0.367510	 -1.607245
H	 2.282785	 1.178805	 -0.077618
H	 3.784951	 -0.800373	 -0.267011
H	 2.390611	 -1.844857	 -0.484685
H	 2.645443	 -1.028505	 1.047152

	symmetry c1
}
set optking {
	frozen_dihedral = ("
		12 9 5 3
	")
}

ee = optimize('scf')
oeprop('DIPOLE', 'QUADRUPOLE', 'MULLIKEN_CHARGES')
f=open( 'psi4out.xyz', 'w' )
f.write( "16  " )
f.write( str(ee) + "\n" )
f.write( MOL.save_string_xyz() )
f.close()
--------------------------------------------------------------------------

    Molecular point group: c1
  Charge       = 0
  Multiplicity = 1
  Basis Set: CC-PVTZ
  Basis Set:
  @DF-RHF Final Energy:  -340.87082840878543
    Total Energy =                       -340.8708284087855418
    Molecular point group: c1
  Basis Set: CC-PVTZ
  Basis Set:
  Basis Set: CC-PVTZ
  Basis Set:
  @DF-RHF Final Energy:  -340.87122839190425
    Total Energy =                       -340.8712283919043671
  Basis Set: CC-PVTZ
  Basis Set:
  Basis Set: CC-PVTZ
  Basis Set:
  @DF-RHF Final Energy:  -340.87134895711580
    Total Energy =                       -340.8713489571158561
  Basis Set: CC-PVTZ
  Basis Set:
  Basis Set: CC-PVTZ
  Basis Set:
  @DF-RHF Final Energy:  -340.87136335971167
    Total Energy =                       -340.8713633597113812
  Basis Set: CC-PVTZ
  Basis Set:
  Basis Set: CC-PVTZ
  Basis Set:
  @DF-RHF Final Energy:  -340.87136890881413
    Total Energy =                       -340.8713689088141905
  Basis Set: CC-PVTZ
  Basis Set:
  Basis Set: CC-PVTZ
  Basis Set:
  @DF-RHF Final Energy:  -340.87137081725109
    Total Energy =                       -340.8713708172509769
  Basis Set: CC-PVTZ
  Basis Set:
  Charge       = 0
  Multiplicity = 1
  Basis Set: CC-PVTZ
  Basis Set:

    Orbital Energies (a.u.)
    -----------------------

    Doubly Occupied:

       1A    -15.580524     2A    -15.575360     3A    -11.279741
       4A    -11.271803     5A    -11.268704     6A    -11.267024
       7A    -11.232979     8A    -11.211946     9A     -1.316068
      10A     -1.224103    11A     -1.085052    12A     -1.015036
      13A     -0.910980    14A     -0.891692    15A     -0.826385
      16A     -0.720338    17A     -0.709865    18A     -0.658838
      19A     -0.625417    20A     -0.603814    21A     -0.573203
      22A     -0.561444    23A     -0.523605    24A     -0.504562
      25A     -0.501839    26A     -0.487846    27A     -0.434221
      28A     -0.397246    29A     -0.346267

  @DF-RHF Final Energy:  -340.87137136387287

   => Energetics <=

    Nuclear Repulsion Energy =            350.4032725982895045
    One-Electron Energy =               -1155.3374828032749519
    Two-Electron Energy =                 464.0628388411125229
    DFT Exchange-Correlation Energy =       0.0000000000000000
    Empirical Dispersion Energy =           0.0000000000000000
    PCM Polarization Energy =               0.0000000000000000
    EFP Energy =                            0.0000000000000000
    Total Energy =                       -340.8713713638729246
    Molecular point group: c1
  Basis Set: CC-PVTZ
  Basis Set:

  -Total Gradient:
     Atom            X                  Y                   Z
    ------   -----------------  -----------------  -----------------
       1        0.000008866549    -0.000002449848     0.000000468358
       2       -0.000013230857    -0.000001165198    -0.000010811063
       3        0.000135655594    -0.000066548304     0.000727293276
       4        0.000035512441    -0.000007859466    -0.000014065241
       5       -0.000242653285     0.000262565123    -0.001025335525
       6        0.000004850590     0.000001887049     0.000015100901
       7        0.000035951792     0.000020076703    -0.000027145686
       8       -0.000032099623    -0.000011180146     0.000039452574
       9        0.000178387715    -0.000984621251     0.000216703626
      10       -0.000001973348     0.000008307476     0.000005960601
      11       -0.000023059337     0.000001672890    -0.000016450872
      12       -0.000076244275     0.000787694213     0.000076368112
      13       -0.000018002480     0.000009485769    -0.000004775177
      14       -0.000007535441     0.000000276791     0.000008575911
      15        0.000008481949    -0.000012929912     0.000000764777
      16        0.000007092022    -0.000005211893     0.000007895429

  **** Optimization is complete! (in 7 steps) ****
    Final optimized geometry and variables:
    Molecular point group: c1

    Geometry (in Angstrom), charge = 0, multiplicity = 1:

    H           -1.794715681198    -2.100352972757     0.082311026168
    C           -1.370941652895    -1.113950194847     0.073421195482
    N           -0.076453582746    -1.014748124930    -0.151910124327
    C           -2.156517099833    -0.004636308639     0.292275452111
    C            0.453303881255     0.187840832268    -0.164231787105
    H           -3.209865836376    -0.095786655383     0.475151487304
    N           -1.637927526621     1.207390517541     0.288795259948
    C           -0.351150919892     1.302235667495     0.066049197526
    C            1.928362877767     0.341149011249    -0.448008843900
    H            0.074803739610     2.288245269118     0.068468277216
    C            2.790032147260    -0.812957375331     0.051624141020
    H            2.056357653913     0.454320160162    -1.521217694578
    H            2.267788915455     1.272362292503    -0.008571319577
    H            3.832180348759    -0.622829239665    -0.175604146611
    H            2.501920450579    -1.744902112501    -0.412506611574
    H            2.695150058262    -0.933224001637     1.124479651584

  Mulliken Charges: (a.u.)
   Center  Symbol    Alpha    Beta     Spin     Total
       1     H     0.41454  0.41454  0.00000  0.17092
       2     C     3.04416  3.04416  0.00000 -0.08831
       3     N     3.59140  3.59140  0.00000 -0.18280
       4     C     3.04765  3.04765  0.00000 -0.09531
       5     C     2.94406  2.94406  0.00000  0.11189
       6     H     0.41368  0.41368  0.00000  0.17264
       7     N     3.58673  3.58673  0.00000 -0.17346
       8     C     3.07662  3.07662  0.00000 -0.15325
       9     C     3.07731  3.07731  0.00000 -0.15463
      10     H     0.41669  0.41669  0.00000  0.16661
      11     C     3.14455  3.14455  0.00000 -0.28909
      12     H     0.44706  0.44706  0.00000  0.10588
      13     H     0.44877  0.44877  0.00000  0.10245
      14     H     0.45024  0.45024  0.00000  0.09952
      15     H     0.44350  0.44350  0.00000  0.11299
      16     H     0.45302  0.45302  0.00000  0.09395

   Total alpha = 29.00000, Total beta = 29.00000, Total charge =  0.00000
