  ==> Input File <==

--------------------------------------------------------------------------
set {
	reference rhf
	basis 6-31G*
}

set_num_threads( 1 )
memory 2 gb

molecule MOL {
0 1

H	 3.893188	 0.355400	 -0.101367
N	 3.092854	 -0.246221	 -0.068770
C	 1.865559	 0.531981	 0.018834
H	 3.199514	 -0.826043	 0.741946
C	 0.645745	 -0.382037	 -0.029944
H	 1.841966	 1.207024	 -0.831236
H	 1.815756	 1.155410	 0.915079
C	 -0.679275	 0.379305	 0.025956
H	 0.698998	 -0.976915	 -0.937203
H	 0.693479	 -1.083846	 0.802235
C	 -0.896287	 1.300341	 -1.176114
H	 -0.717581	 0.970152	 0.939894
H	 -1.504276	 -0.328872	 0.086828
C	 -2.219648	 2.062164	 -1.114061
H	 -0.073909	 2.009606	 -1.238189
H	 -0.861130	 0.712274	 -2.090771
H	 -2.271225	 2.686705	 -0.226590
H	 -2.344071	 2.706372	 -1.979000
H	 -3.064380	 1.379499	 -1.085990

	symmetry c1
}
set optking {
	frozen_dihedral = ("
		6 3 5 9,
		12 8 11 15,
		1 2 3 6
	")
}

ee = energy('scf')
oeprop('DIPOLE', 'QUADRUPOLE', 'MULLIKEN_CHARGES')
f=open( 'psi4out.xyz', 'w' )
f.write( "19  " )
f.write( str(ee) + "\n" )
f.write( MOL.save_string_xyz() )
f.close()
--------------------------------------------------------------------------

    Molecular point group: c1

    Geometry (in Angstrom), charge = 0, multiplicity = 1:

       Center              X                  Y                   Z               Mass
    ------------   -----------------  -----------------  -----------------  -----------------
           H          3.557739865014    -0.256483084892     0.281051224131     1.007825032070
           N          2.757405865014    -0.858104084892     0.313648224131    14.003074004780
           C          1.530110865014    -0.079902084892     0.401252224131    12.000000000000
           H          2.864065865014    -1.437926084892     1.124364224131     1.007825032070
           C          0.310296865014    -0.993920084892     0.352474224131    12.000000000000
           H          1.506517865014     0.595140915108    -0.448817775869     1.007825032070
           H          1.480307865014     0.543526915108     1.297497224131     1.007825032070
           C         -1.014723134986    -0.232578084892     0.408374224131    12.000000000000
           H          0.363549865014    -1.588798084892    -0.554784775869     1.007825032070
           H          0.358030865014    -1.695729084892     1.184653224131     1.007825032070
           C         -1.231735134986     0.688457915108    -0.793695775869    12.000000000000
           H         -1.053029134986     0.358268915108     1.322312224131     1.007825032070
           H         -1.839724134986    -0.940755084892     0.469246224131     1.007825032070
           C         -2.555096134986     1.450280915108    -0.731642775869    12.000000000000
           H         -0.409357134986     1.397722915108    -0.855770775869     1.007825032070
           H         -1.196578134986     0.100390915108    -1.708352775869     1.007825032070
           H         -2.606673134986     2.074821915108     0.155828224131     1.007825032070
           H         -2.679519134986     2.094488915108    -1.596581775869     1.007825032070
           H         -3.399828134986     0.767615915108    -0.703571775869     1.007825032070

  Charge       = 0
  Multiplicity = 1
  Basis Set: 6-31G*
  Basis Set:

    Orbital Energies (a.u.)
    -----------------------

    Doubly Occupied:

       1A    -15.532435     2A    -11.239036     3A    -11.213414
       4A    -11.212577     5A    -11.209397     6A    -11.207560
       7A     -1.176600     8A     -1.073936     9A     -0.996403
      10A     -0.898519    11A     -0.829739    12A     -0.775312
      13A     -0.662713    14A     -0.637880    15A     -0.616555
      16A     -0.593916    17A     -0.570895    18A     -0.549776
      19A     -0.523721    20A     -0.501585    21A     -0.489178
      22A     -0.462483    23A     -0.456153    24A     -0.445950
      25A     -0.381258

  @DF-RHF Final Energy:  -251.34939595394727

   => Energetics <=

    Nuclear Repulsion Energy =            249.9739136670270625
    One-Electron Energy =                -834.1327993468868272
    Two-Electron Energy =                 332.8094897259124991
    DFT Exchange-Correlation Energy =       0.0000000000000000
    Empirical Dispersion Energy =           0.0000000000000000
    PCM Polarization Energy =               0.0000000000000000
    EFP Energy =                            0.0000000000000000
    Total Energy =                       -251.3493959539472371

  Mulliken Charges: (a.u.)
   Center  Symbol    Alpha    Beta     Spin     Total
       1     H     0.33259  0.33259  0.00000  0.33482
       2     N     3.92189  3.92189  0.00000 -0.84378
       3     C     3.06246  3.06246  0.00000 -0.12493
       4     H     0.33548  0.33548  0.00000  0.32904
       5     C     3.15291  3.15291  0.00000 -0.30582
       6     H     0.41853  0.41853  0.00000  0.16294
       7     H     0.43509  0.43509  0.00000  0.12982
       8     C     3.15619  3.15619  0.00000 -0.31239
       9     H     0.41345  0.41345  0.00000  0.17311
      10     H     0.42553  0.42553  0.00000  0.14894
      11     C     3.15469  3.15469  0.00000 -0.30938
      12     H     0.42507  0.42507  0.00000  0.14986
      13     H     0.42060  0.42060  0.00000  0.15881
      14     C     3.23848  3.23848  0.00000 -0.47696
      15     H     0.42193  0.42193  0.00000  0.15614
      16     H     0.42142  0.42142  0.00000  0.15716
      17     H     0.42235  0.42235  0.00000  0.15531
      18     H     0.41950  0.41950  0.00000  0.16099
      19     H     0.42185  0.42185  0.00000  0.15630

   Total alpha = 25.00000, Total beta = 25.00000, Total charge = -0.00000
