                              Psi4 1.0.54 Driver

  ==> Input File <==

--------------------------------------------------------------------------
set {
	reference rhf
	basis cc-pvtz
}

set_num_threads( 4 )
memory 2 gb

molecule MOL {
0 1

O	 1.847685	 1.294399	 -0.000190
C	 1.704209	 0.119472	 -0.000093
C	 0.380337	 -0.600947	 -0.000234
O	 2.715427	 -0.733672	 0.000025
C	 -0.824290	 0.329213	 -0.000115
H	 0.371455	 -1.255476	 -0.865660
H	 0.371410	 -1.255787	 0.864952
C	 -2.146151	 -0.432825	 -0.000068
H	 -0.773936	 0.979158	 -0.866319
H	 -0.773838	 0.979034	 0.866186
C	 -3.366283	 0.483552	 0.000557
H	 -2.189286	 -1.084450	 -0.869996
H	 -2.188867	 -1.085083	 0.869399
C	 -4.053170	 0.567432	 -1.358325
H	 -3.065958	 1.479119	 0.314894
H	 -4.077299	 0.132266	 0.742994
H	 -3.376858	 0.948717	 -2.116255
H	 -4.913863	 1.225224	 -1.322946
H	 -4.396551	 -0.408720	 -1.684596
C	 4.020999	 -0.192556	 0.000019
H	 4.182809	 0.412891	 -0.879449
H	 4.692590	 -1.035653	 0.000152
H	 4.182726	 0.413087	 0.879368

	symmetry c1
}
set optking {
	frozen_dihedral = ("
		15 11 8 12
	")
}

ee,wfn = optimize('scf', return_wfn=True)
oeprop( wfn, 'DIPOLE', 'QUADRUPOLE', 'MULLIKEN_CHARGES')
f=open( 'psi4out.xyz', 'w' )
f.write( "23  " )
f.write( str(ee) + "\n" )
f.write( MOL.save_string_xyz() )
f.close()
--------------------------------------------------------------------------

    Molecular point group: c1
  Charge       = 0
  Multiplicity = 1
  Basis Set: CC-PVTZ
  Basis Set:
  @DF-RHF Final Energy:  -423.12601293889378
    Total Energy =                       -423.1260129388931546
    Molecular point group: c1
  Basis Set: CC-PVTZ
  Basis Set:
  Basis Set: CC-PVTZ
  Basis Set:
  @DF-RHF Final Energy:  -423.12630342125124
    Total Energy =                       -423.1263034212511229
  Basis Set: CC-PVTZ
  Basis Set:
  Basis Set: CC-PVTZ
  Basis Set:
  @DF-RHF Final Energy:  -423.12640033386162
    Total Energy =                       -423.1264003338610564
  Basis Set: CC-PVTZ
  Basis Set:
  Basis Set: CC-PVTZ
  Basis Set:
  @DF-RHF Final Energy:  -423.12612101800579
    Total Energy =                       -423.1261210180055059
  Basis Set: CC-PVTZ
  Basis Set:
  Basis Set: CC-PVTZ
  Basis Set:
  @DF-RHF Final Energy:  -423.12640748634612
    Total Energy =                       -423.1264074863463520
  Basis Set: CC-PVTZ
  Basis Set:
  Charge       = 0
  Multiplicity = 1
  Basis Set: CC-PVTZ
  Basis Set:

    Orbital Energies (a.u.)
    -----------------------

    Doubly Occupied:

       1A    -20.596339     2A    -20.534159     3A    -11.364623
       4A    -11.278500     5A    -11.233587     6A    -11.217471
       7A    -11.215690     8A    -11.214371     9A    -11.207594
      10A     -1.472210    11A     -1.365812    12A     -1.093607
      13A     -1.043140    14A     -0.987208    15A     -0.931868
      16A     -0.848103    17A     -0.792440    18A     -0.769605
      19A     -0.698914    20A     -0.686600    21A     -0.675929
      22A     -0.644472    23A     -0.616254    24A     -0.598660
      25A     -0.584582    26A     -0.565204    27A     -0.538630
      28A     -0.529512    29A     -0.523092    30A     -0.504243
      31A     -0.494945    32A     -0.468480    33A     -0.462998
      34A     -0.461454    35A     -0.456611    36A     -0.438237

  @DF-RHF Final Energy:  -423.12640785150296

   => Energetics <=

    Nuclear Repulsion Energy =            455.5560085092013765
    One-Electron Energy =               -1479.1345462098061034
    Two-Electron Energy =                 600.4521298491022208
    DFT Exchange-Correlation Energy =       0.0000000000000000
    Empirical Dispersion Energy =           0.0000000000000000
    PCM Polarization Energy =               0.0000000000000000
    EFP Energy =                            0.0000000000000000
    Total Energy =                       -423.1264078515025631
    Molecular point group: c1
  Basis Set: CC-PVTZ
  Basis Set:

  -Total Gradient:
     Atom            X                  Y                   Z
    ------   -----------------  -----------------  -----------------
       1       -0.000054115721     0.000042124238     0.000003395562
       2        0.000020452954     0.000001022435     0.000001596942
       3        0.000034899224    -0.000006922813    -0.000024891601
       4        0.000012933188    -0.000064917298    -0.000007378135
       5       -0.000039457685    -0.000012509801     0.000037151275
       6        0.000008409600     0.000000572989     0.000008515021
       7        0.000005197514     0.000006223078     0.000005907542
       8       -0.001732842171    -0.002295327847     0.001267858849
       9       -0.000006106174     0.000004644646    -0.000001043208
      10        0.000004135583     0.000007969216    -0.000004551771
      11       -0.000439065103    -0.000380213064     0.003087750422
      12        0.001544895154     0.001979663934    -0.001561195185
      13        0.000011199072     0.000007051556    -0.000005866294
      14        0.000001271359     0.000005997513     0.000027980541
      15        0.000629576741     0.000696903845    -0.002816668302
      16        0.000010508975     0.000005187341    -0.000005060594
      17       -0.000006109995     0.000001227267     0.000000535425
      18       -0.000007268104    -0.000002764221    -0.000008572813
      19        0.000008683763     0.000000664147    -0.000007438175
      20       -0.000005991929     0.000016899008     0.000003141109
      21        0.000003905091    -0.000003134474     0.000002742184
      22       -0.000008862029    -0.000007122035    -0.000000370229
      23        0.000003750700    -0.000003239656    -0.000003538565

  **** Optimization is complete! (in 6 steps) ****
    Final optimized geometry and variables:
    Molecular point group: c1

    Geometry (in Angstrom), charge = 0, multiplicity = 1:

    O            1.764055336119     1.199811262804     0.169016430583
    C            1.625785021301     0.024266631308     0.158053534090
    C            0.305079857782    -0.701816610579     0.162102739254
    O            2.640657034823    -0.824410756851     0.139729386583
    C           -0.903187813882     0.222829219410     0.187737428870
    H            0.290173028277    -1.344786971311    -0.711874912405
    H            0.307720679826    -1.368351922185     1.018468148095
    C           -2.224285323683    -0.545508272937     0.198111663009
    H           -0.866760920357     0.882504601874    -0.672199166533
    H           -0.845075141496     0.863548756281     1.060023135539
    C           -3.455494007409     0.377945444196     0.152117558097
    H           -2.239601216672    -1.207735986319    -0.663266964236
    H           -2.260383376629    -1.177642591453     1.079473078231
    C           -4.080820575065     0.475294060802    -1.238031570797
    H           -3.166641692040     1.376856780866     0.462769163566
    H           -4.206718559652     0.035798605601     0.854635437941
    H           -3.358098866488     0.822396987224    -1.969356396799
    H           -4.915077257123     1.167552698183    -1.245916627122
    H           -4.447476197487    -0.490222581166    -1.569924761392
    C            3.943802179173    -0.277712460632     0.133232800081
    H            4.094946062303     0.337595178324    -0.741288729273
    H            4.618899257447    -1.117892825404     0.118212960239
    H            4.111351717635     0.319354636454     1.017352519785

  Mulliken Charges: (a.u.)
   Center  Symbol    Alpha    Beta     Spin     Total
       1     O     4.19702  4.19702  0.00000 -0.39404
       2     C     2.80601  2.80601  0.00000  0.38797
       3     C     3.10314  3.10314  0.00000 -0.20627
       4     O     4.14647  4.14647  0.00000 -0.29294
       5     C     3.08419  3.08419  0.00000 -0.16838
       6     H     0.43973  0.43973  0.00000  0.12053
       7     H     0.43999  0.43999  0.00000  0.12003
       8     C     3.09787  3.09787  0.00000 -0.19573
       9     H     0.44578  0.44578  0.00000  0.10845
      10     H     0.44590  0.44590  0.00000  0.10819
      11     C     3.09101  3.09101  0.00000 -0.18203
      12     H     0.45644  0.45644  0.00000  0.08712
      13     H     0.44793  0.44793  0.00000  0.10415
      14     C     3.14765  3.14765  0.00000 -0.29530
      15     H     0.45264  0.45264  0.00000  0.09473
      16     H     0.44769  0.44769  0.00000  0.10462
      17     H     0.45462  0.45462  0.00000  0.09076
      18     H     0.44872  0.44872  0.00000  0.10257
      19     H     0.45543  0.45543  0.00000  0.08914
      20     C     3.03773  3.03773  0.00000 -0.07547
      21     H     0.45436  0.45436  0.00000  0.09128
      22     H     0.44534  0.44534  0.00000  0.10931
      23     H     0.45435  0.45435  0.00000  0.09130

   Total alpha = 36.00000, Total beta = 36.00000, Total charge = -0.00000

*** Psi4 exiting successfully. Buy a developer a beer!
