  ==> Input File <==

--------------------------------------------------------------------------
set {
	reference rhf
	basis 6-31G*
}

set_num_threads( 1 )
memory 2 gb

molecule MOL {
0 1

H	 -3.261111	 -0.295142	 1.469456
C	 -3.306842	 -0.277400	 0.373456
C	 -2.660244	 0.921717	 -0.272021
O	 -3.838538	 -1.161155	 -0.216482
C	 -1.805637	 0.545106	 -1.490243
H	 -3.437703	 1.629928	 -0.534136
H	 -2.025105	 1.386681	 0.481014
C	 -2.623679	 0.006552	 -2.666706
H	 -1.252955	 1.424354	 -1.807656
H	 -1.059478	 -0.190788	 -1.194498
C	 -1.760479	 -0.353778	 -3.877435
H	 -3.363018	 0.750462	 -2.956228
H	 -3.186534	 -0.870876	 -2.353889
C	 -2.583386	 -0.876870	 -5.057753
H	 -1.193111	 0.523149	 -4.178806
H	 -1.029302	 -1.107228	 -3.587473
C	 -1.754024	 -1.328670	 -6.265274
H	 -3.288286	 -0.109374	 -5.373601
H	 -3.183853	 -1.717960	 -4.717577
C	 -0.994494	 -0.204270	 -6.971291
H	 -2.421055	 -1.801297	 -6.981962
H	 -1.051641	 -2.098428	 -5.952144
H	 -1.670414	 0.588280	 -7.281558
H	 -0.236982	 0.237927	 -6.332846
H	 -0.493459	 -0.576848	 -7.859629

	symmetry c1
}
set optking {
	frozen_dihedral = ("
		6 3 5 8,
		3 5 8 12,
		12 8 11 14,
		8 11 14 18,
		20 17 14 18
	")
}

ee = energy('scf')
oeprop('DIPOLE', 'QUADRUPOLE', 'MULLIKEN_CHARGES')
f=open( 'psi4out.xyz', 'w' )
f.write( "25  " )
f.write( str(ee) + "\n" )
f.write( MOL.save_string_xyz() )
f.close()
--------------------------------------------------------------------------

    Molecular point group: c1

    Geometry (in Angstrom), charge = 0, multiplicity = 1:

       Center              X                  Y                   Z               Mass
    ------------   -----------------  -----------------  -----------------  -----------------
           H         -0.890927985448     0.014165548174     4.418362880145     1.007825032070
           C         -0.936658985448     0.031907548174     3.322362880145    12.000000000000
           C         -0.290060985448     1.231024548174     2.676885880145    12.000000000000
           O         -1.468354985448    -0.851847451826     2.732424880145    15.994914619560
           C          0.564546014552     0.854413548174     1.458663880145    12.000000000000
           H         -1.067519985448     1.939235548174     2.414770880145     1.007825032070
           H          0.345078014552     1.695988548174     3.429920880145     1.007825032070
           C         -0.253495985448     0.315859548174     0.282200880145    12.000000000000
           H          1.117228014552     1.733661548174     1.141250880145     1.007825032070
           H          1.310705014552     0.118519548174     1.754408880145     1.007825032070
           C          0.609704014552    -0.044470451826    -0.928528119855    12.000000000000
           H         -0.992834985448     1.059769548174    -0.007321119855     1.007825032070
           H         -0.816350985448    -0.561568451826     0.595017880145     1.007825032070
           C         -0.213202985448    -0.567562451826    -2.108846119855    12.000000000000
           H          1.177072014552     0.832456548174    -1.229899119855     1.007825032070
           H          1.340881014552    -0.797920451826    -0.638566119855     1.007825032070
           C          0.616159014552    -1.019362451826    -3.316367119855    12.000000000000
           H         -0.918102985448     0.199933548174    -2.424694119855     1.007825032070
           H         -0.813669985448    -1.408652451826    -1.768670119855     1.007825032070
           C          1.375689014552     0.105037548174    -4.022384119855    12.000000000000
           H         -0.050871985448    -1.491989451826    -4.033055119855     1.007825032070
           H          1.318542014552    -1.789120451826    -3.003237119855     1.007825032070
           H          0.699769014552     0.897587548174    -4.332651119855     1.007825032070
           H          2.133201014552     0.547234548174    -3.383939119855     1.007825032070
           H          1.876724014552    -0.267540451826    -4.910722119855     1.007825032070

  Charge       = 0
  Multiplicity = 1
  Basis Set: 6-31G*
  Basis Set:

    Orbital Energies (a.u.)
    -----------------------

    Doubly Occupied:

       1A    -20.564893     2A    -11.329589     3A    -11.236465
       4A    -11.226827     5A    -11.211349     6A    -11.208741
       7A    -11.208146     8A    -11.205258     9A    -11.205160
      10A     -1.406820    11A     -1.093163    12A     -1.062902
      13A     -1.007651    14A     -0.939365    15A     -0.873031
      16A     -0.810093    17A     -0.778353    18A     -0.769658
      19A     -0.683263    20A     -0.658528    21A     -0.626947
      22A     -0.611123    23A     -0.601207    24A     -0.585007
      25A     -0.559677    26A     -0.551258    27A     -0.536296
      28A     -0.513276    29A     -0.502417    30A     -0.496064
      31A     -0.483596    32A     -0.470612    33A     -0.455680
      34A     -0.450836    35A     -0.433617    36A     -0.402737

  @DF-RHF Final Energy:  -387.11784611896809

   => Energetics <=

    Nuclear Repulsion Energy =            446.2461094517918241
    One-Electron Energy =               -1409.2088696453577086
    Two-Electron Energy =                 575.8449140745976820
    DFT Exchange-Correlation Energy =       0.0000000000000000
    Empirical Dispersion Energy =           0.0000000000000000
    PCM Polarization Energy =               0.0000000000000000
    EFP Energy =                            0.0000000000000000
    Total Energy =                       -387.1178461189681457

  Mulliken Charges: (a.u.)
   Center  Symbol    Alpha    Beta     Spin     Total
       1     H     0.42705  0.42705  0.00000  0.14591
       2     C     2.84161  2.84161  0.00000  0.31679
       3     C     3.20733  3.20733  0.00000 -0.41466
       4     O     4.23509  4.23509  0.00000 -0.47019
       5     C     3.15701  3.15701  0.00000 -0.31403
       6     H     0.39950  0.39950  0.00000  0.20100
       7     H     0.41368  0.41368  0.00000  0.17263
       8     C     3.16030  3.16030  0.00000 -0.32059
       9     H     0.41711  0.41711  0.00000  0.16578
      10     H     0.41831  0.41831  0.00000  0.16337
      11     C     3.15408  3.15408  0.00000 -0.30816
      12     H     0.42756  0.42756  0.00000  0.14489
      13     H     0.39274  0.39274  0.00000  0.21452
      14     C     3.15253  3.15253  0.00000 -0.30507
      15     H     0.42522  0.42522  0.00000  0.14957
      16     H     0.42479  0.42479  0.00000  0.15043
      17     C     3.15225  3.15225  0.00000 -0.30450
      18     H     0.42501  0.42501  0.00000  0.14998
      19     H     0.41971  0.41971  0.00000  0.16057
      20     C     3.24079  3.24079  0.00000 -0.48158
      21     H     0.42137  0.42137  0.00000  0.15726
      22     H     0.42354  0.42354  0.00000  0.15293
      23     H     0.42285  0.42285  0.00000  0.15430
      24     H     0.42060  0.42060  0.00000  0.15879
      25     H     0.41998  0.41998  0.00000  0.16004

   Total alpha = 36.00000, Total beta = 36.00000, Total charge =  0.00000
