  ==> Input File <==

--------------------------------------------------------------------------
set {
	reference rhf
	basis 6-31G*
}

set_num_threads( 4 )
memory 2 gb

molecule MOL {
0 1

H	 -3.261111	 -0.295142	 1.469456
C	 -3.306842	 -0.277400	 0.373456
C	 -2.660244	 0.921717	 -0.272021
O	 -3.838538	 -1.161155	 -0.216482
C	 -1.154904	 0.726918	 -0.500623
H	 -3.180149	 1.133019	 -1.199253
H	 -2.814336	 1.767215	 0.397340
C	 -0.829445	 -0.352409	 -1.536205
H	 -0.730333	 1.673764	 -0.820791
H	 -0.674167	 0.484443	 0.445873
C	 0.673569	 -0.527646	 -1.762158
H	 -1.311203	 -0.098612	 -2.478194
H	 -1.258498	 -1.303200	 -1.225643
C	 0.994996	 -1.596525	 -2.810076
H	 1.098197	 0.427109	 -2.061934
H	 1.151214	 -0.793311	 -0.820000
C	 2.490726	 -1.865791	 -3.010974
H	 0.550545	 -1.312193	 -3.762605
H	 0.513340	 -2.527007	 -2.516948
C	 3.273598	 -0.693309	 -3.604285
H	 2.599270	 -2.724774	 -3.668480
H	 2.935694	 -2.153784	 -2.060719
H	 2.840749	 -0.373018	 -4.548385
H	 3.288241	 0.163751	 -2.939299
H	 4.304950	 -0.975409	 -3.793302

	symmetry c1
}
set optking {
	frozen_dihedral = ("
		6 3 2 4
	")
}

ee = optimize('scf')
oeprop('DIPOLE', 'QUADRUPOLE', 'MULLIKEN_CHARGES')
f=open( 'psi4out.xyz', 'w' )
f.write( "25  " )
f.write( str(ee) + "\n" )
f.write( MOL.save_string_xyz() )
f.close()
--------------------------------------------------------------------------

    Molecular point group: c1
  Charge       = 0
  Multiplicity = 1
  Basis Set: 6-31G*
  Basis Set:
  @DF-RHF Final Energy:  -387.12073349269497
    Total Energy =                       -387.1207334926950807
    Molecular point group: c1
  Basis Set: 6-31G*
  Basis Set:
  Basis Set: 6-31G*
  Basis Set:
  @DF-RHF Final Energy:  -387.11912507852355
    Total Energy =                       -387.1191250785232114
  Basis Set: 6-31G*
  Basis Set:
  Basis Set: 6-31G*
  Basis Set:
  @DF-RHF Final Energy:  -387.12091878773202
    Total Energy =                       -387.1209187877321938
  Basis Set: 6-31G*
  Basis Set:
  Basis Set: 6-31G*
  Basis Set:
  @DF-RHF Final Energy:  -387.12096040673100
    Total Energy =                       -387.1209604067310011
  Basis Set: 6-31G*
  Basis Set:
  Charge       = 0
  Multiplicity = 1
  Basis Set: 6-31G*
  Basis Set:

    Orbital Energies (a.u.)
    -----------------------

    Doubly Occupied:

       1A    -20.562924     2A    -11.326661     3A    -11.235286
       4A    -11.234605     5A    -11.217686     6A    -11.216156
       7A    -11.215573     8A    -11.213823     9A    -11.208758
      10A     -1.402599    11A     -1.100042    12A     -1.066793
      13A     -1.011087    14A     -0.941232    15A     -0.874178
      16A     -0.816352    17A     -0.785262    18A     -0.777372
      19A     -0.673189    20A     -0.660659    21A     -0.630908
      22A     -0.618540    23A     -0.595594    24A     -0.586862
      25A     -0.579216    26A     -0.550453    27A     -0.536526
      28A     -0.517200    29A     -0.508937    30A     -0.494255
      31A     -0.488038    32A     -0.475689    33A     -0.461447
      34A     -0.455974    35A     -0.438764    36A     -0.408693

  @DF-RHF Final Energy:  -387.12095974803793

   => Energetics <=

    Nuclear Repulsion Energy =            441.7428211192427057
    One-Electron Energy =               -1399.9528914817133227
    Two-Electron Energy =                 571.0891106144327978
    DFT Exchange-Correlation Energy =       0.0000000000000000
    Empirical Dispersion Energy =           0.0000000000000000
    PCM Polarization Energy =               0.0000000000000000
    EFP Energy =                            0.0000000000000000
    Total Energy =                       -387.1209597480377624
    Molecular point group: c1
  Basis Set: 6-31G*
  Basis Set:

  -Total Gradient:
     Atom            X                  Y                   Z
    ------   -----------------  -----------------  -----------------
       1        0.000050188808     0.000158118942    -0.000059579028
       2       -0.002678813838     0.001611943142     0.000328815105
       3        0.002125013212    -0.001905717347    -0.001160318640
       4        0.001594586325    -0.000901994130    -0.000119028215
       5       -0.000021302706     0.000259267269    -0.000043410913
       6       -0.001192960069     0.001024433782     0.000808108484
       7        0.000009423060    -0.000127478008     0.000170846658
       8        0.000123937664     0.000087811748    -0.000007026624
       9        0.000156984710    -0.000044085258     0.000006904974
      10       -0.000053866690    -0.000027256782     0.000035169769
      11       -0.000027077170    -0.000034021269     0.000007742643
      12       -0.000033123726    -0.000011801883    -0.000020714878
      13        0.000016761343    -0.000119875136     0.000103161158
      14        0.000003446810     0.000044631386    -0.000096763474
      15       -0.000055451015     0.000004242906     0.000040870681
      16       -0.000027182793    -0.000017037823     0.000004134571
      17        0.000014116958     0.000024526312     0.000036475295
      18       -0.000014363407    -0.000002007788    -0.000028425824
      19        0.000019893449     0.000002326330     0.000005458212
      20       -0.000012635516    -0.000014548890    -0.000006279682
      21       -0.000002314625     0.000004840762     0.000002195835
      22        0.000005026693     0.000005847302     0.000003599205
      23       -0.000010910844     0.000009275358    -0.000004961402
      24        0.000006228354    -0.000019301608    -0.000003482638
      25        0.000004395020    -0.000012139315    -0.000003491268

  **** Optimization is complete! (in 5 steps) ****
    Final optimized geometry and variables:
    Molecular point group: c1

    Geometry (in Angstrom), charge = 0, multiplicity = 1:

    H           -2.748498011069     0.294662296947     2.992805248752
    C           -2.823296042917     0.288837830167     1.899068498420
    C           -2.192208145145     1.466597135036     1.199289263240
    O           -3.338171275083    -0.627190392708     1.342626958825
    C           -0.683892680731     1.254635418853     0.969387330737
    H           -2.709602445651     1.629376879656     0.260256800790
    H           -2.336094422739     2.348081832514     1.819079975691
    C           -0.358253941900     0.179059014960    -0.069273237395
    H           -0.255889519711     2.201879330971     0.653770694705
    H           -0.206491929601     1.008862654891     1.916719579146
    C            1.146415479350     0.007765256950    -0.288571434674
    H           -0.833403332933     0.442926752662    -1.011915694045
    H           -0.791984737868    -0.769995715720     0.231864593051
    C            1.472816205974    -1.046108578189    -1.350223175418
    H            1.575469443135     0.966011117326    -0.570868948679
    H            1.617892314225    -0.273816129640     0.652085756234
    C            2.968799857438    -1.321494913237    -1.540222331996
    H            1.040519080015    -0.743266831081    -2.302596014667
    H            0.981947698888    -1.977830761486    -1.077657835490
    C            3.765543972426    -0.144112368913    -2.105203730167
    H            3.079239637579    -2.170247596205    -2.210577260194
    H            3.401606302052    -1.628059934224    -0.590052191332
    H            3.346525241364     0.193130517514    -3.049558260073
    H            3.776335322341     0.702594367494    -1.426838833411
    H            4.797619135955    -0.428648645717    -2.285790870124

  Mulliken Charges: (a.u.)
   Center  Symbol    Alpha    Beta     Spin     Total
       1     H     0.42989  0.42989  0.00000  0.14022
       2     C     2.83867  2.83867  0.00000  0.32266
       3     C     3.20247  3.20247  0.00000 -0.40495
       4     O     4.23590  4.23590  0.00000 -0.47180
       5     C     3.16518  3.16518  0.00000 -0.33037
       6     H     0.40043  0.40043  0.00000  0.19915
       7     H     0.41333  0.41333  0.00000  0.17333
       8     C     3.15460  3.15460  0.00000 -0.30920
       9     H     0.41333  0.41333  0.00000  0.17333
      10     H     0.41917  0.41917  0.00000  0.16166
      11     C     3.15487  3.15487  0.00000 -0.30974
      12     H     0.41999  0.41999  0.00000  0.16003
      13     H     0.40967  0.40967  0.00000  0.18067
      14     C     3.15290  3.15290  0.00000 -0.30581
      15     H     0.42224  0.42224  0.00000  0.15551
      16     H     0.42437  0.42437  0.00000  0.15127
      17     C     3.15261  3.15261  0.00000 -0.30523
      18     H     0.42347  0.42347  0.00000  0.15307
      19     H     0.41989  0.41989  0.00000  0.16021
      20     C     3.24117  3.24117  0.00000 -0.48234
      21     H     0.42033  0.42033  0.00000  0.15934
      22     H     0.42345  0.42345  0.00000  0.15310
      23     H     0.42217  0.42217  0.00000  0.15567
      24     H     0.42079  0.42079  0.00000  0.15842
      25     H     0.41910  0.41910  0.00000  0.16180

   Total alpha = 36.00000, Total beta = 36.00000, Total charge = -0.00000
