  ==> Input File <==

--------------------------------------------------------------------------
set {
	reference rhf
	basis cc-pvtz
}

set_num_threads( 4 )
memory 2 gb

molecule MOL {
0 1

O	 -0.694481	 1.313155	 -0.204815
C	 -0.862519	 0.151932	 -0.046791
C	 -2.171428	 -0.477048	 0.339095
O	 0.085519	 -0.757083	 -0.192238
H	 -2.467997	 -1.191667	 -0.417688
H	 -2.923379	 0.287970	 0.444097
H	 -2.053854	 -1.015120	 1.270901
C	 1.392036	 -0.330828	 -0.560749
C	 1.801721	 -0.883800	 -1.909925
H	 2.090952	 -0.622474	 0.207545
H	 1.330323	 0.746725	 -0.589407
H	 2.771297	 -0.485231	 -2.186541
H	 1.873813	 -1.962356	 -1.879880
H	 1.086781	 -0.600155	 -2.672814

	symmetry c1
}
set optking {
	frozen_dihedral = ("
		10 8 4 2
	")
}

ee = optimize('scf')
oeprop('DIPOLE', 'QUADRUPOLE', 'MULLIKEN_CHARGES')
f=open( 'psi4out.xyz', 'w' )
f.write( "14  " )
f.write( str(ee) + "\n" )
f.write( MOL.save_string_xyz() )
f.close()
--------------------------------------------------------------------------

    Molecular point group: c1
  Charge       = 0
  Multiplicity = 1
  Basis Set: CC-PVTZ
  Basis Set:
  @DF-RHF Final Energy:  -305.98841876718245
    Total Energy =                       -305.9884187671819973
    Molecular point group: c1
  Basis Set: CC-PVTZ
  Basis Set:
  Basis Set: CC-PVTZ
  Basis Set:
  @DF-RHF Final Energy:  -305.98955754680514
    Total Energy =                       -305.9895575468052584
  Basis Set: CC-PVTZ
  Basis Set:
  Basis Set: CC-PVTZ
  Basis Set:
  @DF-RHF Final Energy:  -305.99010784821860
    Total Energy =                       -305.9901078482189405
  Basis Set: CC-PVTZ
  Basis Set:
  Basis Set: CC-PVTZ
  Basis Set:
  @DF-RHF Final Energy:  -305.98965857611586
    Total Energy =                       -305.9896585761156302
  Basis Set: CC-PVTZ
  Basis Set:
  Basis Set: CC-PVTZ
  Basis Set:
  @DF-RHF Final Energy:  -305.99012798674693
    Total Energy =                       -305.9901279867469839
  Basis Set: CC-PVTZ
  Basis Set:
  Charge       = 0
  Multiplicity = 1
  Basis Set: CC-PVTZ
  Basis Set:

    Orbital Energies (a.u.)
    -----------------------

    Doubly Occupied:

       1A    -20.593763     2A    -20.532536     3A    -11.368562
       4A    -11.281802     5A    -11.231216     6A    -11.220373
       7A     -1.468987     8A     -1.366227     9A     -1.057928
      10A     -1.000214    11A     -0.878666    12A     -0.775353
      13A     -0.699780    14A     -0.685935    15A     -0.661911
      16A     -0.613491    17A     -0.583188    18A     -0.567188
      19A     -0.562832    20A     -0.532133    21A     -0.519660
      22A     -0.496864    23A     -0.452008    24A     -0.443055

  @DF-RHF Final Energy:  -305.99012897014848

   => Energetics <=

    Nuclear Repulsion Energy =            246.7605203277327917
    One-Electron Energy =                -906.3139457240439469
    Two-Electron Energy =                 353.5632964261626512
    DFT Exchange-Correlation Energy =       0.0000000000000000
    Empirical Dispersion Energy =           0.0000000000000000
    PCM Polarization Energy =               0.0000000000000000
    EFP Energy =                            0.0000000000000000
    Total Energy =                       -305.9901289701484757
    Molecular point group: c1
  Basis Set: CC-PVTZ
  Basis Set:

  -Total Gradient:
     Atom            X                  Y                   Z
    ------   -----------------  -----------------  -----------------
       1       -0.000040862215     0.000018896253    -0.000003537898
       2        0.000125794719     0.000010280434     0.000233973436
       3        0.000014615954     0.000001142664    -0.000002451178
       4       -0.000071010395     0.000014793899    -0.000299703932
       5        0.000002395240     0.000005757440    -0.000003894592
       6       -0.000000031893     0.000004610421    -0.000003215772
       7        0.000006243932     0.000001130047    -0.000002840065
       8        0.000034370989    -0.000290562680    -0.000071646629
       9       -0.000024241473    -0.000014835343     0.000031425710
      10       -0.000053801819     0.000212782740     0.000129973197
      11       -0.000011967099     0.000012149169    -0.000008975126
      12        0.000016258604     0.000011457895     0.000004864758
      13        0.000003946617     0.000007304790    -0.000010235107
      14       -0.000001711160     0.000005092275     0.000006263197

  **** Optimization is complete! (in 6 steps) ****
    Final optimized geometry and variables:
    Molecular point group: c1

    Geometry (in Angstrom), charge = 0, multiplicity = 1:

    O           -0.670121910024     1.488152885641     0.257315426758
    C           -0.798150953497     0.319376337181     0.390801140283
    C           -2.083806015910    -0.356973898709     0.775496297606
    O            0.171309961960    -0.563794690018     0.219893410109
    H           -2.365459559715    -1.065115356924     0.007034455971
    H           -2.857637872558     0.382427130001     0.902382702486
    H           -1.940924788475    -0.909725480209     1.695017325592
    C            1.477598473028    -0.129687906972    -0.140776997653
    C            1.868759688131    -0.745942008766    -1.466243689465
    H            2.137965461243    -0.459078839125     0.649673705909
    H            1.498104045107     0.945802082249    -0.184300579098
    H            2.885073052895    -0.463537896379    -1.716261080635
    H            1.814658337887    -1.826445646188    -1.421541332355
    H            1.215183487604    -0.400918227131    -2.258039515387

  Mulliken Charges: (a.u.)
   Center  Symbol    Alpha    Beta     Spin     Total
       1     O     4.19830  4.19830  0.00000 -0.39659
       2     C     2.79998  2.79998  0.00000  0.40003
       3     C     3.14031  3.14031  0.00000 -0.28062
       4     O     4.15799  4.15799  0.00000 -0.31598
       5     H     0.44617  0.44617  0.00000  0.10766
       6     H     0.43829  0.43829  0.00000  0.12342
       7     H     0.44584  0.44584  0.00000  0.10832
       8     C     2.98784  2.98784  0.00000  0.02431
       9     C     3.13653  3.13653  0.00000 -0.27306
      10     H     0.45134  0.45134  0.00000  0.09732
      11     H     0.44141  0.44141  0.00000  0.11718
      12     H     0.45369  0.45369  0.00000  0.09261
      13     H     0.45160  0.45160  0.00000  0.09680
      14     H     0.45071  0.45071  0.00000  0.09857

   Total alpha = 24.00000, Total beta = 24.00000, Total charge =  0.00000
