                              Psi4 1.0.54 Driver

  ==> Input File <==

--------------------------------------------------------------------------
set {
	reference rhf
	basis cc-pvtz
}

set_num_threads( 4 )
memory 2 gb

molecule MOL {
0 1

H	 2.614283	 2.028610	 0.296620
O	 3.358864	 1.662087	 -0.142800
C	 3.565468	 0.338079	 0.273842
C	 2.533667	 -0.637565	 -0.272227
H	 4.548038	 0.064914	 -0.086598
H	 3.593945	 0.282242	 1.360360
C	 1.114816	 -0.402372	 0.240993
H	 2.544552	 -0.580764	 -1.356576
H	 2.850574	 -1.642962	 -0.005497
C	 0.113298	 -1.420414	 -0.302504
H	 0.796373	 0.598427	 -0.031033
H	 1.113377	 -0.446476	 1.328807
C	 0.400610	 -1.915808	 -1.721056
H	 0.067750	 -2.271634	 0.372461
H	 -0.876150	 -0.971757	 -0.289509
C	 1.665553	 -2.759750	 -1.867418
H	 -0.448618	 -2.505805	 -2.054588
H	 0.457448	 -1.063067	 -2.393930
C	 1.855175	 -3.312160	 -3.277843
H	 1.627483	 -3.586901	 -1.161840
H	 2.539326	 -2.172705	 -1.601145
C	 3.119150	 -4.152152	 -3.428421
H	 0.990305	 -3.912099	 -3.547381
H	 1.884926	 -2.487453	 -3.984975
H	 3.105266	 -5.004014	 -2.756576
H	 3.221686	 -4.530368	 -4.439137
H	 4.006083	 -3.569426	 -3.202297

	symmetry c1
}
set optking {
	frozen_dihedral = ("
		14 10 7 4
	")
}

ee,wfn = optimize('scf', return_wfn=True)
oeprop( wfn, 'DIPOLE', 'QUADRUPOLE', 'MULLIKEN_CHARGES')
f=open( 'psi4out.xyz', 'w' )
f.write( "27  " )
f.write( str(ee) + "\n" )
f.write( MOL.save_string_xyz() )
f.close()
--------------------------------------------------------------------------

    Molecular point group: c1
  Charge       = 0
  Multiplicity = 1
  Basis Set: CC-PVTZ
  Basis Set:
  @DF-RHF Final Energy:  -388.39752257056415
    Total Energy =                       -388.3975225705644334
    Molecular point group: c1
  Basis Set: CC-PVTZ
  Basis Set:
  Basis Set: CC-PVTZ
  Basis Set:
  @DF-RHF Final Energy:  -388.41362052235041
    Total Energy =                       -388.4136205223508114
  Basis Set: CC-PVTZ
  Basis Set:
  Basis Set: CC-PVTZ
  Basis Set:
  @DF-RHF Final Energy:  -388.41768994831733
    Total Energy =                       -388.4176899483167062
  Basis Set: CC-PVTZ
  Basis Set:
  Basis Set: CC-PVTZ
  Basis Set:
  @DF-RHF Final Energy:  -388.41895694236405
    Total Energy =                       -388.4189569423635930
  Basis Set: CC-PVTZ
  Basis Set:
  @DF-RHF Final Energy:  -388.41959147792079
    Total Energy =                       -388.4195914779203349
  @DF-RHF Final Energy:  -388.41958156209955
    Total Energy =                       -388.4195815620993244
  Basis Set: CC-PVTZ
  Basis Set:
  @DF-RHF Final Energy:  -388.41977895851090
    Total Energy =                       -388.4197789585115288
  Basis Set: CC-PVTZ
  Basis Set:
  Basis Set: CC-PVTZ
  Basis Set:
  @DF-RHF Final Energy:  -388.41979039040257
    Total Energy =                       -388.4197903904018858
  Basis Set: CC-PVTZ
  Basis Set:
  Basis Set: CC-PVTZ
  Basis Set:
  @DF-RHF Final Energy:  -388.41979251093295
    Total Energy =                       -388.4197925109327798
  Basis Set: CC-PVTZ
  Basis Set:
  Charge       = 0
  Multiplicity = 1
  Basis Set: CC-PVTZ
  Basis Set:

    Orbital Energies (a.u.)
    -----------------------

    Doubly Occupied:

       1A    -20.545509     2A    -11.265163     3A    -11.218307
       4A    -11.215218     5A    -11.212940     6A    -11.212748
       7A    -11.212140     8A    -11.209664     9A    -11.205988
      10A     -1.363475    11A     -1.093398    12A     -1.059831
      13A     -1.010073    14A     -0.952531    15A     -0.887155
      16A     -0.832986    17A     -0.793382    18A     -0.770502
      19A     -0.698724    20A     -0.648535    21A     -0.638524
      22A     -0.614592    23A     -0.605483    24A     -0.587267
      25A     -0.567721    26A     -0.554041    27A     -0.551076
      28A     -0.519699    29A     -0.516897    30A     -0.498013
      31A     -0.482802    32A     -0.472248    33A     -0.466369
      34A     -0.457114    35A     -0.453956    36A     -0.435231
      37A     -0.425714

  @DF-RHF Final Energy:  -388.41979277761948

   => Energetics <=

    Nuclear Repulsion Energy =            469.2024611283665081
    One-Electron Energy =               -1456.7344830423367057
    Two-Electron Energy =                 599.1122291363506065
    DFT Exchange-Correlation Energy =       0.0000000000000000
    Empirical Dispersion Energy =           0.0000000000000000
    PCM Polarization Energy =               0.0000000000000000
    EFP Energy =                            0.0000000000000000
    Total Energy =                       -388.4197927776195911
    Molecular point group: c1
  Basis Set: CC-PVTZ
  Basis Set:

  -Total Gradient:
     Atom            X                  Y                   Z
    ------   -----------------  -----------------  -----------------
       1        0.000014002537    -0.000012616225    -0.000000270211
       2       -0.000002162036    -0.000033342901     0.000010470780
       3        0.000001848754     0.000035143108     0.000007787680
       4       -0.001096169337     0.002598282212    -0.003606952439
       5        0.000001227666     0.000003774343     0.000001788027
       6       -0.000003876944     0.000006676448    -0.000011452483
       7        0.000484155746    -0.003222552054     0.005995547547
       8       -0.000002799555    -0.000002044067    -0.000016270449
       9       -0.000001652640     0.000006847292     0.000004017754
      10        0.005166794327    -0.001817738485    -0.005513889915
      11        0.000004528405    -0.000003558581    -0.000001989262
      12       -0.000004785805    -0.000009336980     0.000005029181
      13        0.000008538294     0.000015321025     0.000013218475
      14       -0.004577016891     0.002413413703     0.003105385780
      15        0.000003582427     0.000009829021    -0.000010570330
      16        0.000013439762    -0.000015262892     0.000005798766
      17       -0.000011589158     0.000003005142     0.000012243614
      18        0.000008176469     0.000003959365     0.000003846130
      19       -0.000004308599     0.000004289604     0.000005301028
      20        0.000002860179     0.000014062528    -0.000016610426
      21       -0.000010168349     0.000013285455    -0.000007644551
      22       -0.000001492156    -0.000013778637     0.000006792744
      23        0.000029412101     0.000005370956     0.000002837461
      24       -0.000007029250    -0.000018024543     0.000018757380
      25        0.000009565317     0.000021673717    -0.000013959148
      26        0.000001692640    -0.000003493965     0.000007447392
      27       -0.000026773904    -0.000003184590    -0.000006660522

  **** Optimization is complete! (in 10 steps) ****
    Final optimized geometry and variables:
    Molecular point group: c1

    Geometry (in Angstrom), charge = 0, multiplicity = 1:

    H            0.423782320546     3.635589001671     1.451989895341
    O            1.233916621880     3.373522074089     1.056537765313
    C            1.620553790510     2.110339601298     1.529482310203
    C            0.788038269277     0.967311481601     0.964199519177
    H            2.652282515243     1.986468785540     1.229160707516
    H            1.596895270852     2.088501862679     2.617182874265
    C           -0.669612148455     0.997882517335     1.420658901071
    H            0.845871860524     1.009515460951    -0.116747873532
    H            1.257089875188     0.037546587150     1.275059649478
    C           -1.608807717959    -0.107813297086     0.899185750209
    H           -1.090043529537     1.950205333083     1.107949019315
    H           -0.706255481119     0.992989580420     2.506538090287
    C           -1.441185780990    -0.577661376558    -0.551208767201
    H           -1.593221230604    -0.955085195384     1.579562451423
    H           -2.615501717630     0.286910716974     1.000924148669
    C           -0.444579568823    -1.716708090633    -0.765812730837
    H           -2.409882013809    -0.917340527506    -0.905568861288
    H           -1.177241170047     0.266836908142    -1.182170569770
    C           -0.355053310659    -2.162304849236    -2.223024900644
    H           -0.743816809308    -2.563121059836    -0.151983448111
    H            0.542910946195    -1.429399625572    -0.423911949869
    C            0.617811167325    -3.316910023636    -2.438300805632
    H           -1.342171593910    -2.454084633288    -2.571152304639
    H           -0.053398473771    -1.318820312283    -2.838117956389
    H            0.324267542184    -4.188517725538    -1.862687412182
    H            0.657559357420    -3.608348643196    -3.481613658667
    H            1.622654278491    -3.044318853467    -2.133113044157

  Mulliken Charges: (a.u.)
   Center  Symbol    Alpha    Beta     Spin     Total
       1     H     0.39231  0.39231  0.00000  0.21539
       2     O     4.20567  4.20567  0.00000 -0.41134
       3     C     2.98097  2.98097  0.00000  0.03807
       4     C     3.09873  3.09873  0.00000 -0.19747
       5     H     0.44785  0.44785  0.00000  0.10431
       6     H     0.46860  0.46860  0.00000  0.06281
       7     C     3.10197  3.10197  0.00000 -0.20394
       8     H     0.44772  0.44772  0.00000  0.10455
       9     H     0.45451  0.45451  0.00000  0.09099
      10     C     3.10317  3.10317  0.00000 -0.20634
      11     H     0.45761  0.45761  0.00000  0.08477
      12     H     0.44817  0.44817  0.00000  0.10367
      13     C     3.10898  3.10898  0.00000 -0.21796
      14     H     0.45205  0.45205  0.00000  0.09591
      15     H     0.44598  0.44598  0.00000  0.10803
      16     C     3.08778  3.08778  0.00000 -0.17556
      17     H     0.44405  0.44405  0.00000  0.11191
      18     H     0.44879  0.44879  0.00000  0.10243
      19     C     3.08526  3.08526  0.00000 -0.17052
      20     H     0.45365  0.45365  0.00000  0.09269
      21     H     0.44944  0.44944  0.00000  0.10113
      22     C     3.14989  3.14989  0.00000 -0.29977
      23     H     0.45386  0.45386  0.00000  0.09228
      24     H     0.45410  0.45410  0.00000  0.09179
      25     H     0.45544  0.45544  0.00000  0.08913
      26     H     0.44817  0.44817  0.00000  0.10365
      27     H     0.45529  0.45529  0.00000  0.08941

   Total alpha = 37.00000, Total beta = 37.00000, Total charge = -0.00000

*** Psi4 exiting successfully. Buy a developer a beer!
