  ==> Input File <==

--------------------------------------------------------------------------
set {
	reference rhf
	basis 6-31G*
}

set_num_threads( 1 )
memory 2 gb

molecule MOL {
0 1

H	 0.251176	 -1.334732	 -1.033408
C	 -0.650428	 -1.469794	 -0.439261
O	 -1.392607	 -0.295399	 -0.366433
H	 -1.271232	 -2.219185	 -0.910595
H	 -0.362074	 -1.823584	 0.549734
C	 -0.719715	 0.768384	 0.229244
C	 0.719720	 0.768376	 -0.229267
H	 -1.185038	 1.714362	 -0.050570
H	 -0.750528	 0.687237	 1.313896
O	 1.392611	 -0.295398	 0.366430
H	 0.750534	 0.687200	 -1.313918
H	 1.185043	 1.714359	 0.050526
C	 2.706965	 -0.449871	 -0.062409
H	 2.756559	 -0.644779	 -1.131878
H	 3.305899	 0.433456	 0.155466
H	 3.125548	 -1.294566	 0.467107

	symmetry c1
}
set optking {
	frozen_dihedral = ("
		3 6 7 11,
		7 10 13 14
	")
}

ee = energy('scf')
oeprop('DIPOLE', 'QUADRUPOLE', 'MULLIKEN_CHARGES')
f=open( 'psi4out.xyz', 'w' )
f.write( "16  " )
f.write( str(ee) + "\n" )
f.write( MOL.save_string_xyz() )
f.close()
--------------------------------------------------------------------------

    Molecular point group: c1

    Geometry (in Angstrom), charge = 0, multiplicity = 1:

       Center              X                  Y                   Z               Mass
    ------------   -----------------  -----------------  -----------------  -----------------
           H         -0.110167735259    -1.155521812179    -0.945264674778     1.007825032070
           C         -1.011771735259    -1.290583812179    -0.351117674778    12.000000000000
           O         -1.753950735259    -0.116188812179    -0.278289674778    15.994914619560
           H         -1.632575735259    -2.039974812179    -0.822451674778     1.007825032070
           H         -0.723417735259    -1.644373812179     0.637877325222     1.007825032070
           C         -1.081058735259     0.947594187821     0.317387325222    12.000000000000
           C          0.358376264741     0.947586187821    -0.141123674778    12.000000000000
           H         -1.546381735259     1.893572187821     0.037573325222     1.007825032070
           H         -1.111871735259     0.866447187821     1.402039325222     1.007825032070
           O          1.031267264741    -0.116187812179     0.454573325222    15.994914619560
           H          0.389190264741     0.866410187821    -1.225774674778     1.007825032070
           H          0.823699264741     1.893569187821     0.138669325222     1.007825032070
           C          2.345621264741    -0.270660812179     0.025734325222    12.000000000000
           H          2.395215264741    -0.465568812179    -1.043734674778     1.007825032070
           H          2.944555264741     0.612666187821     0.243609325222     1.007825032070
           H          2.764204264741    -1.115355812179     0.555250325222     1.007825032070

  Charge       = 0
  Multiplicity = 1
  Basis Set: 6-31G*
  Basis Set:

    Orbital Energies (a.u.)
    -----------------------

    Doubly Occupied:

       1A    -20.563460     2A    -20.547273     3A    -11.274024
       4A    -11.273614     5A    -11.268900     6A    -11.245674
       7A     -1.401408     8A     -1.369073     9A     -1.028741
      10A     -0.950471    11A     -0.890634    12A     -0.819456
      13A     -0.709980    14A     -0.686306    15A     -0.655034
      16A     -0.626239    17A     -0.621086    18A     -0.595495
      19A     -0.548996    20A     -0.540965    21A     -0.524384
      22A     -0.493727    23A     -0.452007    24A     -0.421288
      25A     -0.400208

  @DF-RHF Final Energy:  -306.95856201050708

   => Energetics <=

    Nuclear Repulsion Energy =            272.8139605861813379
    One-Electron Energy =                -959.7281849145133492
    Two-Electron Energy =                 379.9556623178245900
    DFT Exchange-Correlation Energy =       0.0000000000000000
    Empirical Dispersion Energy =           0.0000000000000000
    PCM Polarization Energy =               0.0000000000000000
    EFP Energy =                            0.0000000000000000
    Total Energy =                       -306.9585620105074213

  Mulliken Charges: (a.u.)
   Center  Symbol    Alpha    Beta     Spin     Total
       1     H     0.42720  0.42720  0.00000  0.14560
       2     C     3.07237  3.07237  0.00000 -0.14473
       3     O     4.30691  4.30691  0.00000 -0.61382
       4     H     0.42027  0.42027  0.00000  0.15946
       5     H     0.42238  0.42238  0.00000  0.15524
       6     C     2.98859  2.98859  0.00000  0.02282
       7     C     3.02902  3.02902  0.00000 -0.05804
       8     H     0.41636  0.41636  0.00000  0.16729
       9     H     0.42147  0.42147  0.00000  0.15706
      10     O     4.30314  4.30314  0.00000 -0.60627
      11     H     0.42071  0.42071  0.00000  0.15858
      12     H     0.42377  0.42377  0.00000  0.15246
      13     C     3.08177  3.08177  0.00000 -0.16354
      14     H     0.42927  0.42927  0.00000  0.14145
      15     H     0.42676  0.42676  0.00000  0.14648
      16     H     0.41001  0.41001  0.00000  0.17997

   Total alpha = 25.00000, Total beta = 25.00000, Total charge = -0.00000
