  ==> Input File <==

--------------------------------------------------------------------------
set {
	reference rhf
	basis 6-31G*
}

set_num_threads( 4 )
memory 2 gb

molecule MOL {
0 1

H	 -2.499100	 -0.730091	 -0.745082
O	 -2.347518	 -0.290803	 0.079804
C	 -1.184022	 0.487508	 -0.006784
C	 0.062599	 -0.378592	 0.031606
H	 -1.176523	 1.099369	 -0.904519
H	 -1.187323	 1.153111	 0.844927
O	 1.171513	 0.459272	 -0.058250
H	 0.050699	 -1.089204	 -0.797170
H	 0.078739	 -0.954914	 0.954740
C	 1.155736	 1.534692	 0.826265
H	 1.135996	 1.198369	 1.861218
H	 2.058062	 2.106885	 0.661018
H	 0.294127	 2.176766	 0.655498

	symmetry c1
}
set optking {
	frozen_dihedral = ("
		10 7 4 8
	")
}

ee = optimize('scf')
oeprop('DIPOLE', 'QUADRUPOLE', 'MULLIKEN_CHARGES')
f=open( 'psi4out.xyz', 'w' )
f.write( "13  " )
f.write( str(ee) + "\n" )
f.write( MOL.save_string_xyz() )
f.close()
--------------------------------------------------------------------------

    Molecular point group: c1
  Charge       = 0
  Multiplicity = 1
  Basis Set: 6-31G*
  Basis Set:
  @DF-RHF Final Energy:  -267.93711406506185
    Total Energy =                       -267.9371140650617917
    Molecular point group: c1
  Basis Set: 6-31G*
  Basis Set:
  Basis Set: 6-31G*
  Basis Set:
  @DF-RHF Final Energy:  -267.93804216549188
    Total Energy =                       -267.9380421654918791
  Basis Set: 6-31G*
  Basis Set:
  Basis Set: 6-31G*
  Basis Set:
  @DF-RHF Final Energy:  -267.94359245633808
    Total Energy =                       -267.9435924563382514
  Basis Set: 6-31G*
  Basis Set:
  Basis Set: 6-31G*
  Basis Set:
  @DF-RHF Final Energy:  -267.94517273150711
    Total Energy =                       -267.9451727315071139
  Basis Set: 6-31G*
  Basis Set:
  Basis Set: 6-31G*
  Basis Set:
  @DF-RHF Final Energy:  -267.94538765326786
    Total Energy =                       -267.9453876532676873
  Basis Set: 6-31G*
  Basis Set:
  Basis Set: 6-31G*
  Basis Set:
  @DF-RHF Final Energy:  -267.94543604465940
    Total Energy =                       -267.9454360446594592
  Basis Set: 6-31G*
  Basis Set:
  Basis Set: 6-31G*
  Basis Set:
  @DF-RHF Final Energy:  -267.94544155142319
    Total Energy =                       -267.9454415514231869
  Basis Set: 6-31G*
  Basis Set:
  Charge       = 0
  Multiplicity = 1
  Basis Set: 6-31G*
  Basis Set:

    Orbital Energies (a.u.)
    -----------------------

    Doubly Occupied:

       1A    -20.564622     2A    -20.560678     3A    -11.274325
       4A    -11.271919     5A    -11.270476     6A     -1.385311
       7A     -1.368610     8A     -1.013076     9A     -0.935533
      10A     -0.831225    11A     -0.713535    12A     -0.675120
      13A     -0.658643    14A     -0.640726    15A     -0.597566
      16A     -0.564387    17A     -0.539936    18A     -0.519737
      19A     -0.475275    20A     -0.450079    21A     -0.408104

  @DF-RHF Final Energy:  -267.94544220814083

   => Energetics <=

    Nuclear Repulsion Energy =            192.7575155799657978
    One-Electron Energy =                -747.9681449697426388
    Two-Electron Energy =                 287.2651871816358380
    DFT Exchange-Correlation Energy =       0.0000000000000000
    Empirical Dispersion Energy =           0.0000000000000000
    PCM Polarization Energy =               0.0000000000000000
    EFP Energy =                            0.0000000000000000
    Total Energy =                       -267.9454422081410030
    Molecular point group: c1
  Basis Set: 6-31G*
  Basis Set:

  -Total Gradient:
     Atom            X                  Y                   Z
    ------   -----------------  -----------------  -----------------
       1       -0.000013658557    -0.000011563869    -0.000001900207
       2       -0.000007616830    -0.000010639578    -0.000034445388
       3        0.000003424513     0.000008947169     0.000056306504
       4        0.002028417963    -0.002636952157     0.001666572156
       5       -0.000001903727    -0.000017543943    -0.000004961363
       6        0.000021206873     0.000018372562     0.000005048443
       7        0.002105909733    -0.002564113064     0.003117564791
       8       -0.002340020328     0.003017374359    -0.002320647012
       9       -0.000003248641     0.000005450391    -0.000002722780
      10       -0.001789654290     0.002197112171    -0.002489054704
      11       -0.000006990707    -0.000002745132     0.000001903685
      12       -0.000005456894     0.000004319593    -0.000004610829
      13        0.000009590889    -0.000008018499     0.000010946705

  **** Optimization is complete! (in 8 steps) ****
    Final optimized geometry and variables:
    Molecular point group: c1

    Geometry (in Angstrom), charge = 0, multiplicity = 1:

    H           -2.147551551833    -1.219931397785    -0.998304906678
    O           -2.108093068418    -0.782863628336    -0.158983167058
    C           -1.027060272563     0.110669672990    -0.141110396751
    C            0.292781223170    -0.657648937445    -0.105444586475
    H           -1.043228681512     0.774467793922    -1.002842080969
    H           -1.160223211708     0.715989267551     0.744613090105
    O            1.434881568982     0.138560050262    -0.223494100750
    H            0.304995327389    -1.313577628807    -0.968554544892
    H            0.331614030694    -1.264957365458     0.796245993330
    C            1.542541056872     1.218721349858     0.653261796721
    H            1.386659312889     0.915116634719     1.686983841621
    H            2.546732087808     1.607285036237     0.555069707053
    H            0.841520465275     2.012855072700     0.414392344689

  Mulliken Charges: (a.u.)
   Center  Symbol    Alpha    Beta     Spin     Total
       1     H     0.28060  0.28060  0.00000  0.43881
       2     O     4.37013  4.37013  0.00000 -0.74027
       3     C     3.01464  3.01464  0.00000 -0.02927
       4     C     2.99595  2.99595  0.00000  0.00810
       5     H     0.42332  0.42332  0.00000  0.15336
       6     H     0.41397  0.41397  0.00000  0.17206
       7     O     4.30772  4.30772  0.00000 -0.61545
       8     H     0.42199  0.42199  0.00000  0.15601
       9     H     0.42158  0.42158  0.00000  0.15685
      10     C     3.08517  3.08517  0.00000 -0.17034
      11     H     0.42830  0.42830  0.00000  0.14340
      12     H     0.40964  0.40964  0.00000  0.18071
      13     H     0.42699  0.42699  0.00000  0.14602

   Total alpha = 21.00000, Total beta = 21.00000, Total charge =  0.00000
