                              Psi4 1.0.54 Driver

  ==> Input File <==

--------------------------------------------------------------------------
set {
	reference rhf
	basis cc-pvtz
}

set_num_threads( 4 )
memory 2 gb

molecule MOL {
0 1

H	 -1.062082	 1.940313	 1.457559
C	 -0.873759	 1.088369	 0.838963
C	 -1.907919	 0.480514	 0.057823
C	 0.347704	 0.553141	 0.771184
H	 -2.901341	 0.886986	 0.090228
C	 -1.645478	 -0.583766	 -0.707035
H	 1.173236	 0.952081	 1.326599
N	 0.640204	 -0.530428	 -0.000115
H	 -2.393442	 -1.063685	 -1.303850
C	 -0.312516	 -1.164562	 -0.778593
C	 2.006991	 -1.033007	 -0.000020
O	 -0.037658	 -2.119251	 -1.453326
H	 2.182444	 -1.636914	 -0.880881
H	 2.678769	 -0.195442	 -0.002236
H	 2.183828	 -1.633244	 0.883082

	symmetry c1
}
set optking {
	frozen_dihedral = ("
		10 8 11 13
	")
}

ee,wfn = optimize('scf', return_wfn=True)
oeprop( wfn, 'DIPOLE', 'QUADRUPOLE', 'MULLIKEN_CHARGES')
f=open( 'psi4out.xyz', 'w' )
f.write( "15  " )
f.write( str(ee) + "\n" )
f.write( MOL.save_string_xyz() )
f.close()
--------------------------------------------------------------------------

    Molecular point group: c1
  Charge       = 0
  Multiplicity = 1
  Basis Set: CC-PVTZ
  Basis Set:
  @DF-RHF Final Energy:  -360.72248619649099
    Total Energy =                       -360.7224861964907632
    Molecular point group: c1
  Basis Set: CC-PVTZ
  Basis Set:
  Basis Set: CC-PVTZ
  Basis Set:
  @DF-RHF Final Energy:  -360.72270784355277
    Total Energy =                       -360.7227078435529961
  Basis Set: CC-PVTZ
  Basis Set:
  Basis Set: CC-PVTZ
  Basis Set:
  @DF-RHF Final Energy:  -360.72271160966471
    Total Energy =                       -360.7227116096648274
  Basis Set: CC-PVTZ
  Basis Set:
  Basis Set: CC-PVTZ
  Basis Set:
  @DF-RHF Final Energy:  -360.72273610557801
    Total Energy =                       -360.7227361055779511
  Basis Set: CC-PVTZ
  Basis Set:
  Charge       = 0
  Multiplicity = 1
  Basis Set: CC-PVTZ
  Basis Set:

    Orbital Energies (a.u.)
    -----------------------

    Doubly Occupied:

       1A    -20.501798     2A    -15.616772     3A    -11.339157
       4A    -11.293470     5A    -11.264033     6A    -11.258185
       7A    -11.230427     8A    -11.228249     9A     -1.390692
      10A     -1.285785    11A     -1.118804    12A     -1.028937
      13A     -0.972393    14A     -0.875913    15A     -0.838657
      16A     -0.719215    17A     -0.702866    18A     -0.663543
      19A     -0.652738    20A     -0.625432    21A     -0.611906
      22A     -0.574624    23A     -0.556725    24A     -0.550567
      25A     -0.529752    26A     -0.483192    27A     -0.420398
      28A     -0.410568    29A     -0.310791

  @DF-RHF Final Energy:  -360.72273759908745

   => Energetics <=

    Nuclear Repulsion Energy =            358.5317187324695283
    One-Electron Energy =               -1200.3977336657430897
    Two-Electron Energy =                 481.1432773341861093
    DFT Exchange-Correlation Energy =       0.0000000000000000
    Empirical Dispersion Energy =           0.0000000000000000
    PCM Polarization Energy =               0.0000000000000000
    EFP Energy =                            0.0000000000000000
    Total Energy =                       -360.7227375990875089
    Molecular point group: c1
  Basis Set: CC-PVTZ
  Basis Set:

  -Total Gradient:
     Atom            X                  Y                   Z
    ------   -----------------  -----------------  -----------------
       1       -0.000002965386    -0.000005607512     0.000003515530
       2        0.000038133958    -0.000027501441     0.000010970912
       3       -0.000028023834    -0.000010037271    -0.000037524083
       4       -0.000038278161     0.000073249664    -0.000025789844
       5       -0.000003436100    -0.000000082882     0.000003881209
       6       -0.000032540568     0.000027347510     0.000019756776
       7        0.000012371492    -0.000020101465     0.000002276054
       8       -0.000224167719    -0.000651022238     0.000645158922
       9        0.000005067110    -0.000001092535     0.000004550100
      10        0.000120363052     0.000370240093    -0.000351289073
      11        0.000294178222     0.000819434797    -0.000523577592
      12        0.000048083949     0.000014924697     0.000010926725
      13       -0.000131014190    -0.000555491997     0.000225101051
      14       -0.000054176342    -0.000053966715     0.000000906336
      15       -0.000003595484     0.000019707293     0.000011136976

  **** Optimization is complete! (in 5 steps) ****
    Final optimized geometry and variables:
    Molecular point group: c1

    Geometry (in Angstrom), charge = 0, multiplicity = 1:

    H           -0.901109833735     2.399481873513     1.632908125486
    C           -0.710099577324     1.547280346443     1.015487669602
    C           -1.743593308568     0.931706805845     0.239768711494
    C            0.516227549011     1.023341848968     0.940198908388
    H           -2.739200902116     1.332578976203     0.275190002896
    C           -1.477920507408    -0.132484425383    -0.524375383167
    H            1.341363904028     1.431526158363     1.488971404230
    N            0.812521438926    -0.057104308658     0.166683952502
    H           -2.225431167097    -0.619273106693    -1.116303750753
    C           -0.143248466705    -0.708871984375    -0.592649444505
    C            2.176366649920    -0.566576637146     0.159408959906
    O            0.135114220091    -1.676137159414    -1.247633381002
    H            2.312809560446    -1.178354087847    -0.713351685508
    H            2.870908262118     0.261098498183     0.139698685001
    H            2.365266215981    -1.169731807036     1.039027207891

  Mulliken Charges: (a.u.)
   Center  Symbol    Alpha    Beta     Spin     Total
       1     H     0.41396  0.41396  0.00000  0.17208
       2     C     3.10312  3.10312  0.00000 -0.20623
       3     C     3.06166  3.06166  0.00000 -0.12331
       4     C     3.03308  3.03308  0.00000 -0.06617
       5     H     0.41837  0.41837  0.00000  0.16326
       6     C     3.11702  3.11702  0.00000 -0.23404
       7     H     0.42127  0.42127  0.00000  0.15745
       8     N     3.51179  3.51179  0.00000 -0.02359
       9     H     0.40895  0.40895  0.00000  0.18211
      10     C     2.84530  2.84530  0.00000  0.30941
      11     C     3.10453  3.10453  0.00000 -0.20906
      12     O     4.23647  4.23647  0.00000 -0.47293
      13     H     0.42364  0.42364  0.00000  0.15272
      14     H     0.45367  0.45367  0.00000  0.09266
      15     H     0.44718  0.44718  0.00000  0.10565

   Total alpha = 29.00000, Total beta = 29.00000, Total charge = -0.00000

*** Psi4 exiting successfully. Buy a developer a beer!
