  ==> Input File <==

--------------------------------------------------------------------------
set {
	reference rhf
	basis 6-31G*
}

set_num_threads( 1 )
memory 2 gb

molecule MOL {
0 1

H	 -4.031818	 -0.453427	 -0.000094
C	 -2.967712	 -0.297022	 -0.000064
C	 -2.458620	 0.992929	 0.000032
C	 -2.109895	 -1.385637	 -0.000122
H	 -3.124998	 1.836319	 0.000077
C	 -1.090278	 1.193236	 0.000070
H	 -2.506361	 -2.384847	 -0.000198
C	 -0.739812	 -1.187531	 -0.000085
H	 -0.678594	 2.184290	 0.000146
C	 -0.226438	 0.104061	 0.000012
H	 -0.072310	 -2.027032	 -0.000131
C	 1.239129	 0.373821	 0.000060
O	 1.542384	 1.594063	 -0.416653
O	 2.061724	 -0.418685	 0.337891
C	 2.916638	 1.936246	 -0.448410
H	 3.345592	 1.871425	 0.540828
H	 2.958146	 2.951977	 -0.809550
H	 3.455094	 1.278221	 -1.114734

	symmetry c1
}
set optking {
	frozen_dihedral = ("
		12 13 15 16,
		10 12 13 15
	")
}

ee = energy('scf')
oeprop('DIPOLE', 'QUADRUPOLE', 'MULLIKEN_CHARGES')
f=open( 'psi4out.xyz', 'w' )
f.write( "18  " )
f.write( str(ee) + "\n" )
f.write( MOL.save_string_xyz() )
f.close()
--------------------------------------------------------------------------

    Molecular point group: c1

    Geometry (in Angstrom), charge = 0, multiplicity = 1:

       Center              X                  Y                   Z               Mass
    ------------   -----------------  -----------------  -----------------  -----------------
           H         -3.971129391679    -0.783148185697     0.058974100788     1.007825032070
           C         -2.907023391679    -0.626743185697     0.059004100788    12.000000000000
           C         -2.397931391679     0.663207814303     0.059100100788    12.000000000000
           C         -2.049206391679    -1.715358185697     0.058946100788    12.000000000000
           H         -3.064309391679     1.506597814303     0.059145100788     1.007825032070
           C         -1.029589391679     0.863514814303     0.059138100788    12.000000000000
           H         -2.445672391679    -2.714568185697     0.058870100788     1.007825032070
           C         -0.679123391679    -1.517252185697     0.058983100788    12.000000000000
           H         -0.617905391679     1.854568814303     0.059214100788     1.007825032070
           C         -0.165749391679    -0.225660185697     0.059080100788    12.000000000000
           H         -0.011621391679    -2.356753185697     0.058937100788     1.007825032070
           C          1.299817608321     0.044099814303     0.059128100788    12.000000000000
           O          1.603072608321     1.264341814303    -0.357584899212    15.994914619560
           O          2.122412608321    -0.748406185697     0.396959100788    15.994914619560
           C          2.977326608321     1.606524814303    -0.389341899212    12.000000000000
           H          3.406280608321     1.541703814303     0.599896100788     1.007825032070
           H          3.018834608321     2.622255814303    -0.750481899212     1.007825032070
           H          3.515782608321     0.948499814303    -1.055665899212     1.007825032070

  Charge       = 0
  Multiplicity = 1
  Basis Set: 6-31G*
  Basis Set:

    Orbital Energies (a.u.)
    -----------------------

    Doubly Occupied:

       1A    -20.608342     2A    -20.544255     3A    -11.377649
       4A    -11.283527     5A    -11.246415     6A    -11.244851
       7A    -11.244410     8A    -11.242252     9A    -11.237892
      10A    -11.237324    11A     -1.473270    12A     -1.363532
      13A     -1.165722    14A     -1.049191    15A     -1.025073
      16A     -0.978052    17A     -0.860180    18A     -0.835155
      19A     -0.778054    20A     -0.739928    21A     -0.684773
      22A     -0.677822    23A     -0.671723    24A     -0.631826
      25A     -0.624145    26A     -0.598377    27A     -0.585749
      28A     -0.559094    29A     -0.530381    30A     -0.519327
      31A     -0.504273    32A     -0.498826    33A     -0.458622
      34A     -0.442663    35A     -0.344404    36A     -0.341514

  @DF-RHF Final Energy:  -457.34826632088419

   => Energetics <=

    Nuclear Repulsion Energy =            493.1529239674956102
    One-Electron Energy =               -1600.5853562508775667
    Two-Electron Energy =                 650.0841659624979911
    DFT Exchange-Correlation Energy =       0.0000000000000000
    Empirical Dispersion Energy =           0.0000000000000000
    PCM Polarization Energy =               0.0000000000000000
    EFP Energy =                            0.0000000000000000
    Total Energy =                       -457.3482663208840222

  Mulliken Charges: (a.u.)
   Center  Symbol    Alpha    Beta     Spin     Total
       1     H     0.39553  0.39553  0.00000  0.20895
       2     C     3.09079  3.09079  0.00000 -0.18159
       3     C     3.10586  3.10586  0.00000 -0.21173
       4     C     3.10702  3.10702  0.00000 -0.21403
       5     H     0.39636  0.39636  0.00000  0.20728
       6     C     3.08961  3.08961  0.00000 -0.17922
       7     H     0.39520  0.39520  0.00000  0.20960
       8     C     3.08714  3.08714  0.00000 -0.17429
       9     H     0.37970  0.37970  0.00000  0.24060
      10     C     3.06461  3.06461  0.00000 -0.12922
      11     H     0.37990  0.37990  0.00000  0.24020
      12     C     2.59224  2.59224  0.00000  0.81552
      13     O     4.31160  4.31160  0.00000 -0.62320
      14     O     4.28954  4.28954  0.00000 -0.57907
      15     C     3.09251  3.09251  0.00000 -0.18502
      16     H     0.40745  0.40745  0.00000  0.18511
      17     H     0.40777  0.40777  0.00000  0.18447
      18     H     0.40718  0.40718  0.00000  0.18564

   Total alpha = 36.00000, Total beta = 36.00000, Total charge =  0.00000
