  ==> Input File <==

--------------------------------------------------------------------------
set {
	reference rhf
	basis 6-31G*
}

set_num_threads( 1 )
memory 2 gb

molecule MOL {
0 1

H	 -3.261111	 -0.295142	 1.469456
C	 -3.306842	 -0.277400	 0.373456
C	 -2.660244	 0.921717	 -0.272021
O	 -3.838538	 -1.161155	 -0.216482
C	 -1.139743	 0.953813	 -0.063929
H	 -2.918635	 0.924527	 -1.324606
H	 -3.102688	 1.807196	 0.182760
C	 -0.401248	 -0.177896	 -0.783067
H	 -0.764597	 1.910204	 -0.415874
H	 -0.920123	 0.916409	 1.001962
C	 1.113829	 -0.126726	 -0.576335
H	 -0.624539	 -0.129023	 -1.846834
H	 -0.777439	 -1.140106	 -0.440765
C	 1.850670	 -1.250448	 -1.310001
H	 1.482261	 0.839982	 -0.910199
H	 1.334657	 -0.187869	 0.488504
C	 3.363562	 -1.289279	 -1.065624
H	 1.661989	 -1.166815	 -2.379159
H	 1.426843	 -2.203784	 -1.001399
C	 4.128311	 -0.086867	 -1.621486
H	 3.761041	 -2.194056	 -1.518766
H	 3.553839	 -1.376693	 0.002119
H	 3.943749	 0.034930	 -2.685615
H	 3.846081	 0.837548	 -1.128761
H	 5.197931	 -0.214309	 -1.484857

	symmetry c1
}
set optking {
	frozen_dihedral = ("
		6 3 5 8,
		3 5 8 12,
		12 8 11 14,
		8 11 14 18,
		20 17 14 18
	")
}

ee = energy('scf')
oeprop('DIPOLE', 'QUADRUPOLE', 'MULLIKEN_CHARGES')
f=open( 'psi4out.xyz', 'w' )
f.write( "25  " )
f.write( str(ee) + "\n" )
f.write( MOL.save_string_xyz() )
f.close()
--------------------------------------------------------------------------

    Molecular point group: c1

    Geometry (in Angstrom), charge = 0, multiplicity = 1:

       Center              X                  Y                   Z               Mass
    ------------   -----------------  -----------------  -----------------  -----------------
           H         -3.166902561958    -0.012443083964     2.089004047355     1.007825032070
           C         -3.212633561958     0.005298916036     0.993004047355    12.000000000000
           C         -2.566035561958     1.204415916036     0.347527047355    12.000000000000
           O         -3.744329561958    -0.878456083964     0.403066047355    15.994914619560
           C         -1.045534561958     1.236511916036     0.555619047355    12.000000000000
           H         -2.824426561958     1.207225916036    -0.705057952645     1.007825032070
           H         -3.008479561958     2.089894916036     0.802308047355     1.007825032070
           C         -0.307039561958     0.104802916036    -0.163518952645    12.000000000000
           H         -0.670388561958     2.192902916036     0.203674047355     1.007825032070
           H         -0.825914561958     1.199107916036     1.621510047355     1.007825032070
           C          1.208037438042     0.155972916036     0.043213047355    12.000000000000
           H         -0.530330561958     0.153675916036    -1.227285952645     1.007825032070
           H         -0.683230561958    -0.857407083964     0.178783047355     1.007825032070
           C          1.944878438042    -0.967749083964    -0.690452952645    12.000000000000
           H          1.576469438042     1.122680916036    -0.290650952645     1.007825032070
           H          1.428865438042     0.094829916036     1.108052047355     1.007825032070
           C          3.457770438042    -1.006580083964    -0.446075952645    12.000000000000
           H          1.756197438042    -0.884116083964    -1.759610952645     1.007825032070
           H          1.521051438042    -1.921085083964    -0.381850952645     1.007825032070
           C          4.222519438042     0.195831916036    -1.001937952645    12.000000000000
           H          3.855249438042    -1.911357083964    -0.899217952645     1.007825032070
           H          3.648047438042    -1.093994083964     0.621667047355     1.007825032070
           H          4.037957438042     0.317628916036    -2.066066952645     1.007825032070
           H          3.940289438042     1.120246916036    -0.509212952645     1.007825032070
           H          5.292139438042     0.068389916036    -0.865308952645     1.007825032070

  Charge       = 0
  Multiplicity = 1
  Basis Set: 6-31G*
  Basis Set:

    Orbital Energies (a.u.)
    -----------------------

    Doubly Occupied:

       1A    -20.562475     2A    -11.326213     3A    -11.235674
       4A    -11.234548     5A    -11.221908     6A    -11.218619
       7A    -11.217147     8A    -11.215911     9A    -11.209989
      10A     -1.402402    11A     -1.102853    12A     -1.068892
      13A     -1.012670    14A     -0.942156    15A     -0.875210
      16A     -0.819274    17A     -0.786702    18A     -0.779898
      19A     -0.667555    20A     -0.662215    21A     -0.632210
      22A     -0.623025    23A     -0.598413    24A     -0.592031
      25A     -0.578211    26A     -0.549449    27A     -0.536243
      28A     -0.522289    29A     -0.508662    30A     -0.494591
      31A     -0.490790    32A     -0.478224    33A     -0.463695
      34A     -0.457764    35A     -0.440396    36A     -0.409362

  @DF-RHF Final Energy:  -387.12181695905514

   => Energetics <=

    Nuclear Repulsion Energy =            440.2109963010438491
    One-Electron Energy =               -1396.7904419039425647
    Two-Electron Energy =                 569.4576286438439183
    DFT Exchange-Correlation Energy =       0.0000000000000000
    Empirical Dispersion Energy =           0.0000000000000000
    PCM Polarization Energy =               0.0000000000000000
    EFP Energy =                            0.0000000000000000
    Total Energy =                       -387.1218169590547404

  Mulliken Charges: (a.u.)
   Center  Symbol    Alpha    Beta     Spin     Total
       1     H     0.43224  0.43224  0.00000  0.13552
       2     C     2.83257  2.83257  0.00000  0.33486
       3     C     3.20608  3.20608  0.00000 -0.41217
       4     O     4.23686  4.23686  0.00000 -0.47371
       5     C     3.16583  3.16583  0.00000 -0.33167
       6     H     0.40013  0.40013  0.00000  0.19975
       7     H     0.41015  0.41015  0.00000  0.17971
       8     C     3.15479  3.15479  0.00000 -0.30959
       9     H     0.41273  0.41273  0.00000  0.17454
      10     H     0.41944  0.41944  0.00000  0.16113
      11     C     3.15438  3.15438  0.00000 -0.30875
      12     H     0.41815  0.41815  0.00000  0.16369
      13     H     0.41592  0.41592  0.00000  0.16816
      14     C     3.15305  3.15305  0.00000 -0.30610
      15     H     0.42136  0.42136  0.00000  0.15728
      16     H     0.42404  0.42404  0.00000  0.15191
      17     C     3.15270  3.15270  0.00000 -0.30540
      18     H     0.42304  0.42304  0.00000  0.15391
      19     H     0.42035  0.42035  0.00000  0.15929
      20     C     3.24126  3.24126  0.00000 -0.48252
      21     H     0.42006  0.42006  0.00000  0.15987
      22     H     0.42333  0.42333  0.00000  0.15334
      23     H     0.42197  0.42197  0.00000  0.15606
      24     H     0.42073  0.42073  0.00000  0.15853
      25     H     0.41883  0.41883  0.00000  0.16234

   Total alpha = 36.00000, Total beta = 36.00000, Total charge =  0.00000
