                              Psi4 1.0.54 Driver

  ==> Input File <==

--------------------------------------------------------------------------
set {
	reference rhf
	basis cc-pvtz
}

set_num_threads( 4 )
memory 2 gb

molecule MOL {
0 1

H	 -0.982321	 2.156738	 -1.128698
C	 -0.827873	 1.212876	 -0.649946
C	 -1.904831	 0.488891	 -0.045660
C	 0.389920	 0.667692	 -0.597147
H	 -2.896495	 0.900133	 -0.070944
C	 -1.684272	 -0.689032	 0.546309
H	 1.245901	 1.149252	 -1.026727
N	 0.640204	 -0.530428	 -0.000115
H	 -2.464938	 -1.257683	 1.007999
C	 -0.355234	 -1.280475	 0.601850
C	 2.006991	 -1.033007	 -0.000020
O	 -0.117349	 -2.335488	 1.123962
H	 2.182444	 -1.636914	 -0.880881
H	 2.678769	 -0.195442	 -0.002236
H	 2.183828	 -1.633244	 0.883082

	symmetry c1
}
set optking {
	frozen_dihedral = ("
		10 8 11 13
	")
}

ee,wfn = optimize('scf', return_wfn=True)
oeprop( wfn, 'DIPOLE', 'QUADRUPOLE', 'MULLIKEN_CHARGES')
f=open( 'psi4out.xyz', 'w' )
f.write( "15  " )
f.write( str(ee) + "\n" )
f.write( MOL.save_string_xyz() )
f.close()
--------------------------------------------------------------------------

    Molecular point group: c1
  Charge       = 0
  Multiplicity = 1
  Basis Set: CC-PVTZ
  Basis Set:
  @DF-RHF Final Energy:  -360.72266809418289
    Total Energy =                       -360.7226680941829500
    Molecular point group: c1
  Basis Set: CC-PVTZ
  Basis Set:
  Basis Set: CC-PVTZ
  Basis Set:
  @DF-RHF Final Energy:  -360.72293672626313
    Total Energy =                       -360.7229367262630149
  Basis Set: CC-PVTZ
  Basis Set:
  Basis Set: CC-PVTZ
  Basis Set:
  @DF-RHF Final Energy:  -360.72294477212154
    Total Energy =                       -360.7229447721211955
  Basis Set: CC-PVTZ
  Basis Set:
  Basis Set: CC-PVTZ
  Basis Set:
  @DF-RHF Final Energy:  -360.72297237204128
    Total Energy =                       -360.7229723720413403
  Basis Set: CC-PVTZ
  Basis Set:
  Charge       = 0
  Multiplicity = 1
  Basis Set: CC-PVTZ
  Basis Set:

    Orbital Energies (a.u.)
    -----------------------

    Doubly Occupied:

       1A    -20.501827     2A    -15.617144     3A    -11.338605
       4A    -11.293846     5A    -11.264801     6A    -11.258151
       7A    -11.230100     8A    -11.228073     9A     -1.390836
      10A     -1.285812    11A     -1.118807    12A     -1.029046
      13A     -0.972524    14A     -0.876149    15A     -0.838755
      16A     -0.719372    17A     -0.702508    18A     -0.663739
      19A     -0.653016    20A     -0.625720    21A     -0.611880
      22A     -0.574727    23A     -0.555271    24A     -0.550773
      25A     -0.530318    26A     -0.483714    27A     -0.420548
      28A     -0.410499    29A     -0.310524

  @DF-RHF Final Energy:  -360.72297937540884

   => Energetics <=

    Nuclear Repulsion Energy =            358.6348238382013278
    One-Electron Energy =               -1200.6014384285026608
    Two-Electron Energy =                 481.2436352148927199
    DFT Exchange-Correlation Energy =       0.0000000000000000
    Empirical Dispersion Energy =           0.0000000000000000
    PCM Polarization Energy =               0.0000000000000000
    EFP Energy =                            0.0000000000000000
    Total Energy =                       -360.7229793754086131
    Molecular point group: c1
  Basis Set: CC-PVTZ
  Basis Set:

  -Total Gradient:
     Atom            X                  Y                   Z
    ------   -----------------  -----------------  -----------------
       1       -0.000009467953    -0.000000196838    -0.000007921881
       2        0.000076412012    -0.000033763137    -0.000014029713
       3       -0.000047066308    -0.000040496759     0.000039916240
       4       -0.000083900903     0.000121979399     0.000026147540
       5        0.000002865665     0.000008785917    -0.000006926437
       6       -0.000063137080     0.000041652300    -0.000031235915
       7        0.000014141985    -0.000031554568    -0.000009104587
       8       -0.000107752566    -0.000411133899    -0.001004048372
       9        0.000012598107    -0.000001586827     0.000000494534
      10        0.000208447066     0.000483078716     0.000566427652
      11       -0.000270592861    -0.000736832547     0.000792540626
      12        0.000002021896    -0.000080355962     0.000028046044
      13        0.000252844568     0.000732229475    -0.000425705360
      14       -0.000037697229    -0.000006721692    -0.000011412834
      15        0.000050283602    -0.000045083582     0.000056812462

  **** Optimization is complete! (in 5 steps) ****
    Final optimized geometry and variables:
    Molecular point group: c1

    Geometry (in Angstrom), charge = 0, multiplicity = 1:

    H           -0.850640971334     2.641317715297    -1.241770337821
    C           -0.679163789930     1.696486619486    -0.770785683868
    C           -1.741845271789     0.951328805580    -0.168031510709
    C            0.549878603138     1.174804038590    -0.721616843399
    H           -2.739771707460     1.347553332757    -0.186605421366
    C           -1.500986687167    -0.227468814079     0.415228939257
    H            1.395372458069     1.676654943686    -1.147478428551
    N            0.820674673296    -0.020656174099    -0.130209923252
    H           -2.270894906266    -0.812775725925     0.874332949977
    C           -0.163781211984    -0.799308780227     0.451535495212
    C            2.184713749316    -0.528670699377    -0.130786056294
    O            0.098959643188    -1.864961235681     0.939133064832
    H            2.378461521080    -1.114987802441    -1.020268729005
    H            2.872688892609     0.303639457243    -0.100332229087
    H            2.329805647992    -1.150928340690     0.733916393883

  Mulliken Charges: (a.u.)
   Center  Symbol    Alpha    Beta     Spin     Total
       1     H     0.41389  0.41389  0.00000  0.17222
       2     C     3.10440  3.10440  0.00000 -0.20879
       3     C     3.06109  3.06109  0.00000 -0.12218
       4     C     3.03412  3.03412  0.00000 -0.06824
       5     H     0.41840  0.41840  0.00000  0.16319
       6     C     3.11781  3.11781  0.00000 -0.23562
       7     H     0.42133  0.42133  0.00000  0.15734
       8     N     3.51071  3.51071  0.00000 -0.02141
       9     H     0.40905  0.40905  0.00000  0.18191
      10     C     2.84525  2.84525  0.00000  0.30951
      11     C     3.09945  3.09945  0.00000 -0.19891
      12     O     4.23625  4.23625  0.00000 -0.47250
      13     H     0.44628  0.44628  0.00000  0.10743
      14     H     0.45495  0.45495  0.00000  0.09009
      15     H     0.42701  0.42701  0.00000  0.14597

   Total alpha = 29.00000, Total beta = 29.00000, Total charge =  0.00000

*** Psi4 exiting successfully. Buy a developer a beer!
