  ==> Input File <==

--------------------------------------------------------------------------
set {
	reference rhf
	basis 6-31G*
}

set_num_threads( 4 )
memory 2 gb

molecule MOL {
0 1

H	 -0.821032	 -1.655889	 0.000000
O	 -1.037828	 -0.728600	 0.000000
C	 0.100509	 -0.036935	 0.000000
C	 1.043579	 -0.512438	 -1.067904
O	 0.308999	 0.843874	 0.768069
H	 1.268945	 -1.561423	 -0.914425
H	 1.951050	 0.071147	 -1.035113
H	 0.572792	 -0.415699	 -2.039355

	symmetry c1
}
set optking {
	frozen_dihedral = ("
		4 3 2 1
	")
}

ee = optimize('scf')
oeprop('DIPOLE', 'QUADRUPOLE', 'MULLIKEN_CHARGES')
f=open( 'psi4out.xyz', 'w' )
f.write( "8  " )
f.write( str(ee) + "\n" )
f.write( MOL.save_string_xyz() )
f.close()
--------------------------------------------------------------------------

    Molecular point group: c1
  Charge       = 0
  Multiplicity = 1
  Basis Set: 6-31G*
  Basis Set:
  @DF-RHF Final Energy:  -227.79040524850092
    Total Energy =                       -227.7904052485009174
    Molecular point group: c1
  Basis Set: 6-31G*
  Basis Set:
  Basis Set: 6-31G*
  Basis Set:
  @DF-RHF Final Energy:  -227.79028092566773
    Total Energy =                       -227.7902809256676733
  Basis Set: 6-31G*
  Basis Set:
  Basis Set: 6-31G*
  Basis Set:
  @DF-RHF Final Energy:  -227.79166199833085
    Total Energy =                       -227.7916619983307669
  Basis Set: 6-31G*
  Basis Set:
  Basis Set: 6-31G*
  Basis Set:
  @DF-RHF Final Energy:  -227.79264867407562
    Total Energy =                       -227.7926486740756218
  Basis Set: 6-31G*
  Basis Set:
  Basis Set: 6-31G*
  Basis Set:
  @DF-RHF Final Energy:  -227.79267750451919
    Total Energy =                       -227.7926775045191334
  Basis Set: 6-31G*
  Basis Set:
  Basis Set: 6-31G*
  Basis Set:
  @DF-RHF Final Energy:  -227.79270063951145
    Total Energy =                       -227.7927006395113949
  Basis Set: 6-31G*
  Basis Set:
  Charge       = 0
  Multiplicity = 1
  Basis Set: 6-31G*
  Basis Set:

    Orbital Energies (a.u.)
    -----------------------

    Doubly Occupied:

       1A    -20.606637     2A    -20.556810     3A    -11.385699
       4A    -11.248721     5A     -1.466052     6A     -1.372385
       7A     -1.024910     8A     -0.834325     9A     -0.716246
      10A     -0.666939    11A     -0.659602    12A     -0.598905
      13A     -0.576176    14A     -0.531950    15A     -0.485830
      16A     -0.448209

  @DF-RHF Final Energy:  -227.79270626490381

   => Energetics <=

    Nuclear Repulsion Energy =            121.9489258428647958
    One-Electron Energy =                -553.1244711005123236
    Two-Electron Energy =                 203.3828389927435865
    DFT Exchange-Correlation Energy =       0.0000000000000000
    Empirical Dispersion Energy =           0.0000000000000000
    PCM Polarization Energy =               0.0000000000000000
    EFP Energy =                            0.0000000000000000
    Total Energy =                       -227.7927062649039271
    Molecular point group: c1
  Basis Set: 6-31G*
  Basis Set:

  -Total Gradient:
     Atom            X                  Y                   Z
    ------   -----------------  -----------------  -----------------
       1        0.000211180934     0.000156802910     0.006671697227
       2       -0.001270271447     0.000945152659    -0.009746967936
       3        0.002988366501    -0.003608766474     0.005912009050
       4       -0.001839787788     0.002766614725    -0.002752882463
       5       -0.000094040425    -0.000171797120    -0.000070799819
       6        0.000010472077    -0.000032073773    -0.000010655626
       7        0.000010528959    -0.000033819257    -0.000004800241
       8       -0.000016448807    -0.000022113670     0.000002399807

  **** Optimization is complete! (in 7 steps) ****
    Final optimized geometry and variables:
    Molecular point group: c1

    Geometry (in Angstrom), charge = 0, multiplicity = 1:

    H           -0.973747162133    -1.557376246182     0.154677536226
    O           -1.123523801759    -0.620759337288     0.139671649950
    C            0.030685038612     0.077098709395     0.088382139763
    C            0.991817230080    -0.374222847176    -0.984171371674
    O            0.187779444888     1.033102766871     0.760370363680
    H            1.198748923712    -1.438025525264    -0.916639223735
    H            1.915421086835     0.178952743856    -0.905403521868
    H            0.535759806070    -0.189934223793    -1.950945770258

  Mulliken Charges: (a.u.)
   Center  Symbol    Alpha    Beta     Spin     Total
       1     H     0.26956  0.26956  0.00000  0.46089
       2     O     4.35255  4.35255  0.00000 -0.70510
       3     C     2.63589  2.63589  0.00000  0.72823
       4     C     3.29482  3.29482  0.00000 -0.58964
       5     O     4.24847  4.24847  0.00000 -0.49694
       6     H     0.41320  0.41320  0.00000  0.17360
       7     H     0.39141  0.39141  0.00000  0.21718
       8     H     0.39411  0.39411  0.00000  0.21178

   Total alpha = 16.00000, Total beta = 16.00000, Total charge = -0.00000
