  ==> Input File <==

--------------------------------------------------------------------------
set {
	reference rhf
	basis 6-31G*
}

set_num_threads( 4 )
memory 2 gb

molecule MOL {
0 1

H	 -4.203148	 -0.270057	 0.880558
O	 -3.497019	 -0.509843	 0.297644
C	 -2.285512	 0.006169	 0.786084
C	 -1.177863	 -0.397191	 -0.171080
H	 -2.334794	 1.091486	 0.863316
H	 -2.077383	 -0.382436	 1.782080
C	 0.198102	 0.111031	 0.262842
H	 -1.423588	 -0.015869	 -1.158471
H	 -1.170322	 -1.480934	 -0.248023
C	 1.331804	 -0.827780	 -0.158768
H	 0.361943	 1.100838	 -0.156218
H	 0.217265	 0.229072	 1.345532
C	 2.723619	 -0.410569	 0.329459
H	 1.342964	 -0.912588	 -1.244120
H	 1.116806	 -1.824343	 0.220779
C	 3.243875	 0.895854	 -0.272975
H	 3.424222	 -1.207124	 0.091250
H	 2.714788	 -0.329854	 1.414619
H	 3.251977	 0.848779	 -1.358681
H	 2.637085	 1.747371	 0.016682
H	 4.259473	 1.094070	 0.055697

	symmetry c1
}
set optking {
	frozen_dihedral = ("
		8 4 7 10
	")
}

ee = optimize('scf')
oeprop('DIPOLE', 'QUADRUPOLE', 'MULLIKEN_CHARGES')
f=open( 'psi4out.xyz', 'w' )
f.write( "21  " )
f.write( str(ee) + "\n" )
f.write( MOL.save_string_xyz() )
f.close()
--------------------------------------------------------------------------

    Molecular point group: c1
  Charge       = 0
  Multiplicity = 1
  Basis Set: 6-31G*
  Basis Set:
  @DF-RHF Final Energy:  -310.21008363934925
    Total Energy =                       -310.2100836393495342
    Molecular point group: c1
  Basis Set: 6-31G*
  Basis Set:
  Basis Set: 6-31G*
  Basis Set:
  @DF-RHF Final Energy:  -310.21031001517417
    Total Energy =                       -310.2103100151739454
  Basis Set: 6-31G*
  Basis Set:
  Basis Set: 6-31G*
  Basis Set:
  @DF-RHF Final Energy:  -310.21038395578177
    Total Energy =                       -310.2103839557814808
  Basis Set: 6-31G*
  Basis Set:
  Basis Set: 6-31G*
  Basis Set:
  @DF-RHF Final Energy:  -310.21038511066240
    Total Energy =                       -310.2103851106622301
  Basis Set: 6-31G*
  Basis Set:
  Basis Set: 6-31G*
  Basis Set:
  @DF-RHF Final Energy:  -310.21039121185771
    Total Energy =                       -310.2103912118577682
  Basis Set: 6-31G*
  Basis Set:
  Basis Set: 6-31G*
  Basis Set:
  @DF-RHF Final Energy:  -310.21039357266085
    Total Energy =                       -310.2103935726609620
  Basis Set: 6-31G*
  Basis Set:
  Charge       = 0
  Multiplicity = 1
  Basis Set: 6-31G*
  Basis Set:

    Orbital Energies (a.u.)
    -----------------------

    Doubly Occupied:

       1A    -20.551806     2A    -11.267072     3A    -11.215752
       4A    -11.215162     5A    -11.213817     6A    -11.210541
       7A    -11.208112     8A     -1.358799     9A     -1.085483
      10A     -1.032738    11A     -0.954337    12A     -0.875301
      13A     -0.807324    14A     -0.779533    15A     -0.693088
      16A     -0.659363    17A     -0.620673    18A     -0.609406
      19A     -0.589269    20A     -0.560202    21A     -0.546017
      22A     -0.517842    23A     -0.505665    24A     -0.494040
      25A     -0.476015    26A     -0.458009    27A     -0.456195
      28A     -0.443684    29A     -0.433418

  @DF-RHF Final Energy:  -310.21039406256705

   => Energetics <=

    Nuclear Repulsion Energy =            312.2963067731510591
    One-Electron Energy =               -1039.3360783162165717
    Two-Electron Energy =                 416.8293774804985219
    DFT Exchange-Correlation Energy =       0.0000000000000000
    Empirical Dispersion Energy =           0.0000000000000000
    PCM Polarization Energy =               0.0000000000000000
    EFP Energy =                            0.0000000000000000
    Total Energy =                       -310.2103940625669907
    Molecular point group: c1
  Basis Set: 6-31G*
  Basis Set:

  -Total Gradient:
     Atom            X                  Y                   Z
    ------   -----------------  -----------------  -----------------
       1        0.000010528910     0.000007706535     0.000002167489
       2        0.000015529877     0.000000840006    -0.000010949755
       3       -0.000004910533    -0.000007014567    -0.000007224926
       4        0.001899042836    -0.004318729488    -0.001156738821
       5       -0.000009310404     0.000003348512     0.000000992375
       6        0.000004967177    -0.000003663780    -0.000008325619
       7       -0.000026585587     0.002801667173    -0.002819122843
       8       -0.001635145168     0.002973224889     0.001678326241
       9       -0.000035120040    -0.000014553724    -0.000005254268
      10       -0.000260720865    -0.001442391388     0.002281493506
      11        0.000013384368    -0.000009776681     0.000031100615
      12        0.000007644050    -0.000003791497    -0.000014673568
      13       -0.000009637929     0.000012244251     0.000047469694
      14       -0.000020300764    -0.000012574501    -0.000006866125
      15        0.000001808598     0.000006183839     0.000000799684
      16        0.000016405551     0.000009909695    -0.000009364277
      17       -0.000007871093     0.000009554141    -0.000003281515
      18        0.000017310381    -0.000010752344     0.000012659163
      19        0.000005650809     0.000006730438    -0.000006940108
      20        0.000021710739    -0.000012491972    -0.000000595585
      21       -0.000004380902     0.000004330462    -0.000005671358

  **** Optimization is complete! (in 7 steps) ****
    Final optimized geometry and variables:
    Molecular point group: c1

    Geometry (in Angstrom), charge = 0, multiplicity = 1:

    H           -4.228571845622    -0.033811841998     0.655204499236
    O           -3.519233355458    -0.277841946176     0.077945679594
    C           -2.297368495764     0.144171872658     0.625785780850
    C           -1.182469245020    -0.269831021920    -0.320506757077
    H           -2.289271909641     1.225479233939     0.759397446028
    H           -2.139775990099    -0.306111591565     1.604902736784
    C            0.194397875393     0.225501092918     0.148377537534
    H           -1.421602842153     0.145569001454    -1.294648579848
    H           -1.197396719427    -1.351201719644    -0.414624009602
    C            1.341196857175    -0.689405564214    -0.291253383830
    H            0.353067740868     1.238664780255    -0.207617271451
    H            0.209557010972     0.282514746450     1.236714979344
    C            2.731898229222    -0.241479305052     0.171877166609
    H            1.337116046309    -0.782202139298    -1.376488385824
    H            1.149638165317    -1.686651280387     0.098074049863
    C            3.228577013408     1.056221336176    -0.468361690658
    H            3.441064257790    -1.033940901961    -0.054349127988
    H            2.733469470486    -0.134441224747     1.254959010217
    H            3.230279782827     0.980153298932    -1.552382514564
    H            2.611358795352     1.906354042066    -0.197534909152
    H            4.243266063747     1.278018149363    -0.152178798663

  Mulliken Charges: (a.u.)
   Center  Symbol    Alpha    Beta     Spin     Total
       1     H     0.28117  0.28117  0.00000  0.43766
       2     O     4.37177  4.37177  0.00000 -0.74354
       3     C     2.99205  2.99205  0.00000  0.01589
       4     C     3.15942  3.15942  0.00000 -0.31884
       5     H     0.43296  0.43296  0.00000  0.13409
       6     H     0.43272  0.43272  0.00000  0.13457
       7     C     3.16319  3.16319  0.00000 -0.32639
       8     H     0.41278  0.41278  0.00000  0.17444
       9     H     0.41394  0.41394  0.00000  0.17211
      10     C     3.15275  3.15275  0.00000 -0.30551
      11     H     0.41788  0.41788  0.00000  0.16423
      12     H     0.42537  0.42537  0.00000  0.14926
      13     C     3.15305  3.15305  0.00000 -0.30610
      14     H     0.42268  0.42268  0.00000  0.15463
      15     H     0.42117  0.42117  0.00000  0.15766
      16     C     3.24092  3.24092  0.00000 -0.48183
      17     H     0.42061  0.42061  0.00000  0.15877
      18     H     0.42385  0.42385  0.00000  0.15229
      19     H     0.42171  0.42171  0.00000  0.15659
      20     H     0.42070  0.42070  0.00000  0.15860
      21     H     0.41929  0.41929  0.00000  0.16141

   Total alpha = 29.00000, Total beta = 29.00000, Total charge =  0.00000
