  ==> Input File <==

--------------------------------------------------------------------------
set {
	reference rhf
	basis cc-pvtz
}

set_num_threads( 4 )
memory 2 gb

molecule MOL {
0 1

O	 0.633940	 0.405070	 -0.963215
C	 0.029490	 0.077183	 0.000078
C	 -1.232113	 -0.748027	 0.000015
O	 0.392884	 0.401237	 1.229780
C	 -2.501422	 0.088592	 -0.000052
H	 -1.188777	 -1.400384	 -0.865133
H	 -1.188857	 -1.400312	 0.865225
H	 -2.548170	 0.725504	 -0.873205
H	 -3.371613	 -0.556398	 -0.000040
H	 -2.548215	 0.725571	 0.873047
C	 1.564620	 1.177811	 1.376777
H	 2.420479	 0.656398	 0.974447
H	 1.687813	 1.333418	 2.436227
H	 1.459515	 2.125851	 0.870399

	symmetry c1
}
set optking {
	frozen_dihedral = ("
		4 2 3 6
	")
}

ee = optimize('scf')
oeprop('DIPOLE', 'QUADRUPOLE', 'MULLIKEN_CHARGES')
f=open( 'psi4out.xyz', 'w' )
f.write( "14  " )
f.write( str(ee) + "\n" )
f.write( MOL.save_string_xyz() )
f.close()
--------------------------------------------------------------------------

    Molecular point group: c1
  Charge       = 0
  Multiplicity = 1
  Basis Set: CC-PVTZ
  Basis Set:
  @DF-RHF Final Energy:  -305.98547516660238
    Total Energy =                       -305.9854751666023844
    Molecular point group: c1
  Basis Set: CC-PVTZ
  Basis Set:
  Basis Set: CC-PVTZ
  Basis Set:
  @DF-RHF Final Energy:  -305.98598160296484
    Total Energy =                       -305.9859816029647277
  Basis Set: CC-PVTZ
  Basis Set:
  Basis Set: CC-PVTZ
  Basis Set:
  @DF-RHF Final Energy:  -305.98477657572545
    Total Energy =                       -305.9847765757253910
  Basis Set: CC-PVTZ
  Basis Set:
  Basis Set: CC-PVTZ
  Basis Set:
  @DF-RHF Final Energy:  -305.98610041971932
    Total Energy =                       -305.9861004197193211
  Basis Set: CC-PVTZ
  Basis Set:
  Basis Set: CC-PVTZ
  Basis Set:
  @DF-RHF Final Energy:  -305.98610456321984
    Total Energy =                       -305.9861045632198966
  Basis Set: CC-PVTZ
  Basis Set:
  Charge       = 0
  Multiplicity = 1
  Basis Set: CC-PVTZ
  Basis Set:

    Orbital Energies (a.u.)
    -----------------------

    Doubly Occupied:

       1A    -20.598602     2A    -20.532799     3A    -11.364259
       4A    -11.279148     5A    -11.235723     6A    -11.225529
       7A     -1.472860     8A     -1.365420     9A     -1.068140
      10A     -0.978675    11A     -0.883725    12A     -0.776074
      13A     -0.699819    14A     -0.682847    15A     -0.676319
      16A     -0.618445    17A     -0.598180    18A     -0.569044
      19A     -0.543530    20A     -0.520515    21A     -0.509481
      22A     -0.507514    23A     -0.459647    24A     -0.437977

  @DF-RHF Final Energy:  -305.98610478362536

   => Energetics <=

    Nuclear Repulsion Energy =            248.4184950538869998
    One-Electron Energy =                -909.6006610677472963
    Two-Electron Energy =                 355.1960612302349887
    DFT Exchange-Correlation Energy =       0.0000000000000000
    Empirical Dispersion Energy =           0.0000000000000000
    PCM Polarization Energy =               0.0000000000000000
    EFP Energy =                            0.0000000000000000
    Total Energy =                       -305.9861047836253078
    Molecular point group: c1
  Basis Set: CC-PVTZ
  Basis Set:

  -Total Gradient:
     Atom            X                  Y                   Z
    ------   -----------------  -----------------  -----------------
       1       -0.000028753580    -0.000010271959     0.000033498376
       2       -0.000168493251     0.000277342462    -0.000057438084
       3       -0.000164803170     0.000226091616    -0.000231572307
       4        0.000175695296    -0.000210413348     0.000059836981
       5        0.000022761408    -0.000012520828     0.000012426880
       6        0.000172004310    -0.000251335905     0.000180843784
       7       -0.000009235348     0.000005478612     0.000005088724
       8        0.000000820166    -0.000002865717    -0.000005091405
       9        0.000008593084    -0.000000647481    -0.000001264946
      10       -0.000004848890     0.000006303176     0.000007916676
      11       -0.000001477576    -0.000040279807    -0.000007905992
      12        0.000009937351     0.000009871816     0.000002798265
      13       -0.000003978990     0.000002934968     0.000002033433
      14       -0.000008220806     0.000000312396    -0.000001170384

  **** Optimization is complete! (in 6 steps) ****
    Final optimized geometry and variables:
    Molecular point group: c1

    Geometry (in Angstrom), charge = 0, multiplicity = 1:

    O            0.750592488466     0.182310400736    -1.246308753580
    C            0.191245021599    -0.190649960579    -0.271378624758
    C           -1.060617779384    -1.028966662455    -0.274343719744
    O            0.586990015622     0.113701728411     0.953099199888
    C           -2.309678846415    -0.143971761588    -0.301418169393
    H           -1.026852971230    -1.655533970782    -1.154157067397
    H           -1.069681619910    -1.659316806215     0.604229443194
    H           -2.314140438313     0.487866680846    -1.180478631305
    H           -3.200709977280    -0.758206464796    -0.321512084296
    H           -2.357778784334     0.488927702621     0.576214108853
    C            1.726896375841     0.940305174134     1.078820312683
    H            2.589205672551     0.469701020681     0.630630181088
    H            1.882782169339     1.073491460149     2.137029717706
    H            1.559334475807     1.895103749204     0.602921052536

  Mulliken Charges: (a.u.)
   Center  Symbol    Alpha    Beta     Spin     Total
       1     O     4.20325  4.20325  0.00000 -0.40650
       2     C     2.79700  2.79700  0.00000  0.40600
       3     C     3.08410  3.08410  0.00000 -0.16820
       4     O     4.14972  4.14972  0.00000 -0.29944
       5     C     3.15075  3.15075  0.00000 -0.30150
       6     H     0.43968  0.43968  0.00000  0.12064
       7     H     0.44431  0.44431  0.00000  0.11138
       8     H     0.44523  0.44523  0.00000  0.10954
       9     H     0.44761  0.44761  0.00000  0.10478
      10     H     0.44963  0.44963  0.00000  0.10073
      11     C     3.03549  3.03549  0.00000 -0.07099
      12     H     0.45312  0.45312  0.00000  0.09376
      13     H     0.44562  0.44562  0.00000  0.10876
      14     H     0.45449  0.45449  0.00000  0.09102

   Total alpha = 24.00000, Total beta = 24.00000, Total charge = -0.00000
