  ==> Input File <==

--------------------------------------------------------------------------
set {
	reference rhf
	basis 6-31G*
}

set_num_threads( 4 )
memory 2 gb

molecule MOL {
0 1

O	 -2.821601	 1.309235	 -0.001213
C	 -2.668563	 0.129746	 -0.000350
C	 -3.801572	 -0.864014	 -0.000442
O	 -1.481751	 -0.454642	 0.000584
H	 -4.417280	 -0.689587	 -0.874708
H	 -3.443784	 -1.883046	 -0.000565
H	 -4.417179	 -0.689832	 0.873954
C	 -0.334255	 0.388708	 0.000906
C	 0.891947	 -0.504646	 0.000751
H	 -0.365390	 1.025305	 -0.873475
H	 -0.365484	 1.024911	 0.875569
C	 2.191998	 0.301789	 0.000897
H	 0.855148	 -1.151283	 -0.871571
H	 0.855132	 -1.151660	 0.872805
C	 3.441114	 -0.581407	 0.000108
H	 2.215074	 0.954890	 -0.869742
H	 2.215465	 0.953923	 0.872248
C	 4.492459	 -0.124488	 -1.010221
H	 3.154824	 -1.608347	 -0.215551
H	 3.876641	 -0.588555	 0.996770
H	 4.096769	 -0.138972	 -2.021772
H	 5.365096	 -0.769638	 -0.987360
H	 4.824255	 0.888325	 -0.800151

	symmetry c1
}
set optking {
	frozen_dihedral = ("
		19 15 12 16
	")
}

ee = optimize('scf')
oeprop('DIPOLE', 'QUADRUPOLE', 'MULLIKEN_CHARGES')
f=open( 'psi4out.xyz', 'w' )
f.write( "23  " )
f.write( str(ee) + "\n" )
f.write( MOL.save_string_xyz() )
f.close()
--------------------------------------------------------------------------

    Molecular point group: c1
  Charge       = 0
  Multiplicity = 1
  Basis Set: 6-31G*
  Basis Set:
  @DF-RHF Final Energy:  -422.97440396796031
    Total Energy =                       -422.9744039679599155
    Molecular point group: c1
  Basis Set: 6-31G*
  Basis Set:
  Basis Set: 6-31G*
  Basis Set:
  @DF-RHF Final Energy:  -422.97466984079557
    Total Energy =                       -422.9746698407952863
  Basis Set: 6-31G*
  Basis Set:
  Basis Set: 6-31G*
  Basis Set:
  @DF-RHF Final Energy:  -422.97474157227504
    Total Energy =                       -422.9747415722747519
  Basis Set: 6-31G*
  Basis Set:
  Basis Set: 6-31G*
  Basis Set:
  @DF-RHF Final Energy:  -422.97458638884154
    Total Energy =                       -422.9745863888415442
  Basis Set: 6-31G*
  Basis Set:
  Basis Set: 6-31G*
  Basis Set:
  @DF-RHF Final Energy:  -422.97474851932839
    Total Energy =                       -422.9747485193286138
  Basis Set: 6-31G*
  Basis Set:
  Charge       = 0
  Multiplicity = 1
  Basis Set: 6-31G*
  Basis Set:

    Orbital Energies (a.u.)
    -----------------------

    Doubly Occupied:

       1A    -20.603062     2A    -20.540568     3A    -11.374119
       4A    -11.281380     5A    -11.232411     6A    -11.224802
       7A    -11.223591     8A    -11.221360     9A    -11.213456
      10A     -1.467995    11A     -1.360777    12A     -1.092588
      13A     -1.041354    14A     -1.003450    15A     -0.930738
      16A     -0.843173    17A     -0.802755    18A     -0.774483
      19A     -0.691450    20A     -0.685252    21A     -0.668736
      22A     -0.638985    23A     -0.608657    24A     -0.591795
      25A     -0.581930    26A     -0.570501    27A     -0.553042
      28A     -0.535215    29A     -0.525167    30A     -0.504319
      31A     -0.497306    32A     -0.477292    33A     -0.464453
      34A     -0.463609    35A     -0.451374    36A     -0.435335

  @DF-RHF Final Energy:  -422.97474872342235

   => Energetics <=

    Nuclear Repulsion Energy =            449.8728481890355511
    One-Electron Energy =               -1467.3422426260262910
    Two-Electron Energy =                 594.4946457135678202
    DFT Exchange-Correlation Energy =       0.0000000000000000
    Empirical Dispersion Energy =           0.0000000000000000
    PCM Polarization Energy =               0.0000000000000000
    EFP Energy =                            0.0000000000000000
    Total Energy =                       -422.9747487234229766
    Molecular point group: c1
  Basis Set: 6-31G*
  Basis Set:

  -Total Gradient:
     Atom            X                  Y                   Z
    ------   -----------------  -----------------  -----------------
       1       -0.000001699186     0.000000553402    -0.000004781378
       2       -0.000006046480    -0.000006772652     0.000011254642
       3       -0.000001366878     0.000002373587    -0.000000371131
       4       -0.000016614342     0.000003458040    -0.000007934116
       5        0.000000039704    -0.000001476987    -0.000000941098
       6        0.000000741475     0.000000330215    -0.000000560366
       7       -0.000000658183     0.000001239284    -0.000000670452
       8        0.000014426161     0.000003189649     0.000008909874
       9        0.000006315503    -0.000013691636    -0.000007591684
      10       -0.000002047495     0.000002521301     0.000000554413
      11        0.000002986761    -0.000000577531    -0.000005382837
      12       -0.002034385945    -0.002963262437    -0.001410914512
      13        0.000007521720     0.000002891656     0.000002473820
      14        0.000008945797     0.000008437623    -0.000001746987
      15        0.000923031334     0.001231462939    -0.003583878346
      16        0.001563656275     0.002286665634     0.001772699504
      17       -0.000000812000    -0.000005108698     0.000007147299
      18        0.000007809014     0.000009423498    -0.000006971280
      19       -0.000456456789    -0.000550485760     0.003207771507
      20        0.000004683546     0.000006403323    -0.000002251517
      21       -0.000003483458    -0.000012348759     0.000009562194
      22        0.000000174595    -0.000002617690     0.000015413962
      23       -0.000016761126    -0.000002608005    -0.000001791512

  **** Optimization is complete! (in 6 steps) ****
    Final optimized geometry and variables:
    Molecular point group: c1

    Geometry (in Angstrom), charge = 0, multiplicity = 1:

    O           -2.799471816435     1.351934114983     0.145839763027
    C           -2.648167563128     0.172289041585     0.133408305585
    C           -3.782607227044    -0.819827616769     0.137786519703
    O           -1.462333696281    -0.413796732472     0.114233161970
    H           -4.409061188435    -0.635844170995    -0.726825919024
    H           -3.426409230296    -1.839313463325     0.123048929369
    H           -4.386829530286    -0.653477180272     1.021599164321
    C           -0.313564304306     0.427838894706     0.108500729687
    C            0.910949785659    -0.467010064955     0.086128186555
    H           -0.353608582455     1.072171621103    -0.759927633228
    H           -0.333478950504     1.056511383738     0.988926649343
    C            2.212350422263     0.335756845344     0.071914341152
    H            0.862665191258    -1.109467542990    -0.788732417754
    H            0.886968281944    -1.118710628182     0.955380580948
    C            3.477953445105    -0.547022140920     0.097142534590
    H            2.236911451252     0.989464906277    -0.797411623621
    H            2.226889293250     1.006179941342     0.928538562349
    C            4.568986286774    -0.079449854737    -0.864055283226
    H            3.211753944786    -1.578793177453    -0.118306969419
    H            3.879918337108    -0.565376022965     1.106762488715
    H            4.222131969527    -0.108486175925    -1.893072682707
    H            5.451723446126    -0.707182971463    -0.792535729475
    H            4.869928633320     0.941433215964    -0.646245963646

  Mulliken Charges: (a.u.)
   Center  Symbol    Alpha    Beta     Spin     Total
       1     O     4.28389  4.28389  0.00000 -0.56778
       2     C     2.61533  2.61533  0.00000  0.76935
       3     C     3.28774  3.28774  0.00000 -0.57549
       4     O     4.31263  4.31263  0.00000 -0.62525
       5     H     0.39749  0.39749  0.00000  0.20502
       6     H     0.39987  0.39987  0.00000  0.20026
       7     H     0.39750  0.39750  0.00000  0.20501
       8     C     2.99629  2.99629  0.00000  0.00742
       9     C     3.16638  3.16638  0.00000 -0.33276
      10     H     0.41057  0.41057  0.00000  0.17886
      11     H     0.41061  0.41061  0.00000  0.17878
      12     C     3.16375  3.16375  0.00000 -0.32750
      13     H     0.41388  0.41388  0.00000  0.17225
      14     H     0.41382  0.41382  0.00000  0.17236
      15     C     3.15426  3.15426  0.00000 -0.30853
      16     H     0.41843  0.41843  0.00000  0.16315
      17     H     0.41877  0.41877  0.00000  0.16246
      18     C     3.24030  3.24030  0.00000 -0.48060
      19     H     0.41910  0.41910  0.00000  0.16180
      20     H     0.41914  0.41914  0.00000  0.16172
      21     H     0.42093  0.42093  0.00000  0.15814
      22     H     0.41893  0.41893  0.00000  0.16213
      23     H     0.42040  0.42040  0.00000  0.15920

   Total alpha = 36.00000, Total beta = 36.00000, Total charge = -0.00000
