                              Psi4 1.0.54 Driver

  ==> Input File <==

--------------------------------------------------------------------------
set {
	reference rhf
	basis cc-pvtz
}

set_num_threads( 4 )
memory 2 gb

molecule MOL {
0 1

H	 -1.752232	 -2.214755	 -0.011938
C	 -1.343852	 -1.221619	 -0.018179
N	 -0.058800	 -1.097635	 -0.261688
C	 -2.148159	 -0.124236	 0.219734
C	 0.449026	 0.119242	 -0.273393
H	 -3.196988	 -0.237571	 0.417076
N	 -1.655094	 1.094230	 0.209506
C	 -0.370318	 1.215445	 -0.035100
C	 1.924033	 0.265863	 -0.538106
H	 0.033214	 2.210441	 -0.046812
C	 2.618160	 1.172376	 0.479673
H	 2.372400	 -0.719901	 -0.506498
H	 2.072691	 0.654754	 -1.538545
H	 3.681181	 1.225752	 0.277011
H	 2.481708	 0.792373	 1.483644
H	 2.218000	 2.179358	 0.442190

	symmetry c1
}
set optking {
	frozen_dihedral = ("
		12 9 5 3
	")
}

ee,wfn = optimize('scf', return_wfn=True)
oeprop( wfn, 'DIPOLE', 'QUADRUPOLE', 'MULLIKEN_CHARGES')
f=open( 'psi4out.xyz', 'w' )
f.write( "16  " )
f.write( str(ee) + "\n" )
f.write( MOL.save_string_xyz() )
f.close()
--------------------------------------------------------------------------

    Molecular point group: c1
  Charge       = 0
  Multiplicity = 1
  Basis Set: CC-PVTZ
  Basis Set:
  @DF-RHF Final Energy:  -340.86988980132207
    Total Energy =                       -340.8698898013219605
    Molecular point group: c1
  Basis Set: CC-PVTZ
  Basis Set:
  Basis Set: CC-PVTZ
  Basis Set:
  @DF-RHF Final Energy:  -340.87003987241593
    Total Energy =                       -340.8700398724157026
  Basis Set: CC-PVTZ
  Basis Set:
  Basis Set: CC-PVTZ
  Basis Set:
  @DF-RHF Final Energy:  -340.87034324617161
    Total Energy =                       -340.8703432461712737
  Basis Set: CC-PVTZ
  Basis Set:
  Basis Set: CC-PVTZ
  Basis Set:
  @DF-RHF Final Energy:  -340.87035324178896
    Total Energy =                       -340.8703532417890187
  Basis Set: CC-PVTZ
  Basis Set:
  Basis Set: CC-PVTZ
  Basis Set:
  @DF-RHF Final Energy:  -340.87036295056902
    Total Energy =                       -340.8703629505689037
  Basis Set: CC-PVTZ
  Basis Set:
  Basis Set: CC-PVTZ
  Basis Set:
  @DF-RHF Final Energy:  -340.87036484186899
    Total Energy =                       -340.8703648418688203
  Basis Set: CC-PVTZ
  Basis Set:
  Charge       = 0
  Multiplicity = 1
  Basis Set: CC-PVTZ
  Basis Set:

    Orbital Energies (a.u.)
    -----------------------

    Doubly Occupied:

       1A    -15.580250     2A    -15.575363     3A    -11.279329
       4A    -11.270838     5A    -11.268857     6A    -11.266739
       7A    -11.231649     8A    -11.221602     9A     -1.315427
      10A     -1.223313    11A     -1.086517    12A     -1.016512
      13A     -0.907179    14A     -0.895705    15A     -0.831703
      16A     -0.716734    17A     -0.713674    18A     -0.656413
      19A     -0.620724    20A     -0.608672    21A     -0.579315
      22A     -0.565694    23A     -0.523054    24A     -0.512133
      25A     -0.506078    26A     -0.483329    27A     -0.433562
      28A     -0.397490    29A     -0.346385

  @DF-RHF Final Energy:  -340.87036629253936

   => Energetics <=

    Nuclear Repulsion Energy =            350.0016221691681153
    One-Electron Energy =               -1154.4754943519724293
    Two-Electron Energy =                 463.6035058902651826
    DFT Exchange-Correlation Energy =       0.0000000000000000
    Empirical Dispersion Energy =           0.0000000000000000
    PCM Polarization Energy =               0.0000000000000000
    EFP Energy =                            0.0000000000000000
    Total Energy =                       -340.8703662925391882
    Molecular point group: c1
  Basis Set: CC-PVTZ
  Basis Set:

  -Total Gradient:
     Atom            X                  Y                   Z
    ------   -----------------  -----------------  -----------------
       1       -0.000004653079    -0.000004678558    -0.000016224293
       2        0.000116715234    -0.000036372365     0.000022084644
       3       -0.000248631825     0.000048800674    -0.000962203444
       4        0.000008664184     0.000125778923     0.000041671241
       5        0.000261439053    -0.000091671021     0.001530954518
       6       -0.000010045127     0.000005117077    -0.000010491562
       7       -0.000082857438    -0.000059652417    -0.000000272429
       8        0.000041872850    -0.000038677617    -0.000058609318
       9       -0.000247752869     0.000021109258    -0.001583762345
      10       -0.000000023211     0.000004311510     0.000035404398
      11       -0.000001990933    -0.000041880707    -0.000042827378
      12        0.000158192903     0.000024829430     0.001044425566
      13        0.000002028092    -0.000010898344    -0.000043097335
      14        0.000004556283     0.000009158939     0.000017530242
      15        0.000010258175     0.000016940175     0.000014184103
      16       -0.000007772292     0.000027785042     0.000011233393

  **** Optimization is complete! (in 7 steps) ****
    Final optimized geometry and variables:
    Molecular point group: c1

    Geometry (in Angstrom), charge = 0, multiplicity = 1:

    H           -1.734699309487    -2.403215526140    -0.166831326430
    C           -1.331676124873    -1.409943519314    -0.107341129951
    N           -0.033197779624    -1.273418552646    -0.288576288894
    C           -2.145577937722    -0.329578559969     0.146789154667
    C            0.474109835661    -0.062229330323    -0.215106979637
    H           -3.201796553983    -0.449818024467     0.292652601797
    N           -1.652892205540     0.891327747194     0.216327206111
    C           -0.362328577270     1.024008606771     0.038124471678
    C            1.957155366855     0.095563333932    -0.450237056058
    H            0.033397780683     2.019899396214     0.092007746011
    C            2.685231897107     0.939263686501     0.596742854390
    H            2.380024446797    -0.898727486075    -0.471760614881
    H            2.111426188169     0.528441892278    -1.434305319374
    H            3.747250490500     0.958689317473     0.384553739345
    H            2.549980272411     0.527758115916     1.590143858483
    H            2.337539806632     1.964818063840     0.610573465956

  Mulliken Charges: (a.u.)
   Center  Symbol    Alpha    Beta     Spin     Total
       1     H     0.41385  0.41385  0.00000  0.17229
       2     C     3.04092  3.04092  0.00000 -0.08185
       3     N     3.58960  3.58960  0.00000 -0.17920
       4     C     3.04810  3.04810  0.00000 -0.09621
       5     C     2.95162  2.95162  0.00000  0.09675
       6     H     0.41361  0.41361  0.00000  0.17278
       7     N     3.58783  3.58783  0.00000 -0.17566
       8     C     3.07456  3.07456  0.00000 -0.14911
       9     C     3.07968  3.07968  0.00000 -0.15935
      10     H     0.41454  0.41454  0.00000  0.17091
      11     C     3.14864  3.14864  0.00000 -0.29728
      12     H     0.44044  0.44044  0.00000  0.11912
      13     H     0.44661  0.44661  0.00000  0.10679
      14     H     0.44644  0.44644  0.00000  0.10711
      15     H     0.44845  0.44845  0.00000  0.10310
      16     H     0.45510  0.45510  0.00000  0.08979

   Total alpha = 29.00000, Total beta = 29.00000, Total charge = -0.00000

*** Psi4 exiting successfully. Buy a developer a beer!
