  ==> Input File <==

--------------------------------------------------------------------------
set {
	reference rhf
	basis 6-31G*
}

set_num_threads( 4 )
memory 2 gb

molecule MOL {
0 1

H	 -3.420663	 1.227371	 -1.044276
O	 -3.452007	 0.283848	 -0.965577
C	 -3.181085	 -0.079926	 0.364119
C	 -1.765924	 0.277073	 0.805136
H	 -3.327791	 -1.152017	 0.410903
H	 -3.905698	 0.375695	 1.036898
C	 -0.677594	 -0.417312	 -0.014550
H	 -1.637766	 1.358238	 0.744969
H	 -1.659588	 0.017670	 1.857098
C	 0.738335	 -0.034840	 0.421385
H	 -0.814977	 -0.178223	 -1.064632
H	 -0.802730	 -1.495410	 0.071702
C	 1.822265	 -0.738362	 -0.399735
H	 0.853533	 1.043532	 0.342250
H	 0.871597	 -0.279636	 1.474438
C	 2.059383	 -2.205989	 -0.025569
H	 2.757741	 -0.189005	 -0.306003
H	 1.547725	 -0.690710	 -1.451483
C	 2.629975	 -2.420307	 1.377605
H	 2.744789	 -2.639428	 -0.749889
H	 1.126453	 -2.757468	 -0.124131
H	 3.557768	 -1.869920	 1.509561
H	 2.842701	 -3.470802	 1.550936
H	 1.940650	 -2.096922	 2.150533

	symmetry c1
}
set optking {
	frozen_dihedral = ("
		17 13 10 7
	")
}

ee = optimize('scf')
oeprop('DIPOLE', 'QUADRUPOLE', 'MULLIKEN_CHARGES')
f=open( 'psi4out.xyz', 'w' )
f.write( "24  " )
f.write( str(ee) + "\n" )
f.write( MOL.save_string_xyz() )
f.close()
--------------------------------------------------------------------------

    Molecular point group: c1
  Charge       = 0
  Multiplicity = 1
  Basis Set: 6-31G*
  Basis Set:
  @DF-RHF Final Energy:  -349.24511663128305
    Total Energy =                       -349.2451166312829969
    Molecular point group: c1
  Basis Set: 6-31G*
  Basis Set:
  Basis Set: 6-31G*
  Basis Set:
  @DF-RHF Final Energy:  -349.24529461454620
    Total Energy =                       -349.2452946145464239
  Basis Set: 6-31G*
  Basis Set:
  Basis Set: 6-31G*
  Basis Set:
  @DF-RHF Final Energy:  -349.24549742009219
    Total Energy =                       -349.2454974200921924
  Basis Set: 6-31G*
  Basis Set:
  Basis Set: 6-31G*
  Basis Set:
  @DF-RHF Final Energy:  -349.24546913162749
    Total Energy =                       -349.2454691316278854
  Basis Set: 6-31G*
  Basis Set:
  Basis Set: 6-31G*
  Basis Set:
  @DF-RHF Final Energy:  -349.24552862732986
    Total Energy =                       -349.2455286273295201
  Basis Set: 6-31G*
  Basis Set:
  Charge       = 0
  Multiplicity = 1
  Basis Set: 6-31G*
  Basis Set:

    Orbital Energies (a.u.)
    -----------------------

    Doubly Occupied:

       1A    -20.553674     2A    -11.267807     3A    -11.217546
       4A    -11.213509     5A    -11.212534     6A    -11.211760
       7A    -11.210876     8A    -11.207184     9A     -1.360275
      10A     -1.088149    11A     -1.046843    12A     -0.984883
      13A     -0.915413    14A     -0.852544    15A     -0.807933
      16A     -0.766151    17A     -0.680055    18A     -0.651943
      19A     -0.623823    20A     -0.616441    21A     -0.608355
      22A     -0.575487    23A     -0.557773    24A     -0.544103
      25A     -0.521296    26A     -0.508174    27A     -0.494747
      28A     -0.476262    29A     -0.467801    30A     -0.461173
      31A     -0.451377    32A     -0.445447    33A     -0.420300

  @DF-RHF Final Energy:  -349.24552930428666

   => Energetics <=

    Nuclear Repulsion Energy =            388.8390791432918263
    One-Electron Energy =               -1244.1259432058000129
    Two-Electron Energy =                 506.0413347582215238
    DFT Exchange-Correlation Energy =       0.0000000000000000
    Empirical Dispersion Energy =           0.0000000000000000
    PCM Polarization Energy =               0.0000000000000000
    EFP Energy =                            0.0000000000000000
    Total Energy =                       -349.2455293042866060
    Molecular point group: c1
  Basis Set: 6-31G*
  Basis Set:

  -Total Gradient:
     Atom            X                  Y                   Z
    ------   -----------------  -----------------  -----------------
       1        0.000001815977    -0.000009296591     0.000009312587
       2        0.000025845283    -0.000032721725    -0.000017652309
       3       -0.000028694495     0.000077501704     0.000015236678
       4       -0.000007186277    -0.000052293556    -0.000000293947
       5        0.000003955160     0.000007170532    -0.000004513007
       6       -0.000014517779    -0.000001397579     0.000002249727
       7       -0.000000925681     0.001137327475    -0.000938524235
       8       -0.000011558717    -0.000010999541    -0.000001772630
       9        0.000011178167    -0.000007708807    -0.000001959996
      10       -0.000079850770    -0.001318428855     0.000966866114
      11        0.000005506984     0.000004116030    -0.000012611920
      12       -0.000011849512     0.000015276896     0.000014805326
      13        0.000559742712    -0.000930858609     0.001571613457
      14        0.000001301526     0.000007970609     0.000011359475
      15       -0.000010247609    -0.000019160229     0.000018387354
      16        0.000045116621     0.000023758298     0.000010296767
      17       -0.000478430791     0.001084030034    -0.001606521836
      18        0.000006995963    -0.000008822533    -0.000023282719
      19       -0.000006418094    -0.000000461330    -0.000017126996
      20        0.000005041108    -0.000007434065     0.000003271527
      21        0.000000891977     0.000030212660     0.000003307471
      22       -0.000011179088     0.000008352522    -0.000001437546
      23        0.000007649289    -0.000005989617    -0.000005028366
      24       -0.000014181948     0.000009856280     0.000004019025

  **** Optimization is complete! (in 6 steps) ****
    Final optimized geometry and variables:
    Molecular point group: c1

    Geometry (in Angstrom), charge = 0, multiplicity = 1:

    H           -3.120965730960     1.897558814758    -1.257703495609
    O           -3.171223226609     0.955917001611    -1.167534756105
    C           -2.919576340629     0.604021540364     0.169144282680
    C           -1.501857728703     0.939494200084     0.618843123439
    H           -3.087167187777    -0.464341761959     0.227705337398
    H           -3.641508450255     1.081605086201     0.829392772571
    C           -0.419214823620     0.218912661987    -0.185989559375
    H           -1.353869466101     2.017641486118     0.550277430834
    H           -1.408858364376     0.687781940175     1.673944997503
    C            0.998457028129     0.599443798448     0.250142766492
    H           -0.546800198725     0.447128243966    -1.239548492493
    H           -0.566244038236    -0.854454090407    -0.086161582909
    C            2.106339164943    -0.093717005458    -0.556854709570
    H            1.113309143275     1.675475438212     0.134244640417
    H            1.123300057140     0.401342614780     1.311798640823
    C            2.370312941450    -1.563990923593    -0.207259979348
    H            3.031477445801     0.468458735643    -0.446880252341
    H            1.850793139943    -0.028829614933    -1.612744955538
    C            2.978573375164    -1.783938804644     1.179135505101
    H            3.048532319430    -1.973826723038    -0.951686260311
    H            1.450697005303    -2.137009022113    -0.294033726245
    H            3.906720694396    -1.229734081415     1.289688574984
    H            3.200645035328    -2.834501797168     1.340165152359
    H            2.309780199200    -1.468701397049     1.973291002362

  Mulliken Charges: (a.u.)
   Center  Symbol    Alpha    Beta     Spin     Total
       1     H     0.28336  0.28336  0.00000  0.43328
       2     O     4.36826  4.36826  0.00000 -0.73651
       3     C     2.99605  2.99605  0.00000  0.00789
       4     C     3.16888  3.16888  0.00000 -0.33775
       5     H     0.41644  0.41644  0.00000  0.16712
       6     H     0.42817  0.42817  0.00000  0.14366
       7     C     3.15317  3.15317  0.00000 -0.30634
       8     H     0.42829  0.42829  0.00000  0.14342
       9     H     0.42246  0.42246  0.00000  0.15509
      10     C     3.15552  3.15552  0.00000 -0.31104
      11     H     0.41205  0.41205  0.00000  0.17589
      12     H     0.42257  0.42257  0.00000  0.15487
      13     C     3.15505  3.15505  0.00000 -0.31011
      14     H     0.42329  0.42329  0.00000  0.15342
      15     H     0.42277  0.42277  0.00000  0.15446
      16     C     3.15374  3.15374  0.00000 -0.30749
      17     H     0.42264  0.42264  0.00000  0.15472
      18     H     0.42147  0.42147  0.00000  0.15707
      19     C     3.24033  3.24033  0.00000 -0.48065
      20     H     0.42088  0.42088  0.00000  0.15824
      21     H     0.42146  0.42146  0.00000  0.15708
      22     H     0.42226  0.42226  0.00000  0.15549
      23     H     0.41949  0.41949  0.00000  0.16102
      24     H     0.42141  0.42141  0.00000  0.15717

   Total alpha = 33.00000, Total beta = 33.00000, Total charge =  0.00000
