                              Psi4 1.0.54 Driver

  ==> Input File <==

--------------------------------------------------------------------------
set {
	reference rhf
	basis cc-pvtz
}

set_num_threads( 4 )
memory 2 gb

molecule MOL {
0 1

H	 3.329900	 -0.632245	 0.820897
N	 3.091268	 -0.241216	 -0.065538
C	 1.860978	 0.530248	 0.016256
H	 2.993349	 -1.001250	 -0.705935
C	 0.644130	 -0.381765	 -0.031064
H	 1.835721	 1.204666	 -0.833114
H	 1.808789	 1.151975	 0.911067
C	 -0.678115	 0.376691	 0.025731
H	 0.693998	 -0.977147	 -0.936845
H	 0.693309	 -1.082142	 0.800523
C	 -1.900706	 -0.535531	 -0.022488
H	 -0.725296	 1.079516	 -0.802982
H	 -0.715474	 0.974884	 0.933278
C	 -3.220513	 0.226854	 0.028039
H	 -1.865036	 -1.134397	 -0.928236
H	 -1.857948	 -1.236381	 0.806820
H	 -3.309098	 0.911849	 -0.808725
H	 -4.066838	 -0.449485	 -0.008086
H	 -3.301685	 0.809374	 0.939860

	symmetry c1
}
set optking {
	frozen_dihedral = ("
		1 2 3 6
	")
}

ee,wfn = optimize('scf', return_wfn=True)
oeprop( wfn, 'DIPOLE', 'QUADRUPOLE', 'MULLIKEN_CHARGES')
f=open( 'psi4out.xyz', 'w' )
f.write( "19  " )
f.write( str(ee) + "\n" )
f.write( MOL.save_string_xyz() )
f.close()
--------------------------------------------------------------------------

    Molecular point group: c1
  Charge       = 0
  Multiplicity = 1
  Basis Set: CC-PVTZ
  Basis Set:
  @DF-RHF Final Energy:  -251.44530443330436
    Total Energy =                       -251.4453044333045000
    Molecular point group: c1
  Basis Set: CC-PVTZ
  Basis Set:
  Basis Set: CC-PVTZ
  Basis Set:
  @DF-RHF Final Energy:  -251.44575997437616
    Total Energy =                       -251.4457599743763012
  Basis Set: CC-PVTZ
  Basis Set:
  Basis Set: CC-PVTZ
  Basis Set:
  @DF-RHF Final Energy:  -251.44739654601628
    Total Energy =                       -251.4473965460164777
  Basis Set: CC-PVTZ
  Basis Set:
  Basis Set: CC-PVTZ
  Basis Set:
  @DF-RHF Final Energy:  -251.44744297646534
    Total Energy =                       -251.4474429764651973
  Basis Set: CC-PVTZ
  Basis Set:
  Basis Set: CC-PVTZ
  Basis Set:
  @DF-RHF Final Energy:  -251.44744715846369
    Total Energy =                       -251.4474471584636603
  Basis Set: CC-PVTZ
  Basis Set:
  Charge       = 0
  Multiplicity = 1
  Basis Set: CC-PVTZ
  Basis Set:

    Orbital Energies (a.u.)
    -----------------------

    Doubly Occupied:

       1A    -15.525084     2A    -11.237783     3A    -11.214298
       4A    -11.212809     5A    -11.210777     6A    -11.207165
       7A     -1.177401     8A     -1.076236     9A     -1.000502
      10A     -0.901796    11A     -0.819363    12A     -0.792423
      13A     -0.679146    14A     -0.639375    15A     -0.601699
      16A     -0.586184    17A     -0.575095    18A     -0.558404
      19A     -0.520264    20A     -0.505351    21A     -0.479549
      22A     -0.471513    23A     -0.466549    24A     -0.463210
      25A     -0.376376

  @DF-RHF Final Energy:  -251.44744767238203

   => Energetics <=

    Nuclear Repulsion Energy =            245.8382289471077513
    One-Electron Energy =                -825.9746516358204644
    Two-Electron Energy =                 328.6889750163309145
    DFT Exchange-Correlation Energy =       0.0000000000000000
    Empirical Dispersion Energy =           0.0000000000000000
    PCM Polarization Energy =               0.0000000000000000
    EFP Energy =                            0.0000000000000000
    Total Energy =                       -251.4474476723818270
    Molecular point group: c1
  Basis Set: CC-PVTZ
  Basis Set:

  -Total Gradient:
     Atom            X                  Y                   Z
    ------   -----------------  -----------------  -----------------
       1        0.001233942578     0.001868877316     0.000340688820
       2       -0.001313376720    -0.002024748580    -0.000210079851
       3       -0.000984782639    -0.001386014609    -0.001157251717
       4       -0.000013859023     0.000040039533     0.000019644185
       5        0.000106930075    -0.000003123507     0.000016855890
       6        0.001007520928     0.001483382207     0.000968967908
       7        0.000006672618     0.000012275265     0.000025725562
       8       -0.000024292811     0.000009158535    -0.000010092559
       9       -0.000004529610     0.000001702521     0.000011023211
      10        0.000001698633    -0.000025038670     0.000010596905
      11       -0.000003933476     0.000009809032    -0.000006988004
      12       -0.000014324249     0.000014763248    -0.000008730110
      13        0.000003969039     0.000000727817     0.000009652223
      14        0.000005944735     0.000005141135    -0.000001631604
      15       -0.000002749479    -0.000008668895    -0.000010997501
      16        0.000011329124    -0.000005907997     0.000010976853
      17       -0.000007694349     0.000013871277    -0.000016942918
      18       -0.000012403146    -0.000012911105     0.000002320696
      19        0.000003937774     0.000006665478     0.000006262012

  **** Optimization is complete! (in 6 steps) ****
    Final optimized geometry and variables:
    Molecular point group: c1

    Geometry (in Angstrom), charge = 0, multiplicity = 1:

    H            3.361572337476    -0.797996784657     0.712797450562
    N            3.112815252925    -0.462140014242    -0.192362988310
    C            1.898693366112     0.334063512151    -0.150491201253
    H            3.022159281302    -1.247004204427    -0.801506921315
    C            0.598213143438    -0.452389903380    -0.014547357776
    H            1.863930588896     0.953309895507    -1.041518800313
    H            1.990667938815     1.025230662502     0.681094911218
    C           -0.642111657161     0.435479233629     0.020146738306
    H            0.519407593482    -1.151036425114    -0.845176432150
    H            0.641708927053    -1.055602107383     0.889541443118
    C           -1.946677151107    -0.346435778827     0.146283913364
    H           -0.675525545370     1.042325807640    -0.881704494352
    H           -0.562222959290     1.132526305933     0.851262406794
    C           -3.181320152875     0.548047368782     0.181238528901
    H           -2.029467698092    -1.041702370504    -0.684649267750
    H           -1.915587939412    -0.952468299992     1.047656637574
    H           -3.259973682712     1.142127926873    -0.723245587246
    H           -4.088783165831    -0.038001691339     0.271412943438
    H           -3.144970282890     1.232587292604     1.022242925563

  Mulliken Charges: (a.u.)
   Center  Symbol    Alpha    Beta     Spin     Total
       1     H     0.43046  0.43046  0.00000  0.13908
       2     N     3.69313  3.69313  0.00000 -0.38626
       3     C     3.02748  3.02748  0.00000 -0.05495
       4     H     0.43046  0.43046  0.00000  0.13909
       5     C     3.08679  3.08679  0.00000 -0.17358
       6     H     0.45364  0.45364  0.00000  0.09271
       7     H     0.45526  0.45526  0.00000  0.08949
       8     C     3.09437  3.09437  0.00000 -0.18873
       9     H     0.45935  0.45935  0.00000  0.08130
      10     H     0.45919  0.45919  0.00000  0.08161
      11     C     3.08284  3.08284  0.00000 -0.16568
      12     H     0.45459  0.45459  0.00000  0.09083
      13     H     0.45480  0.45480  0.00000  0.09040
      14     C     3.14984  3.14984  0.00000 -0.29969
      15     H     0.45451  0.45451  0.00000  0.09099
      16     H     0.45464  0.45464  0.00000  0.09072
      17     H     0.45500  0.45500  0.00000  0.09000
      18     H     0.44851  0.44851  0.00000  0.10299
      19     H     0.45515  0.45515  0.00000  0.08970

   Total alpha = 25.00000, Total beta = 25.00000, Total charge =  0.00000

*** Psi4 exiting successfully. Buy a developer a beer!
