                              Psi4 1.0.54 Driver

  ==> Input File <==

--------------------------------------------------------------------------
set {
	reference rhf
	basis cc-pvtz
}

set_num_threads( 4 )
memory 2 gb

molecule MOL {
0 1

H	 3.273419	 0.176595	 -0.102789
N	 2.433987	 -0.362316	 -0.080024
C	 1.263552	 0.494993	 0.021953
H	 2.497638	 -0.973615	 0.707122
C	 -0.016533	 -0.325589	 -0.026925
H	 1.280915	 1.180773	 -0.818522
H	 1.263064	 1.106893	 0.925038
C	 -1.280353	 0.525521	 0.047747
H	 -0.016686	 -0.912532	 -0.939714
H	 -0.014099	 -1.037598	 0.796369
C	 -2.111978	 0.250553	 1.296259
H	 -1.887886	 0.343976	 -0.834812
H	 -1.011332	 1.578021	 0.020449
H	 -2.425558	 -0.787141	 1.336086
H	 -3.003450	 0.866785	 1.318304
H	 -1.544553	 0.457519	 2.197578

	symmetry c1
}
set optking {
	frozen_dihedral = ("
		12 8 5 9
	")
}

ee,wfn = optimize('scf', return_wfn=True)
oeprop( wfn, 'DIPOLE', 'QUADRUPOLE', 'MULLIKEN_CHARGES')
f=open( 'psi4out.xyz', 'w' )
f.write( "16  " )
f.write( str(ee) + "\n" )
f.write( MOL.save_string_xyz() )
f.close()
--------------------------------------------------------------------------

    Molecular point group: c1
  Charge       = 0
  Multiplicity = 1
  Basis Set: CC-PVTZ
  Basis Set:
  @DF-RHF Final Energy:  -212.39486083500321
    Total Energy =                       -212.3948608350029872
    Molecular point group: c1
  Basis Set: CC-PVTZ
  Basis Set:
  Basis Set: CC-PVTZ
  Basis Set:
  @DF-RHF Final Energy:  -212.39509822694529
    Total Energy =                       -212.3950982269452084
  Basis Set: CC-PVTZ
  Basis Set:
  Basis Set: CC-PVTZ
  Basis Set:
  @DF-RHF Final Energy:  -212.39515943348906
    Total Energy =                       -212.3951594334889705
  Basis Set: CC-PVTZ
  Basis Set:
  Charge       = 0
  Multiplicity = 1
  Basis Set: CC-PVTZ
  Basis Set:

    Orbital Energies (a.u.)
    -----------------------

    Doubly Occupied:

       1A    -15.526638     2A    -11.238802     3A    -11.212886
       4A    -11.207693     5A    -11.207021     6A     -1.178620
       7A     -1.058283     8A     -0.959294     9A     -0.847335
      10A     -0.791688    11A     -0.661731    12A     -0.638267
      13A     -0.604232    14A     -0.585408    15A     -0.563407
      16A     -0.521845    17A     -0.507954    18A     -0.469288
      19A     -0.460461    20A     -0.460113    21A     -0.384133

  @DF-RHF Final Energy:  -212.39515998449997

   => Energetics <=

    Nuclear Repulsion Energy =            187.1875908770412025
    One-Electron Energy =                -656.9952953616646028
    Two-Electron Energy =                 257.4125445001234880
    DFT Exchange-Correlation Energy =       0.0000000000000000
    Empirical Dispersion Energy =           0.0000000000000000
    PCM Polarization Energy =               0.0000000000000000
    EFP Energy =                            0.0000000000000000
    Total Energy =                       -212.3951599844999123
    Molecular point group: c1
  Basis Set: CC-PVTZ
  Basis Set:

  -Total Gradient:
     Atom            X                  Y                   Z
    ------   -----------------  -----------------  -----------------
       1        0.000043544692    -0.000009064707     0.000011743799
       2        0.000074892227    -0.000035252458    -0.000004897081
       3       -0.000062834219     0.000020734930    -0.000037260082
       4        0.000013309747    -0.000007835281     0.000012453003
       5        0.000435435627     0.000819765863    -0.000488561959
       6       -0.000012584399     0.000001873210     0.000001996914
       7       -0.000011842641    -0.000006711904    -0.000014151161
       8       -0.000487289438    -0.000800073093     0.000496415761
       9       -0.000308169216    -0.000499755927     0.000337240574
      10       -0.000007332419     0.000006386169     0.000000798720
      11       -0.000017691660    -0.000005075562     0.000015146398
      12        0.000322051776     0.000520058306    -0.000317549659
      13        0.000007427292    -0.000012520143     0.000009497814
      14        0.000007214064     0.000004330619    -0.000004553809
      15        0.000002262639     0.000004248970    -0.000006291638
      16        0.000001605926    -0.000001108991    -0.000012027593

  **** Optimization is complete! (in 4 steps) ****
    Final optimized geometry and variables:
    Molecular point group: c1

    Geometry (in Angstrom), charge = 0, multiplicity = 1:

    H            3.186894053015     0.073471447430    -0.354103438987
    N            2.349741991715    -0.469288752888    -0.338207402593
    C            1.173946853734     0.380449570503    -0.250756285652
    H            2.408644448529    -1.079835642406     0.449907963608
    C           -0.102702614763    -0.446520779825    -0.309283169138
    H            1.193702883545     1.064392760601    -1.092669929529
    H            1.158392738744     0.995622377075     0.650636630584
    C           -1.383231122103     0.406470913287    -0.219879528101
    H           -0.090768043437    -1.030698210623    -1.221390556116
    H           -0.086848673217    -1.166317497145     0.505401816649
    C           -2.210573731968     0.142365728665     1.034704936941
    H           -1.999569717195     0.236185976482    -1.095447009871
    H           -1.119278139220     1.459661016632    -0.248758752942
    H           -2.541894470816    -0.889901212713     1.072956958327
    H           -3.090667718705     0.774755583344     1.067029220304
    H           -1.631048546126     0.334920410218     1.931916507053

  Mulliken Charges: (a.u.)
   Center  Symbol    Alpha    Beta     Spin     Total
       1     H     0.43010  0.43010  0.00000  0.13980
       2     N     3.69003  3.69003  0.00000 -0.38006
       3     C     3.02504  3.02504  0.00000 -0.05007
       4     H     0.43053  0.43053  0.00000  0.13893
       5     C     3.08660  3.08660  0.00000 -0.17320
       6     H     0.45631  0.45631  0.00000  0.08738
       7     H     0.46851  0.46851  0.00000  0.06297
       8     C     3.09518  3.09518  0.00000 -0.19037
       9     H     0.44492  0.44492  0.00000  0.11017
      10     H     0.46077  0.46077  0.00000  0.07847
      11     C     3.14715  3.14715  0.00000 -0.29430
      12     H     0.44842  0.44842  0.00000  0.10317
      13     H     0.45619  0.45619  0.00000  0.08762
      14     H     0.45428  0.45428  0.00000  0.09145
      15     H     0.44974  0.44974  0.00000  0.10052
      16     H     0.45624  0.45624  0.00000  0.08752

   Total alpha = 21.00000, Total beta = 21.00000, Total charge = -0.00000

*** Psi4 exiting successfully. Buy a developer a beer!
