                              Psi4 1.0.54 Driver

  ==> Input File <==

--------------------------------------------------------------------------
set {
	reference rhf
	basis cc-pvtz
}

set_num_threads( 4 )
memory 2 gb

molecule MOL {
0 1

H	 -3.349000	 1.245113	 -1.044983
O	 -3.458596	 0.315260	 -0.960865
C	 -3.176635	 -0.080824	 0.355601
C	 -1.763371	 0.265266	 0.799691
H	 -3.321825	 -1.153438	 0.379502
H	 -3.895468	 0.357385	 1.043382
C	 -0.673390	 -0.426948	 -0.013392
H	 -1.631049	 1.344913	 0.747560
H	 -1.664587	 -0.001624	 1.849167
C	 0.737842	 -0.043159	 0.423759
H	 -0.806103	 -0.190518	 -1.063345
H	 -0.797221	 -1.503753	 0.074146
C	 1.824000	 -0.743224	 -0.390623
H	 0.850588	 1.033777	 0.343840
H	 0.868587	 -0.286314	 1.476203
C	 3.255957	 -0.453067	 0.062319
H	 1.718250	 -0.470599	 -1.438164
H	 1.658105	 -1.815850	 -0.339904
C	 3.707029	 0.992337	 -0.133857
H	 3.928201	 -1.104096	 -0.488158
H	 3.362667	 -0.724561	 1.109374
H	 3.605811	 1.294044	 -1.171549
H	 4.748333	 1.111029	 0.143343
H	 3.129882	 1.683078	 0.468956

	symmetry c1
}
set optking {
	frozen_dihedral = ("
		1 2 3 5
	")
}

ee,wfn = optimize('scf', return_wfn=True)
oeprop( wfn, 'DIPOLE', 'QUADRUPOLE', 'MULLIKEN_CHARGES')
f=open( 'psi4out.xyz', 'w' )
f.write( "24  " )
f.write( str(ee) + "\n" )
f.write( MOL.save_string_xyz() )
f.close()
--------------------------------------------------------------------------

    Molecular point group: c1
  Charge       = 0
  Multiplicity = 1
  Basis Set: CC-PVTZ
  Basis Set:
  @DF-RHF Final Energy:  -349.38038585542114
    Total Energy =                       -349.3803858554210819
    Molecular point group: c1
  Basis Set: CC-PVTZ
  Basis Set:
  Basis Set: CC-PVTZ
  Basis Set:
  @DF-RHF Final Energy:  -349.38038751048549
    Total Energy =                       -349.3803875104852636
  Basis Set: CC-PVTZ
  Basis Set:
  Charge       = 0
  Multiplicity = 1
  Basis Set: CC-PVTZ
  Basis Set:

    Orbital Energies (a.u.)
    -----------------------

    Doubly Occupied:

       1A    -20.546145     2A    -11.265410     3A    -11.216016
       4A    -11.212452     5A    -11.210782     6A    -11.209955
       7A    -11.209703     8A    -11.205630     9A     -1.364067
      10A     -1.090386    11A     -1.049828    12A     -0.987072
      13A     -0.916431    14A     -0.851840    15A     -0.802276
      16A     -0.777118    17A     -0.679285    18A     -0.655188
      19A     -0.627330    20A     -0.622461    21A     -0.599574
      22A     -0.586242    23A     -0.558896    24A     -0.541932
      25A     -0.515946    26A     -0.510907    27A     -0.499940
      28A     -0.473315    29A     -0.467557    30A     -0.462587
      31A     -0.456353    32A     -0.451998    33A     -0.421559

  @DF-RHF Final Energy:  -349.38038784136756

   => Energetics <=

    Nuclear Repulsion Energy =            384.9293546191346422
    One-Electron Energy =               -1236.5271488611547284
    Two-Electron Energy =                 502.2174064006525214
    DFT Exchange-Correlation Energy =       0.0000000000000000
    Empirical Dispersion Energy =           0.0000000000000000
    PCM Polarization Energy =               0.0000000000000000
    EFP Energy =                            0.0000000000000000
    Total Energy =                       -349.3803878413675648
    Molecular point group: c1
  Basis Set: CC-PVTZ
  Basis Set:

  -Total Gradient:
     Atom            X                  Y                   Z
    ------   -----------------  -----------------  -----------------
       1        0.000504619250    -0.000050289471    -0.000127218400
       2       -0.000526751511     0.000042692522     0.000126417305
       3       -0.000410427367     0.000088012351     0.000122114909
       4       -0.000027846812    -0.000055634455     0.000021319143
       5        0.000456576123    -0.000072050513    -0.000121840738
       6       -0.000015609509     0.000029949438     0.000001169145
       7        0.000017591278    -0.000020308730     0.000007768969
       8       -0.000006750238     0.000007672166     0.000008543260
       9        0.000008507891     0.000009656222    -0.000015122221
      10       -0.000000837047     0.000006901208    -0.000007274167
      11        0.000007856677    -0.000005449107    -0.000011856560
      12       -0.000008601106     0.000009790096     0.000003104624
      13        0.000003045031     0.000007679506    -0.000009688795
      14        0.000001742778    -0.000000871803     0.000003691256
      15       -0.000006032851    -0.000002074974    -0.000000858946
      16       -0.000003456659     0.000001375629     0.000006903206
      17        0.000001211868     0.000000656478    -0.000004279080
      18       -0.000000274403     0.000000893818    -0.000000807834
      19        0.000004480492     0.000003899684    -0.000001568047
      20       -0.000003706434    -0.000002750137     0.000002310094
      21       -0.000000700275     0.000000097540     0.000001198332
      22        0.000000043629     0.000002019911    -0.000001258888
      23       -0.000001386740    -0.000000244698    -0.000002092748
      24        0.000006705934    -0.000001622679    -0.000000673822

  **** Optimization is complete! (in 3 steps) ****
    Final optimized geometry and variables:
    Molecular point group: c1

    Geometry (in Angstrom), charge = 0, multiplicity = 1:

    H           -3.353843407529     1.245843956831    -1.049938811002
    O           -3.461095620693     0.315718344999    -0.964373650364
    C           -3.178320150010    -0.077144395568     0.352589128668
    C           -1.764664282601     0.268910515191     0.795805515208
    H           -3.320957263808    -1.150066732980     0.377429617832
    H           -3.896743069743     0.362827516180     1.039719993534
    C           -0.674041725780    -0.424480743546    -0.015696541526
    H           -1.631893303933     1.348710584890     0.743129127771
    H           -1.666072267604     0.003770933243     1.845585504905
    C            0.736985670192    -0.043248208235     0.424486184870
    H           -0.803662804522    -0.187995639662    -1.066151596189
    H           -0.800014033372    -1.501021348279     0.071083716766
    C            1.823711032705    -0.744884389625    -0.387856342035
    H            0.851801066404     1.033527684290     0.345329612142
    H            0.864977809458    -0.287010463829     1.477112116561
    C            3.255292564472    -0.456634831171     0.067604231478
    H            1.720224059761    -0.472402838713    -1.435678966830
    H            1.656223486066    -1.817254860383    -0.337227149127
    C            3.708949950461     0.988059068098    -0.128063278332
    H            3.927517541321    -1.108747309475    -0.481586567722
    H            3.359810894123    -0.728200011206     1.114860575611
    H            3.608364415216     1.290327032432    -1.165655838279
    H            4.750436105119     1.104816419570     0.149218544246
    H            3.133078619123     1.679671465324     0.474967774659

  Mulliken Charges: (a.u.)
   Center  Symbol    Alpha    Beta     Spin     Total
       1     H     0.39527  0.39527  0.00000  0.20946
       2     O     4.20388  4.20388  0.00000 -0.40775
       3     C     2.97541  2.97541  0.00000  0.04917
       4     C     3.10453  3.10453  0.00000 -0.20906
       5     H     0.45947  0.45947  0.00000  0.08106
       6     H     0.46069  0.46069  0.00000  0.07862
       7     C     3.08633  3.08633  0.00000 -0.17265
       8     H     0.45906  0.45906  0.00000  0.08189
       9     H     0.45268  0.45268  0.00000  0.09465
      10     C     3.09174  3.09174  0.00000 -0.18347
      11     H     0.44692  0.44692  0.00000  0.10616
      12     H     0.45474  0.45474  0.00000  0.09053
      13     C     3.09462  3.09462  0.00000 -0.18924
      14     H     0.45342  0.45342  0.00000  0.09316
      15     H     0.45602  0.45602  0.00000  0.08796
      16     C     3.09016  3.09016  0.00000 -0.18033
      17     H     0.45359  0.45359  0.00000  0.09282
      18     H     0.44960  0.44960  0.00000  0.10079
      19     C     3.15254  3.15254  0.00000 -0.30508
      20     H     0.44853  0.44853  0.00000  0.10294
      21     H     0.45516  0.45516  0.00000  0.08969
      22     H     0.45486  0.45486  0.00000  0.09028
      23     H     0.44654  0.44654  0.00000  0.10692
      24     H     0.45425  0.45425  0.00000  0.09150

   Total alpha = 33.00000, Total beta = 33.00000, Total charge = -0.00000

*** Psi4 exiting successfully. Buy a developer a beer!
