  ==> Input File <==

--------------------------------------------------------------------------
set {
	reference rhf
	basis 6-31G*
}

set_num_threads( 1 )
memory 2 gb

molecule MOL {
0 1

O	 0.422607	 1.124111	 0.706356
C	 0.486307	 0.169203	 0.000779
C	 1.608116	 -0.841643	 0.000302
O	 -0.438583	 -0.137522	 -0.898168
C	 2.990107	 -0.200498	 -0.000684
H	 1.468623	 -1.481519	 -0.865924
H	 1.469683	 -1.481289	 0.866878
H	 3.129736	 0.423364	 -0.875135
H	 3.757882	 -0.966877	 -0.001197
H	 3.130964	 0.423383	 0.873533
C	 -1.560503	 0.731976	 -1.010724
C	 -2.460469	 0.173828	 -2.092779
H	 -1.212592	 1.726671	 -1.253880
H	 -2.066044	 0.780709	 -0.055923
H	 -1.937830	 0.126385	 -3.041333
H	 -3.332185	 0.809023	 -2.212309
H	 -2.796064	 -0.824747	 -1.836886

	symmetry c1
}
set optking {
	frozen_dihedral = ("
		2 4 11 13,
		11 4 2 3
	")
}

ee = energy('scf')
oeprop('DIPOLE', 'QUADRUPOLE', 'MULLIKEN_CHARGES')
f=open( 'psi4out.xyz', 'w' )
f.write( "17  " )
f.write( str(ee) + "\n" )
f.write( MOL.save_string_xyz() )
f.close()
--------------------------------------------------------------------------

    Molecular point group: c1

    Geometry (in Angstrom), charge = 0, multiplicity = 1:

       Center              X                  Y                   Z               Mass
    ------------   -----------------  -----------------  -----------------  -----------------
           O          0.284150887076     0.970230726624     1.184205804464    15.994914619560
           C          0.347850887076     0.015322726624     0.478628804464    12.000000000000
           C          1.469659887076    -0.995523273376     0.478151804464    12.000000000000
           O         -0.577039112924    -0.291402273376    -0.420318195536    15.994914619560
           C          2.851650887076    -0.354378273376     0.477165804464    12.000000000000
           H          1.330166887076    -1.635399273376    -0.388074195536     1.007825032070
           H          1.331226887076    -1.635169273376     1.344727804464     1.007825032070
           H          2.991279887076     0.269483726624    -0.397285195536     1.007825032070
           H          3.619425887076    -1.120757273376     0.476652804464     1.007825032070
           H          2.992507887076     0.269502726624     1.351382804464     1.007825032070
           C         -1.698959112924     0.578095726624    -0.532874195536    12.000000000000
           C         -2.598925112924     0.019947726624    -1.614929195536    12.000000000000
           H         -1.351048112924     1.572790726624    -0.776030195536     1.007825032070
           H         -2.204500112924     0.626828726624     0.421926804464     1.007825032070
           H         -2.076286112924    -0.027495273376    -2.563483195536     1.007825032070
           H         -3.470641112924     0.655142726624    -1.734459195536     1.007825032070
           H         -2.934520112924    -0.978627273376    -1.359036195536     1.007825032070

  Charge       = 0
  Multiplicity = 1
  Basis Set: 6-31G*
  Basis Set:

    Orbital Energies (a.u.)
    -----------------------

    Doubly Occupied:

       1A    -20.602420     2A    -20.542615     3A    -11.371035
       4A    -11.284494     5A    -11.236114     6A    -11.222351
       7A    -11.221041     8A     -1.467646     9A     -1.361323
      10A     -1.071074    11A     -1.032121    12A     -0.911188
      13A     -0.849548    14A     -0.774879    15A     -0.694097
      16A     -0.686973    17A     -0.665848    18A     -0.621844
      19A     -0.590656    20A     -0.574572    21A     -0.556493
      22A     -0.530209    23A     -0.526834    24A     -0.510271
      25A     -0.502724    26A     -0.491678    27A     -0.452061
      28A     -0.433463

  @DF-RHF Final Energy:  -344.91013785179945

   => Energetics <=

    Nuclear Repulsion Energy =            314.9025884778178010
    One-Electron Energy =               -1094.0542961057110460
    Two-Electron Energy =                 434.2415697760933426
    DFT Exchange-Correlation Energy =       0.0000000000000000
    Empirical Dispersion Energy =           0.0000000000000000
    PCM Polarization Energy =               0.0000000000000000
    EFP Energy =                            0.0000000000000000
    Total Energy =                       -344.9101378517999592

  Mulliken Charges: (a.u.)
   Center  Symbol    Alpha    Beta     Spin     Total
       1     O     4.28640  4.28640  0.00000 -0.57280
       2     C     2.60507  2.60507  0.00000  0.78987
       3     C     3.20678  3.20678  0.00000 -0.41355
       4     O     4.31127  4.31127  0.00000 -0.62254
       5     C     3.24459  3.24459  0.00000 -0.48918
       6     H     0.40040  0.40040  0.00000  0.19919
       7     H     0.40031  0.40031  0.00000  0.19939
       8     H     0.41475  0.41475  0.00000  0.17050
       9     H     0.41492  0.41492  0.00000  0.17016
      10     H     0.40374  0.40374  0.00000  0.19253
      11     C     3.00320  3.00320  0.00000 -0.00639
      12     C     3.24847  3.24847  0.00000 -0.49694
      13     H     0.40999  0.40999  0.00000  0.18002
      14     H     0.41012  0.41012  0.00000  0.17976
      15     H     0.41193  0.41193  0.00000  0.17614
      16     H     0.41625  0.41625  0.00000  0.16750
      17     H     0.41183  0.41183  0.00000  0.17635

   Total alpha = 28.00000, Total beta = 28.00000, Total charge = -0.00000
