  ==> Input File <==

--------------------------------------------------------------------------
set {
	reference rhf
	basis 6-31G*
}

set_num_threads( 1 )
memory 2 gb

molecule MOL {
0 1

H	 -3.683077	 -0.180982	 0.246418
C	 -3.336902	 0.138766	 -0.744313
C	 -2.409844	 1.327534	 -0.742413
O	 -3.694901	 -0.440820	 -1.717795
C	 -1.220012	 1.144545	 0.209990
H	 -2.082085	 1.507379	 -1.759732
H	 -2.995059	 2.188996	 -0.422941
C	 -0.252658	 0.041456	 -0.226725
H	 -0.685339	 2.087340	 0.277419
H	 -1.588911	 0.933597	 1.212572
C	 1.180775	 0.282413	 0.250794
H	 -0.266029	 -0.034465	 -1.312038
H	 -0.597733	 -0.921000	 0.146291
C	 2.148627	 -0.814315	 -0.201312
H	 1.516199	 1.249228	 -0.115937
H	 1.192670	 0.346017	 1.338083
C	 3.580890	 -0.659131	 0.322722
H	 2.166869	 -0.852443	 -1.289387
H	 1.762857	 -1.776509	 0.128956
C	 4.324889	 0.564933	 -0.213704
H	 4.142010	 -1.551473	 0.056605
H	 3.564836	 -0.624694	 1.410140
H	 4.342616	 0.565491	 -1.300421
H	 3.866655	 1.493402	 0.110242
H	 5.353900	 0.572371	 0.132816

	symmetry c1
}
set optking {
	frozen_dihedral = ("
		6 3 5 8,
		6 3 2 4,
		12 8 11 14,
		8 11 14 18,
		20 17 14 18
	")
}

ee = energy('scf')
oeprop('DIPOLE', 'QUADRUPOLE', 'MULLIKEN_CHARGES')
f=open( 'psi4out.xyz', 'w' )
f.write( "25  " )
f.write( str(ee) + "\n" )
f.write( MOL.save_string_xyz() )
f.close()
--------------------------------------------------------------------------

    Molecular point group: c1

    Geometry (in Angstrom), charge = 0, multiplicity = 1:

       Center              X                  Y                   Z               Mass
    ------------   -----------------  -----------------  -----------------  -----------------
           H         -3.723860718474    -0.355075908050     0.595819481580     1.007825032070
           C         -3.377685718474    -0.035327908050    -0.394911518420    12.000000000000
           C         -2.450627718474     1.153440091950    -0.393011518420    12.000000000000
           O         -3.735684718474    -0.614913908050    -1.368393518420    15.994914619560
           C         -1.260795718474     0.970451091950     0.559391481580    12.000000000000
           H         -2.122868718474     1.333285091950    -1.410330518420     1.007825032070
           H         -3.035842718474     2.014902091950    -0.073539518420     1.007825032070
           C         -0.293441718474    -0.132637908050     0.122676481580    12.000000000000
           H         -0.726122718474     1.913246091950     0.626820481580     1.007825032070
           H         -1.629694718474     0.759503091950     1.561973481580     1.007825032070
           C          1.139991281526     0.108319091950     0.600195481580    12.000000000000
           H         -0.306812718474    -0.208558908050    -0.962636518420     1.007825032070
           H         -0.638516718474    -1.095093908050     0.495692481580     1.007825032070
           C          2.107843281526    -0.988408908050     0.148089481580    12.000000000000
           H          1.475415281526     1.075134091950     0.233464481580     1.007825032070
           H          1.151886281526     0.171923091950     1.687484481580     1.007825032070
           C          3.540106281526    -0.833224908050     0.672123481580    12.000000000000
           H          2.126085281526    -1.026536908050    -0.939985518420     1.007825032070
           H          1.722073281526    -1.950602908050     0.478357481580     1.007825032070
           C          4.284105281526     0.390839091950     0.135697481580    12.000000000000
           H          4.101226281526    -1.725566908050     0.406006481580     1.007825032070
           H          3.524052281526    -0.798787908050     1.759541481580     1.007825032070
           H          4.301832281526     0.391397091950    -0.951019518420     1.007825032070
           H          3.825871281526     1.319308091950     0.459643481580     1.007825032070
           H          5.313116281526     0.398277091950     0.482217481580     1.007825032070

  Charge       = 0
  Multiplicity = 1
  Basis Set: 6-31G*
  Basis Set:

    Orbital Energies (a.u.)
    -----------------------

    Doubly Occupied:

       1A    -20.561994     2A    -11.326046     3A    -11.235035
       4A    -11.234318     5A    -11.223029     6A    -11.219963
       7A    -11.217912     8A    -11.216745     9A    -11.210564
      10A     -1.401902    11A     -1.103945    12A     -1.069594
      13A     -1.013204    14A     -0.942357    15A     -0.875011
      16A     -0.821030    17A     -0.787404    18A     -0.781909
      19A     -0.664883    20A     -0.659889    21A     -0.634253
      22A     -0.625241    23A     -0.602014    24A     -0.593313
      25A     -0.577525    26A     -0.546764    27A     -0.536929
      28A     -0.524388    29A     -0.509001    30A     -0.496460
      31A     -0.491145    32A     -0.477117    33A     -0.463978
      34A     -0.459303    35A     -0.440844    36A     -0.409288

  @DF-RHF Final Energy:  -387.11969853460471

   => Energetics <=

    Nuclear Repulsion Energy =            439.1103511306442897
    One-Electron Energy =               -1394.5515061143685216
    Two-Electron Energy =                 568.3214564491203191
    DFT Exchange-Correlation Energy =       0.0000000000000000
    Empirical Dispersion Energy =           0.0000000000000000
    PCM Polarization Energy =               0.0000000000000000
    EFP Energy =                            0.0000000000000000
    Total Energy =                       -387.1196985346039128

  Mulliken Charges: (a.u.)
   Center  Symbol    Alpha    Beta     Spin     Total
       1     H     0.43264  0.43264  0.00000  0.13473
       2     C     2.83032  2.83032  0.00000  0.33936
       3     C     3.20952  3.20952  0.00000 -0.41904
       4     O     4.23765  4.23765  0.00000 -0.47529
       5     C     3.16667  3.16667  0.00000 -0.33333
       6     H     0.39961  0.39961  0.00000  0.20077
       7     H     0.40720  0.40720  0.00000  0.18560
       8     C     3.15678  3.15678  0.00000 -0.31355
       9     H     0.41224  0.41224  0.00000  0.17551
      10     H     0.41817  0.41817  0.00000  0.16366
      11     C     3.15530  3.15530  0.00000 -0.31059
      12     H     0.41533  0.41533  0.00000  0.16933
      13     H     0.41894  0.41894  0.00000  0.16212
      14     C     3.15332  3.15332  0.00000 -0.30665
      15     H     0.42055  0.42055  0.00000  0.15890
      16     H     0.42344  0.42344  0.00000  0.15311
      17     C     3.15273  3.15273  0.00000 -0.30546
      18     H     0.42245  0.42245  0.00000  0.15511
      19     H     0.42125  0.42125  0.00000  0.15751
      20     C     3.24135  3.24135  0.00000 -0.48269
      21     H     0.42004  0.42004  0.00000  0.15993
      22     H     0.42335  0.42335  0.00000  0.15329
      23     H     0.42169  0.42169  0.00000  0.15662
      24     H     0.42078  0.42078  0.00000  0.15845
      25     H     0.41870  0.41870  0.00000  0.16261

   Total alpha = 36.00000, Total beta = 36.00000, Total charge = -0.00000
