                              Psi4 1.0.54 Driver

  ==> Input File <==

--------------------------------------------------------------------------
set {
	reference rhf
	basis cc-pvtz
}

set_num_threads( 4 )
memory 2 gb

molecule MOL {
0 1

O	 -2.071633	 -1.227563	 -0.223463
C	 -1.652164	 -0.152425	 0.058082
C	 -0.327811	 0.006324	 0.778296
C	 -2.402515	 1.108629	 -0.298924
C	 0.843231	 -0.001575	 -0.211665
H	 -0.319484	 0.928173	 1.350354
H	 -0.227804	 -0.823091	 1.466705
C	 1.687679	 1.267014	 -0.135377
H	 0.467646	 -0.120324	 -1.224843
H	 1.464352	 -0.867013	 -0.007726
C	 2.860906	 1.258207	 -1.109350
H	 1.059329	 2.130784	 -0.334378
H	 2.060099	 1.386685	 0.877797
H	 2.518101	 1.174740	 -2.135289
H	 3.524489	 0.422764	 -0.914258
H	 3.442713	 2.168904	 -1.028530
H	 -3.240910	 0.874416	 -0.936711
H	 -1.747554	 1.818823	 -0.790984
H	 -2.760419	 1.579708	 0.610998

	symmetry c1
}
set optking {
	frozen_dihedral = ("
		9 5 3 2
	")
}

ee,wfn = optimize('scf', return_wfn=True)
oeprop( wfn, 'DIPOLE', 'QUADRUPOLE', 'MULLIKEN_CHARGES')
f=open( 'psi4out.xyz', 'w' )
f.write( "19  " )
f.write( str(ee) + "\n" )
f.write( MOL.save_string_xyz() )
f.close()
--------------------------------------------------------------------------

    Molecular point group: c1
  Charge       = 0
  Multiplicity = 1
  Basis Set: CC-PVTZ
  Basis Set:
  @DF-RHF Final Energy:  -309.17140108099431
    Total Energy =                       -309.1714010809942010
    Molecular point group: c1
  Basis Set: CC-PVTZ
  Basis Set:
  Basis Set: CC-PVTZ
  Basis Set:
  @DF-RHF Final Energy:  -309.17162608659419
    Total Energy =                       -309.1716260865941877
  Basis Set: CC-PVTZ
  Basis Set:
  Basis Set: CC-PVTZ
  Basis Set:
  @DF-RHF Final Energy:  -309.16908040423641
    Total Energy =                       -309.1690804042361265
  Basis Set: CC-PVTZ
  Basis Set:
  Basis Set: CC-PVTZ
  Basis Set:
  @DF-RHF Final Energy:  -309.17191507894404
    Total Energy =                       -309.1719150789439254
  Basis Set: CC-PVTZ
  Basis Set:
  @DF-RHF Final Energy:  -309.17208492251558
    Total Energy =                       -309.1720849225154097
  Basis Set: CC-PVTZ
  Basis Set:
  @DF-RHF Final Energy:  -309.17215430400631
    Total Energy =                       -309.1721543040063693
  Basis Set: CC-PVTZ
  Basis Set:
  Basis Set: CC-PVTZ
  Basis Set:
  @DF-RHF Final Energy:  -309.17216253052322
    Total Energy =                       -309.1721625305230532
  Basis Set: CC-PVTZ
  Basis Set:
  Basis Set: CC-PVTZ
  Basis Set:
  @DF-RHF Final Energy:  -309.17216592448767
    Total Energy =                       -309.1721659244875582
  Basis Set: CC-PVTZ
  Basis Set:
  Charge       = 0
  Multiplicity = 1
  Basis Set: CC-PVTZ
  Basis Set:

    Orbital Energies (a.u.)
    -----------------------

    Doubly Occupied:

       1A    -20.536672     2A    -11.319165     3A    -11.231297
       4A    -11.227930     5A    -11.226818     6A    -11.226456
       7A    -11.215627     8A     -1.396602     9A     -1.093602
      10A     -1.030575    11A     -0.983744    12A     -0.894896
      13A     -0.811638    14A     -0.735666    15A     -0.662166
      16A     -0.648417    17A     -0.623484    18A     -0.614576
      19A     -0.586412    20A     -0.577358    21A     -0.553973
      22A     -0.536507    23A     -0.519835    24A     -0.505209
      25A     -0.483202    26A     -0.476299    27A     -0.469433
      28A     -0.399466

  @DF-RHF Final Energy:  -309.17216625832538

   => Energetics <=

    Nuclear Repulsion Energy =            303.8856346433122440
    One-Electron Energy =               -1020.9415517203218542
    Two-Electron Energy =                 407.8837508186842342
    DFT Exchange-Correlation Energy =       0.0000000000000000
    Empirical Dispersion Energy =           0.0000000000000000
    PCM Polarization Energy =               0.0000000000000000
    EFP Energy =                            0.0000000000000000
    Total Energy =                       -309.1721662583253192
    Molecular point group: c1
  Basis Set: CC-PVTZ
  Basis Set:

  -Total Gradient:
     Atom            X                  Y                   Z
    ------   -----------------  -----------------  -----------------
       1       -0.000016440526    -0.000029174834     0.000010763026
       2       -0.000077622143     0.000636291682    -0.000008776891
       3        0.000170890183    -0.001048285609    -0.000105395461
       4       -0.000028830701     0.000004454694     0.000041981870
       5       -0.000194324414     0.001267918588     0.000040630371
       6       -0.000019120107     0.000006008993     0.000007856566
       7       -0.000006655215    -0.000005299408     0.000010517330
       8        0.000040311129    -0.000010714286     0.000034587450
       9        0.000132751995    -0.000862297816     0.000003129497
      10       -0.000003468714     0.000016322463     0.000006377166
      11       -0.000019200010     0.000015540647    -0.000023233344
      12       -0.000014531280     0.000002247510     0.000009817250
      13        0.000016654175    -0.000007926041     0.000005936958
      14        0.000006701655    -0.000003688796    -0.000015951334
      15       -0.000001933001    -0.000000586754     0.000008566276
      16       -0.000003099715     0.000007578421    -0.000005754845
      17       -0.000003816843    -0.000015752322    -0.000007939804
      18        0.000021335736     0.000003960395    -0.000020818069
      19        0.000000397794     0.000023402474     0.000007705985

  **** Optimization is complete! (in 9 steps) ****
    Final optimized geometry and variables:
    Molecular point group: c1

    Geometry (in Angstrom), charge = 0, multiplicity = 1:

    O           -1.997687290288    -1.663589078923     0.165328632516
    C           -1.487263261918    -0.594461194886     0.251782985120
    C           -0.147300950848    -0.407485199082     0.931504660504
    C           -2.148601152275     0.641248219539    -0.315384527640
    C            1.006059188885    -0.247148047378    -0.090595184992
    H           -0.197059576245     0.470345690535     1.567476084690
    H            0.017395996696    -1.267062844494     1.564138246832
    C            1.804239281310     1.043010906762     0.077410380332
    H            0.620171198328    -0.301309652301    -1.104171450574
    H            1.675131922759    -1.093845255199     0.006107206270
    C            2.944110260971     1.172636015834    -0.926370192064
    H            1.137588191370     1.895711725549    -0.020157950168
    H            2.203576712267     1.084464605224     1.086891619232
    H            2.571755724081     1.166059493847    -1.945342978174
    H            3.647149774721     0.352555053378    -0.827491526142
    H            3.490976034189     2.096686580957    -0.780073756458
    H           -2.988975412005     0.360088643452    -0.931288934755
    H           -1.447611652356     1.233463565697    -0.891400332007
    H           -2.496608985298     1.261400810891     0.504575042210

  Mulliken Charges: (a.u.)
   Center  Symbol    Alpha    Beta     Spin     Total
       1     O     4.17547  4.17547  0.00000 -0.35094
       2     C     2.85618  2.85618  0.00000  0.28764
       3     C     3.10067  3.10067  0.00000 -0.20134
       4     C     3.15740  3.15740  0.00000 -0.31480
       5     C     3.10870  3.10870  0.00000 -0.21740
       6     H     0.45041  0.45041  0.00000  0.09918
       7     H     0.43572  0.43572  0.00000  0.12857
       8     C     3.08538  3.08538  0.00000 -0.17076
       9     H     0.44782  0.44782  0.00000  0.10436
      10     H     0.43919  0.43919  0.00000  0.12163
      11     C     3.14994  3.14994  0.00000 -0.29989
      12     H     0.45430  0.45430  0.00000  0.09139
      13     H     0.45088  0.45088  0.00000  0.09825
      14     H     0.45420  0.45420  0.00000  0.09160
      15     H     0.45310  0.45310  0.00000  0.09381
      16     H     0.44708  0.44708  0.00000  0.10584
      17     H     0.43480  0.43480  0.00000  0.13039
      18     H     0.45089  0.45089  0.00000  0.09822
      19     H     0.44788  0.44788  0.00000  0.10425

   Total alpha = 28.00000, Total beta = 28.00000, Total charge = -0.00000

*** Psi4 exiting successfully. Buy a developer a beer!
