  ==> Input File <==

--------------------------------------------------------------------------
set {
	reference rhf
	basis cc-pvtz
}

set_num_threads( 4 )
memory 2 gb

molecule MOL {
0 1

H	 -3.268214	 -0.875720	 0.463107
C	 -2.806015	 0.000007	 0.024886
N	 -1.391133	 0.000016	 0.301321
H	 -3.029448	 0.000055	 -1.045738
H	 -3.268126	 0.875758	 0.463150
C	 -0.686012	 1.025137	 -0.437264
C	 -0.788100	 -1.297305	 0.084894
H	 -0.772132	 0.869543	 -1.516719
H	 -1.127690	 1.987997	 -0.209437
C	 0.782653	 1.046111	 -0.057006
H	 -1.304298	 -2.029920	 0.693914
H	 -0.881176	 -1.611216	 -0.958967
C	 0.680565	 -1.276331	 0.465152
H	 1.298851	 1.778725	 -0.666027
H	 0.875729	 1.360021	 0.986854
N	 1.385686	 -0.251210	 -0.273434
H	 1.122244	 -2.239191	 0.237325
H	 0.766685	 -1.120737	 1.544607
C	 2.800568	 -0.251201	 0.003001
H	 3.297752	 0.486589	 -0.614280
H	 3.222671	 -1.220672	 -0.230487
H	 3.028877	 -0.026189	 1.048660

	symmetry c1
}
set optking {
	frozen_dihedral = ("
		6 3 2 4
	")
}

ee = optimize('scf')
oeprop('DIPOLE', 'QUADRUPOLE', 'MULLIKEN_CHARGES')
f=open( 'psi4out.xyz', 'w' )
f.write( "22  " )
f.write( str(ee) + "\n" )
f.write( MOL.save_string_xyz() )
f.close()
--------------------------------------------------------------------------

    Molecular point group: c1
  Charge       = 0
  Multiplicity = 1
  Basis Set: CC-PVTZ
  Basis Set:
  @DF-RHF Final Energy:  -344.35000609414351
    Total Energy =                       -344.3500060941437368
    Molecular point group: c1
  Basis Set: CC-PVTZ
  Basis Set:
  Basis Set: CC-PVTZ
  Basis Set:
  @DF-RHF Final Energy:  -344.35007773115683
    Total Energy =                       -344.3500777311570573
  Basis Set: CC-PVTZ
  Basis Set:
  Charge       = 0
  Multiplicity = 1
  Basis Set: CC-PVTZ
  Basis Set:

    Orbital Energies (a.u.)
    -----------------------

    Doubly Occupied:

       1A    -15.538088     2A    -15.537592     3A    -11.237618
       4A    -11.237548     5A    -11.236968     6A    -11.236897
       7A    -11.234298     8A    -11.234259     9A     -1.257527
      10A     -1.206565    11A     -1.025755    12A     -0.993021
      13A     -0.912210    14A     -0.867896    15A     -0.836460
      16A     -0.756004    17A     -0.667011    18A     -0.637986
      19A     -0.632197    20A     -0.627250    21A     -0.623290
      22A     -0.582622    23A     -0.550350    24A     -0.546513
      25A     -0.542275    26A     -0.517914    27A     -0.497166
      28A     -0.490809    29A     -0.465957    30A     -0.457088
      31A     -0.353212    32A     -0.348436

  @DF-RHF Final Energy:  -344.35008204388492

   => Energetics <=

    Nuclear Repulsion Energy =            422.0289767727055619
    One-Electron Energy =               -1302.9805547064593156
    Two-Electron Energy =                 536.6014958898690566
    DFT Exchange-Correlation Energy =       0.0000000000000000
    Empirical Dispersion Energy =           0.0000000000000000
    PCM Polarization Energy =               0.0000000000000000
    EFP Energy =                            0.0000000000000000
    Total Energy =                       -344.3500820438846404
    Molecular point group: c1
  Basis Set: CC-PVTZ
  Basis Set:

  -Total Gradient:
     Atom            X                  Y                   Z
    ------   -----------------  -----------------  -----------------
       1       -0.000035772518    -0.000001012013     0.000005971139
       2        0.000253305926    -0.004381093346    -0.000568062672
       3       -0.000344794538     0.002653849589     0.002135072703
       4       -0.000020041574     0.002958077794    -0.000023934142
       5        0.000035835303     0.000011794051    -0.000024739128
       6        0.000195299937    -0.001466318978    -0.001447247310
       7       -0.000170591346     0.000043100993     0.000098381233
       8        0.000045958373     0.000023943873    -0.000008469580
       9        0.000015128118     0.000081308487    -0.000051575060
      10        0.000019409596     0.000069690297    -0.000103899470
      11        0.000012149718    -0.000061446681    -0.000014593213
      12       -0.000001686254     0.000019135407    -0.000034130745
      13       -0.000019769798     0.000059910898     0.000044691451
      14        0.000009715528     0.000011184688     0.000006273217
      15       -0.000031369684    -0.000005726894    -0.000013689140
      16        0.000035616108     0.000009545771    -0.000015132058
      17       -0.000042775500     0.000006805945    -0.000007334735
      18        0.000022339192    -0.000004164504     0.000021010491
      19        0.000029544297    -0.000019859831     0.000001949883
      20       -0.000009798059    -0.000003022270    -0.000002496721
      21        0.000006882528    -0.000006180818     0.000001676944
      22       -0.000004585356     0.000000477540     0.000000276910

  **** Optimization is complete! (in 3 steps) ****
    Final optimized geometry and variables:
    Molecular point group: c1

    Geometry (in Angstrom), charge = 0, multiplicity = 1:

    H           -3.281280964077    -0.730628228189     0.464363065764
    C           -2.803950875511     0.127842285322     0.010954199821
    N           -1.389337187463     0.122647115905     0.297137801153
    H           -3.019274185784     0.123565416054    -1.060730602939
    H           -3.259212669764     1.019991284309     0.425661650245
    C           -0.685664961466     1.144952484879    -0.447665452464
    C           -0.784004276988    -1.172904480456     0.067255525993
    H           -0.774449303657     0.980701041815    -1.525349049564
    H           -1.129221902907     2.109272726746    -0.227096853892
    C            0.783770315789     1.172143277960    -0.071417225457
    H           -1.295773455807    -1.912243998983     0.671534399293
    H           -0.876931490740    -1.478778799780    -0.979047872815
    C            0.685255291751    -1.151253287903     0.446061990813
    H            1.295666287591     1.906191103161    -0.682564840273
    H            0.878537492455     1.487492850667     0.971867689863
    N            1.389819447767    -0.123394746038    -0.288982800501
    H            1.127385342778    -2.113225649183     0.214930459892
    H            0.771296440369    -0.999518881366     1.526193185162
    C            2.804257181950    -0.121782848867    -0.011449675537
    H            3.300728106774     0.618262041767    -0.626724497684
    H            3.228251273510    -1.090084234025    -0.246716209465
    H            3.031594800403     0.101328580052     1.034915371111

  Mulliken Charges: (a.u.)
   Center  Symbol    Alpha    Beta     Spin     Total
       1     H     0.45254  0.45254  0.00000  0.09491
       2     C     3.09838  3.09838  0.00000 -0.19675
       3     N     3.61373  3.61373  0.00000 -0.22747
       4     H     0.46951  0.46951  0.00000  0.06098
       5     H     0.45102  0.45102  0.00000  0.09796
       6     C     3.03650  3.03650  0.00000 -0.07299
       7     C     3.03475  3.03475  0.00000 -0.06950
       8     H     0.46704  0.46704  0.00000  0.06591
       9     H     0.45388  0.45388  0.00000  0.09224
      10     C     3.03547  3.03547  0.00000 -0.07093
      11     H     0.45364  0.45364  0.00000  0.09273
      12     H     0.46866  0.46866  0.00000  0.06268
      13     C     3.03586  3.03586  0.00000 -0.07171
      14     H     0.45377  0.45377  0.00000  0.09245
      15     H     0.46795  0.46795  0.00000  0.06410
      16     N     3.61301  3.61301  0.00000 -0.22602
      17     H     0.45384  0.45384  0.00000  0.09233
      18     H     0.46808  0.46808  0.00000  0.06384
      19     C     3.09847  3.09847  0.00000 -0.19694
      20     H     0.45197  0.45197  0.00000  0.09607
      21     H     0.45195  0.45195  0.00000  0.09611
      22     H     0.47000  0.47000  0.00000  0.06000

   Total alpha = 32.00000, Total beta = 32.00000, Total charge = -0.00000
