  ==> Input File <==

--------------------------------------------------------------------------
set {
	reference rhf
	basis 6-31G*
}

set_num_threads( 1 )
memory 2 gb

molecule MOL {
0 1

O	 -2.821601	 1.309235	 -0.001213
C	 -2.668563	 0.129746	 -0.000350
C	 -3.801572	 -0.864014	 -0.000442
O	 -1.481751	 -0.454642	 0.000584
H	 -4.417280	 -0.689587	 -0.874708
H	 -3.443784	 -1.883046	 -0.000565
H	 -4.417179	 -0.689832	 0.873954
C	 -0.334255	 0.388708	 0.000906
C	 0.891947	 -0.504646	 0.000751
H	 -0.365390	 1.025305	 -0.873475
H	 -0.365484	 1.024911	 0.875569
C	 2.191998	 0.301789	 0.000897
H	 0.855148	 -1.151283	 -0.871571
H	 0.855132	 -1.151660	 0.872805
C	 2.913018	 0.269690	 1.349758
H	 2.858085	 -0.081724	 -0.770032
H	 1.978990	 1.335350	 -0.266423
C	 4.212186	 1.074070	 1.349456
H	 3.126958	 -0.762402	 1.618256
H	 2.249640	 0.654756	 2.120942
H	 4.910484	 0.691101	 0.610721
H	 4.699888	 1.032111	 2.318281
H	 4.026545	 2.118942	 1.117529

	symmetry c1
}
set optking {
	frozen_dihedral = ("
		13 9 8 10,
		2 4 8 10,
		19 15 12 16,
		1 2 4 8
	")
}

ee = energy('scf')
oeprop('DIPOLE', 'QUADRUPOLE', 'MULLIKEN_CHARGES')
f=open( 'psi4out.xyz', 'w' )
f.write( "23  " )
f.write( str(ee) + "\n" )
f.write( MOL.save_string_xyz() )
f.close()
--------------------------------------------------------------------------

    Molecular point group: c1

    Geometry (in Angstrom), charge = 0, multiplicity = 1:

       Center              X                  Y                   Z               Mass
    ------------   -----------------  -----------------  -----------------  -----------------
           O         -2.703808978356     1.119397616093    -0.302565422269    15.994914619560
           C         -2.550770978356    -0.060091383907    -0.301702422269    12.000000000000
           C         -3.683779978356    -1.053851383907    -0.301794422269    12.000000000000
           O         -1.363958978356    -0.644479383907    -0.300768422269    15.994914619560
           H         -4.299487978356    -0.879424383907    -1.176060422269     1.007825032070
           H         -3.325991978356    -2.072883383907    -0.301917422269     1.007825032070
           H         -4.299386978356    -0.879669383907     0.572601577731     1.007825032070
           C         -0.216462978356     0.198870616093    -0.300446422269    12.000000000000
           C          1.009739021644    -0.694483383907    -0.300601422269    12.000000000000
           H         -0.247597978356     0.835467616093    -1.174827422269     1.007825032070
           H         -0.247691978356     0.835073616093     0.574216577731     1.007825032070
           C          2.309790021644     0.111951616093    -0.300455422269    12.000000000000
           H          0.972940021644    -1.341120383907    -1.172923422269     1.007825032070
           H          0.972924021644    -1.341497383907     0.571452577731     1.007825032070
           C          3.030810021644     0.079852616093     1.048405577731    12.000000000000
           H          2.975877021644    -0.271561383907    -1.071384422269     1.007825032070
           H          2.096782021644     1.145512616093    -0.567775422269     1.007825032070
           C          4.329978021644     0.884232616093     1.048103577731    12.000000000000
           H          3.244750021644    -0.952239383907     1.316903577731     1.007825032070
           H          2.367432021644     0.464918616093     1.819589577731     1.007825032070
           H          5.028276021644     0.501263616093     0.309368577731     1.007825032070
           H          4.817680021644     0.842273616093     2.016928577731     1.007825032070
           H          4.144337021644     1.929104616093     0.816176577731     1.007825032070

  Charge       = 0
  Multiplicity = 1
  Basis Set: 6-31G*
  Basis Set:

    Orbital Energies (a.u.)
    -----------------------

    Doubly Occupied:

       1A    -20.602863     2A    -20.540603     3A    -11.374108
       4A    -11.281972     5A    -11.232361     6A    -11.223118
       7A    -11.222535     8A    -11.221604     9A    -11.212398
      10A     -1.467983    11A     -1.360779    12A     -1.094920
      13A     -1.041309    14A     -1.003022    15A     -0.930763
      16A     -0.844279    17A     -0.799621    18A     -0.777617
      19A     -0.688474    20A     -0.684870    21A     -0.672579
      22A     -0.635251    23A     -0.614930    24A     -0.586147
      25A     -0.579555    26A     -0.572432    27A     -0.560352
      28A     -0.532046    29A     -0.526230    30A     -0.502125
      31A     -0.496913    32A     -0.478872    33A     -0.468809
      34A     -0.461700    35A     -0.449391    36A     -0.435501

  @DF-RHF Final Energy:  -422.97482333626431

   => Energetics <=

    Nuclear Repulsion Energy =            453.0638351863615298
    One-Electron Energy =               -1473.7211795516057009
    Two-Electron Energy =                 597.6825210289803181
    DFT Exchange-Correlation Energy =       0.0000000000000000
    Empirical Dispersion Energy =           0.0000000000000000
    PCM Polarization Energy =               0.0000000000000000
    EFP Energy =                            0.0000000000000000
    Total Energy =                       -422.9748233362638530

  Mulliken Charges: (a.u.)
   Center  Symbol    Alpha    Beta     Spin     Total
       1     O     4.28396  4.28396  0.00000 -0.56792
       2     C     2.61552  2.61552  0.00000  0.76895
       3     C     3.28778  3.28778  0.00000 -0.57556
       4     O     4.31231  4.31231  0.00000 -0.62463
       5     H     0.39751  0.39751  0.00000  0.20499
       6     H     0.39984  0.39984  0.00000  0.20032
       7     H     0.39753  0.39753  0.00000  0.20494
       8     C     2.99974  2.99974  0.00000  0.00052
       9     C     3.16576  3.16576  0.00000 -0.33152
      10     H     0.40991  0.40991  0.00000  0.18019
      11     H     0.41066  0.41066  0.00000  0.17867
      12     C     3.16387  3.16387  0.00000 -0.32774
      13     H     0.41184  0.41184  0.00000  0.17632
      14     H     0.41184  0.41184  0.00000  0.17632
      15     C     3.15340  3.15340  0.00000 -0.30680
      16     H     0.41673  0.41673  0.00000  0.16654
      17     H     0.41911  0.41911  0.00000  0.16178
      18     C     3.24035  3.24035  0.00000 -0.48070
      19     H     0.42064  0.42064  0.00000  0.15871
      20     H     0.42198  0.42198  0.00000  0.15603
      21     H     0.42105  0.42105  0.00000  0.15790
      22     H     0.41807  0.41807  0.00000  0.16387
      23     H     0.42059  0.42059  0.00000  0.15882

   Total alpha = 36.00000, Total beta = 36.00000, Total charge = -0.00000
