  ==> Input File <==

--------------------------------------------------------------------------
set {
	reference rhf
	basis 6-31G*
}

set_num_threads( 4 )
memory 2 gb

molecule MOL {
0 1

H	 -2.083118	 1.361286	 -2.122086
O	 -2.266642	 1.911087	 -1.372492
C	 -1.145330	 1.933424	 -0.538152
C	 -0.793441	 0.596080	 0.058728
H	 -1.372043	 2.637561	 0.254309
H	 -0.277916	 2.328220	 -1.066123
C	 -1.530462	 -0.493172	 -0.025500
H	 0.143516	 0.568686	 0.593371
H	 -1.092586	 -1.461565	 -0.186463
H	 -2.602122	 -0.450675	 0.050101

	symmetry c1
}
set optking {
	frozen_dihedral = ("
		3 4 7 9
	")
}

ee = optimize('scf')
oeprop('DIPOLE', 'QUADRUPOLE', 'MULLIKEN_CHARGES')
f=open( 'psi4out.xyz', 'w' )
f.write( "10  " )
f.write( str(ee) + "\n" )
f.write( MOL.save_string_xyz() )
f.close()
--------------------------------------------------------------------------

    Molecular point group: c1
  Charge       = 0
  Multiplicity = 1
  Basis Set: 6-31G*
  Basis Set:
  @DF-RHF Final Energy:  -191.88090760331673
    Total Energy =                       -191.8809076033166718
    Molecular point group: c1
  Basis Set: 6-31G*
  Basis Set:
  Basis Set: 6-31G*
  Basis Set:
  @DF-RHF Final Energy:  -191.89640705102534
    Total Energy =                       -191.8964070510252213
  Basis Set: 6-31G*
  Basis Set:
  Basis Set: 6-31G*
  Basis Set:
  @DF-RHF Final Energy:  -191.90164452181500
    Total Energy =                       -191.9016445218150295
  Basis Set: 6-31G*
  Basis Set:
  Basis Set: 6-31G*
  Basis Set:
  @DF-RHF Final Energy:  -191.90187928060152
    Total Energy =                       -191.9018792806015199
  Basis Set: 6-31G*
  Basis Set:
  @DF-RHF Final Energy:  -191.90190133878878
    Total Energy =                       -191.9019013387888037
  @DF-RHF Final Energy:  -191.90190251127251
    Total Energy =                       -191.9019025112725672
  @DF-RHF Final Energy:  -191.87123046348273
    Total Energy =                       -191.8712304634827319
  @DF-RHF Final Energy:  -191.78390147694603
    Total Energy =                       -191.7839014769460277
  @DF-RHF Final Energy:  -191.86821189665449
    Total Energy =                       -191.8682118966545147
  @DF-RHF Final Energy:  -191.81346599253445
    Total Energy =                       -191.8134659925344465
  @DF-RHF Final Energy:  -191.88235876738932
    Total Energy =                       -191.8823587673893485
  @DF-RHF Final Energy:  -191.89866835453972
    Total Energy =                       -191.8986683545396659
  @DF-RHF Final Energy:  -191.90015574369576
    Total Energy =                       -191.9001557436956773
  @DF-RHF Final Energy:  -191.90073266787127
    Total Energy =                       -191.9007326678712957
  @DF-RHF Final Energy:  -191.90117939482298
    Total Energy =                       -191.9011793948229752
  @DF-RHF Final Energy:  -191.90156520235439
    Total Energy =                       -191.9015652023543907
  @DF-RHF Final Energy:  -191.90170173084465
    Total Energy =                       -191.9017017308446498
  @DF-RHF Final Energy:  -191.88343166531348
    Total Energy =                       -191.8834316653135090
  @DF-RHF Final Energy:  -191.85807228951830
    Total Energy =                       -191.8580722895183044
  @DF-RHF Final Energy:  -191.89678301546303
    Total Energy =                       -191.8967830154631429
  @DF-RHF Final Energy:  -191.90189713344489
    Total Energy =                       -191.9018971334449475
  @DF-RHF Final Energy:  -191.90189697783336
    Total Energy =                       -191.9018969778333599
  @DF-RHF Final Energy:  -191.89976663679326
    Total Energy =                       -191.8997666367931743
  @DF-RHF Final Energy:  -191.88578019856092
    Total Energy =                       -191.8857801985609797
  @DF-RHF Final Energy:  -191.89198021629741
    Total Energy =                       -191.8919802162974975
  @DF-RHF Final Energy:  -191.90129125837063
    Total Energy =                       -191.9012912583706338
  @DF-RHF Final Energy:  -191.90186377293679
    Total Energy =                       -191.9018637729368493
  @DF-RHF Final Energy:  -191.90188993456189
    Total Energy =                       -191.9018899345619218
  @DF-RHF Final Energy:  -191.90189637861272
    Total Energy =                       -191.9018963786127188
  @DF-RHF Final Energy:  -191.90189771298566
    Total Energy =                       -191.9018977129857433
  @DF-RHF Final Energy:  -191.90189822433229
    Total Energy =                       -191.9018982243322284
  @DF-RHF Final Energy:  -191.88124049682875
    Total Energy =                       -191.8812404968286387
  @DF-RHF Final Energy:  -191.80388822755015
    Total Energy =                       -191.8038882275501749
  @DF-RHF Final Energy:  -191.81888423628203
    Total Energy =                       -191.8188842362820594
  @DF-RHF Final Energy:  -191.84870565603711
    Total Energy =                       -191.8487056560371968
  @DF-RHF Final Energy:  -191.88499586706195
    Total Energy =                       -191.8849958670619174
  Basis Set: 6-31G*
  Basis Set:
  @DF-RHF Final Energy:  -191.83984180414893
    Total Energy =                       -191.8398418041489890
  Basis Set: 6-31G*
  Basis Set:
  Basis Set: 6-31G*
  Basis Set:
  @DF-RHF Final Energy:  -191.89562530890387
    Total Energy =                       -191.8956253089039024
  Basis Set: 6-31G*
  Basis Set:
  Basis Set: 6-31G*
  Basis Set:
  @DF-RHF Final Energy:  -191.89961395747673
    Total Energy =                       -191.8996139574766744
  Basis Set: 6-31G*
  Basis Set:
  Charge       = 0
  Multiplicity = 1
  Basis Set: 6-31G*
  Basis Set:

    Orbital Energies (a.u.)
    -----------------------

    Doubly Occupied:

       1A    -20.560515     2A    -11.282197     3A    -11.237036
       4A    -11.222864     5A     -1.369621     6A     -1.060639
       7A     -0.931353     8A     -0.769935     9A     -0.687212
      10A     -0.658077    11A     -0.614831    12A     -0.577289
      13A     -0.537627    14A     -0.488222    15A     -0.448363
      16A     -0.363864

  @DF-RHF Final Energy:  -191.90083356475898

   => Energetics <=

    Nuclear Repulsion Energy =            119.2266756545707551
    One-Electron Energy =                -496.6357289637503527
    Two-Electron Energy =                 185.5082197444207566
    DFT Exchange-Correlation Energy =       0.0000000000000000
    Empirical Dispersion Energy =           0.0000000000000000
    PCM Polarization Energy =               0.0000000000000000
    EFP Energy =                            0.0000000000000000
    Total Energy =                       -191.9008335647588694
    Molecular point group: c1
  Basis Set: 6-31G*
  Basis Set:

  -Total Gradient:
     Atom            X                  Y                   Z
    ------   -----------------  -----------------  -----------------
       1       -0.000050263000    -0.000228930243    -0.000237611439
       2       -0.000296673236     0.000547193155    -0.000385982323
       3        0.013381920208    -0.005004905135    -0.015432079734
       4       -0.038346790342     0.003514294549     0.015039870029
       5       -0.001768364081    -0.000337231743     0.000184097014
       6        0.000660898063     0.000590597619     0.000011918714
       7        0.011888590219     0.000882596569     0.027303149864
       8        0.013647559451    -0.001666580336    -0.000794433145
       9       -0.000057676843     0.002070687351    -0.024744404262
      10        0.000940799563    -0.000367721787    -0.000944524717

    Molecular point group: c1

    Geometry (in Angstrom), charge = 0, multiplicity = 1:

    H           -0.688276413038     0.214397939433    -1.507338843500
    O           -0.789520761867     0.890840984437    -0.851571776492
    C            0.336120494245     0.902031481943    -0.028098687027
    C            0.627163752095    -0.421338316896     0.645005158834
    H            0.170918848381     1.700230328562     0.687174329264
    H            1.234956947166     1.157501064233    -0.586168570803
    C           -0.056318329314    -1.545910740637     0.508604259688
    H            1.652250428998    -0.500144676250     0.976986995759
    H            0.419334467395    -2.508449739998     0.440375892590
    H           -1.058004642949    -1.518464622954     0.102768798465

  Mulliken Charges: (a.u.)
   Center  Symbol    Alpha    Beta     Spin     Total
       1     H     0.28214  0.28214  0.00000  0.43572
       2     O     4.36588  4.36588  0.00000 -0.73176
       3     C     2.99990  2.99990  0.00000  0.00020
       4     C     3.09018  3.09018  0.00000 -0.18036
       5     H     0.40863  0.40863  0.00000  0.18273
       6     H     0.42257  0.42257  0.00000  0.15485
       7     C     3.19701  3.19701  0.00000 -0.39402
       8     H     0.41516  0.41516  0.00000  0.16968
       9     H     0.40826  0.40826  0.00000  0.18347
      10     H     0.41025  0.41025  0.00000  0.17949

   Total alpha = 16.00000, Total beta = 16.00000, Total charge = -0.00000
