  ==> Input File <==

--------------------------------------------------------------------------
set {
	reference rhf
	basis cc-pvtz
}

set_num_threads( 4 )
memory 2 gb

molecule MOL {
0 1

H	 1.372456	 0.347069	 -2.624704
C	 0.642271	 0.162767	 -1.847438
C	 1.322304	 0.099773	 -0.484271
H	 -0.091243	 0.960185	 -1.885525
H	 0.138131	 -0.768439	 -2.079899
C	 0.308557	 -0.162619	 0.622645
H	 1.832949	 1.032380	 -0.278797
H	 2.064957	 -0.688455	 -0.474132
N	 -1.069352	 -0.004081	 0.085342
H	 0.371632	 -1.172932	 0.991288
H	 0.400391	 0.548875	 1.426218
O	 -1.584901	 -0.965470	 -0.377818
O	 -1.548033	 1.079343	 0.130056

	symmetry c1
}
set optking {
	frozen_dihedral = ("
		7 3 6 9
	")
}

ee = optimize('scf')
oeprop('DIPOLE', 'QUADRUPOLE', 'MULLIKEN_CHARGES')
f=open( 'psi4out.xyz', 'w' )
f.write( "13  " )
f.write( str(ee) + "\n" )
f.write( MOL.save_string_xyz() )
f.close()
--------------------------------------------------------------------------

    Molecular point group: c1
  Charge       = 0
  Multiplicity = 1
  Basis Set: CC-PVTZ
  Basis Set:
  @DF-RHF Final Energy:  -321.84949038855552
    Total Energy =                       -321.8494903885555800
    Molecular point group: c1
  Basis Set: CC-PVTZ
  Basis Set:
  Basis Set: CC-PVTZ
  Basis Set:
  @DF-RHF Final Energy:  -321.84849610978904
    Total Energy =                       -321.8484961097892665
  Basis Set: CC-PVTZ
  Basis Set:
  Basis Set: CC-PVTZ
  Basis Set:
  @DF-RHF Final Energy:  -321.85286945779490
    Total Energy =                       -321.8528694577948386
  Basis Set: CC-PVTZ
  Basis Set:
  Basis Set: CC-PVTZ
  Basis Set:
  @DF-RHF Final Energy:  -321.85416549190393
    Total Energy =                       -321.8541654919039274
  Basis Set: CC-PVTZ
  Basis Set:
  @DF-RHF Final Energy:  -321.85424248777343
    Total Energy =                       -321.8542424877732628
  @DF-RHF Final Energy:  -321.85426155126584
    Total Energy =                       -321.8542615512657790
  Basis Set: CC-PVTZ
  Basis Set:
  @DF-RHF Final Energy:  -321.85427626972773
    Total Energy =                       -321.8542762697277908
  Basis Set: CC-PVTZ
  Basis Set:
  Basis Set: CC-PVTZ
  Basis Set:
  @DF-RHF Final Energy:  -321.85428591739822
    Total Energy =                       -321.8542859173978741
  Basis Set: CC-PVTZ
  Basis Set:
  Basis Set: CC-PVTZ
  Basis Set:
  @DF-RHF Final Energy:  -321.85428748591664
    Total Energy =                       -321.8542874859167569
  Basis Set: CC-PVTZ
  Basis Set:
  Charge       = 0
  Multiplicity = 1
  Basis Set: CC-PVTZ
  Basis Set:

    Orbital Energies (a.u.)
    -----------------------

    Doubly Occupied:

       1A    -20.591841     2A    -20.589480     3A    -15.836800
       4A    -11.297385     5A    -11.255189     6A    -11.227451
       7A     -1.636231     8A     -1.420352     9A     -1.128534
      10A     -1.022150    11A     -0.896375    12A     -0.822587
      13A     -0.754341    14A     -0.738477    15A     -0.729185
      16A     -0.666532    17A     -0.606965    18A     -0.589563
      19A     -0.538606    20A     -0.518073    21A     -0.510535
      22A     -0.480735    23A     -0.475583    24A     -0.453650

  @DF-RHF Final Energy:  -321.85428772284945

   => Energetics <=

    Nuclear Repulsion Energy =            254.7783834763391724
    One-Electron Energy =                -943.6921006355198642
    Two-Electron Energy =                 367.0594294363311860
    DFT Exchange-Correlation Energy =       0.0000000000000000
    Empirical Dispersion Energy =           0.0000000000000000
    PCM Polarization Energy =               0.0000000000000000
    EFP Energy =                            0.0000000000000000
    Total Energy =                       -321.8542877228495058
    Molecular point group: c1
  Basis Set: CC-PVTZ
  Basis Set:

  -Total Gradient:
     Atom            X                  Y                   Z
    ------   -----------------  -----------------  -----------------
       1        0.000001159695     0.000001709648    -0.000001695774
       2       -0.000006421225    -0.000007014716    -0.000021493446
       3       -0.003735785990     0.001573227009    -0.002799895543
       4        0.000006427120    -0.000003798719    -0.000001994128
       5        0.000002303553     0.000004644949    -0.000005538343
       6        0.000817643637     0.003669106567     0.001658140605
       7        0.003020157209    -0.002196373268     0.002051818923
       8        0.000002718814     0.000000986490    -0.000004815047
       9       -0.000136631859    -0.003023531919    -0.000879833622
      10       -0.000005452470     0.000003198593    -0.000002547721
      11       -0.000001239219     0.000000200249     0.000000639182
      12        0.000014076316    -0.000002303974     0.000004314665
      13        0.000021044421    -0.000020050911     0.000002900251

  **** Optimization is complete! (in 10 steps) ****
    Final optimized geometry and variables:
    Molecular point group: c1

    Geometry (in Angstrom), charge = 0, multiplicity = 1:

    H            1.903078970414     0.314586896117    -2.373953891634
    C            1.100163952101     0.133510199927    -1.671061199434
    C            1.670718655224     0.091189502354    -0.256402725909
    H            0.372531361072     0.925799332108    -1.786256469654
    H            0.627082234035    -0.802906627606    -1.937044475151
    C            0.676061387744    -0.211378133057     0.886521768140
    H            2.187077908015     1.014015450964    -0.028450324262
    H            2.427793217854    -0.682384228793    -0.210326215596
    N           -0.739885347760    -0.047493915298     0.459867337194
    H            0.748431419634    -1.234017811955     1.212199578850
    H            0.808650206031     0.459033435279     1.717866181356
    O           -1.326308410542    -1.020454717136     0.124177482517
    O           -1.183758965478     1.052409967089     0.468783915725

  Mulliken Charges: (a.u.)
   Center  Symbol    Alpha    Beta     Spin     Total
       1     H     0.44580  0.44580  0.00000  0.10841
       2     C     3.15291  3.15291  0.00000 -0.30582
       3     C     3.09361  3.09361  0.00000 -0.18722
       4     H     0.44248  0.44248  0.00000  0.11504
       5     H     0.44335  0.44335  0.00000  0.11330
       6     C     3.04041  3.04041  0.00000 -0.08081
       7     H     0.44374  0.44374  0.00000  0.11251
       8     H     0.44725  0.44725  0.00000  0.10549
       9     N     3.27554  3.27554  0.00000  0.44892
      10     H     0.43433  0.43433  0.00000  0.13135
      11     H     0.43164  0.43164  0.00000  0.13672
      12     O     4.17399  4.17399  0.00000 -0.34797
      13     O     4.17496  4.17496  0.00000 -0.34992

   Total alpha = 24.00000, Total beta = 24.00000, Total charge =  0.00000
