  ==> Input File <==

--------------------------------------------------------------------------
set {
	reference rhf
	basis cc-pvtz
}

set_num_threads( 4 )
memory 2 gb

molecule MOL {
0 1

H	 -2.614655	 -1.028670	 -0.115093
O	 -2.313989	 -0.142475	 -0.025864
C	 -0.943808	 -0.065018	 -0.330000
H	 -0.812293	 -0.225641	 -1.398673
C	 -0.231030	 -1.182113	 0.407592
C	 -0.353797	 1.300461	 0.050970
H	 -0.312800	 -0.992012	 1.473041
H	 -0.738841	 -2.119564	 0.220514
C	 1.246176	 -1.268044	 -0.015480
H	 -0.539537	 2.008579	 -0.751815
H	 -0.889989	 1.662858	 0.920677
C	 1.153605	 1.231851	 0.356834
H	 1.823096	 -1.684665	 0.802361
H	 1.352335	 -1.958223	 -0.845114
C	 1.826409	 0.100723	 -0.416008
H	 1.622968	 2.181508	 0.128734
H	 1.301983	 1.066493	 1.419367
H	 2.897299	 0.112407	 -0.249665
H	 1.683458	 0.265621	 -1.480024

	symmetry c1
}
set optking {
	frozen_dihedral = ("
		1 2 3 4
	")
}

ee = optimize('scf')
oeprop('DIPOLE', 'QUADRUPOLE', 'MULLIKEN_CHARGES')
f=open( 'psi4out.xyz', 'w' )
f.write( "19  " )
f.write( str(ee) + "\n" )
f.write( MOL.save_string_xyz() )
f.close()
--------------------------------------------------------------------------

    Molecular point group: c1
  Charge       = 0
  Multiplicity = 1
  Basis Set: CC-PVTZ
  Basis Set:
  @DF-RHF Final Energy:  -309.16162345935084
    Total Energy =                       -309.1616234593509489
    Molecular point group: c1
  Basis Set: CC-PVTZ
  Basis Set:
  Basis Set: CC-PVTZ
  Basis Set:
  @DF-RHF Final Energy:  -309.16334752176812
    Total Energy =                       -309.1633475217681166
  Basis Set: CC-PVTZ
  Basis Set:
  Basis Set: CC-PVTZ
  Basis Set:
  @DF-RHF Final Energy:  -309.16362652716339
    Total Energy =                       -309.1636265271631032
  Basis Set: CC-PVTZ
  Basis Set:
  Basis Set: CC-PVTZ
  Basis Set:
  @DF-RHF Final Energy:  -309.16363284203919
    Total Energy =                       -309.1636328420389646
  Basis Set: CC-PVTZ
  Basis Set:
  Charge       = 0
  Multiplicity = 1
  Basis Set: CC-PVTZ
  Basis Set:

    Orbital Energies (a.u.)
    -----------------------

    Doubly Occupied:

       1A    -20.543196     2A    -11.267344     3A    -11.216889
       4A    -11.213993     5A    -11.213677     6A    -11.212630
       7A    -11.206896     8A     -1.363360     9A     -1.110621
      10A     -1.003933    11A     -0.989648    12A     -0.850206
      13A     -0.831741    14A     -0.735513    15A     -0.704125
      16A     -0.658933    17A     -0.617968    18A     -0.613155
      19A     -0.571784    20A     -0.547427    21A     -0.530441
      22A     -0.521070    23A     -0.499339    24A     -0.487292
      25A     -0.468385    26A     -0.449453    27A     -0.428335
      28A     -0.414538

  @DF-RHF Final Energy:  -309.16363369276485

   => Energetics <=

    Nuclear Repulsion Energy =            332.0611941663536300
    One-Electron Energy =               -1077.9058749656533109
    Two-Electron Energy =                 436.6810471065350612
    DFT Exchange-Correlation Energy =       0.0000000000000000
    Empirical Dispersion Energy =           0.0000000000000000
    PCM Polarization Energy =               0.0000000000000000
    EFP Energy =                            0.0000000000000000
    Total Energy =                       -309.1636336927646198
    Molecular point group: c1
  Basis Set: CC-PVTZ
  Basis Set:

  -Total Gradient:
     Atom            X                  Y                   Z
    ------   -----------------  -----------------  -----------------
       1        0.000266632877    -0.000259278336     0.001222043895
       2       -0.000309128201     0.000565301233    -0.001557227213
       3        0.000088136147    -0.001394013337     0.000550597748
       4       -0.000018821801     0.001084440496    -0.000136410466
       5       -0.000055900284     0.000025840575    -0.000055531427
       6        0.000013876208     0.000019689867    -0.000014323598
       7        0.000002743258     0.000002991788    -0.000011773852
       8        0.000002542582     0.000001800272    -0.000002146699
       9        0.000039657291     0.000015825269     0.000000046466
      10        0.000001145148     0.000008327984    -0.000003752244
      11       -0.000012493186    -0.000031145598    -0.000006358926
      12        0.000012345594     0.000015161696    -0.000009960689
      13        0.000023242942    -0.000007547627     0.000017100238
      14       -0.000001006806     0.000003130341     0.000014156682
      15       -0.000034298848    -0.000031568214    -0.000001880426
      16       -0.000009299426     0.000002118667     0.000001345457
      17       -0.000007484159    -0.000002437845     0.000001989330
      18       -0.000000707844    -0.000029873720    -0.000005121481
      19       -0.000001181491     0.000011236486    -0.000002792795

  **** Optimization is complete! (in 5 steps) ****
    Final optimized geometry and variables:
    Molecular point group: c1

    Geometry (in Angstrom), charge = 0, multiplicity = 1:

    H           -2.688894336971    -0.907059029635    -0.132106738501
    O           -2.319187388090    -0.049031364414    -0.028973855179
    C           -0.945878500637    -0.078532170471    -0.326911691390
    H           -0.822897111784    -0.234611459987    -1.397400455899
    C           -0.212318879113    -1.187991502334     0.410390895980
    C           -0.368951996184     1.291810385965     0.039429182466
    H           -0.287811930467    -0.997773603997     1.476286373726
    H           -0.699944252580    -2.142058667393     0.231729756747
    C            1.262261111687    -1.261757538954    -0.024553997828
    H           -0.558831070973     1.982983677094    -0.773791054200
    H           -0.917132783236     1.661534316339     0.897064509268
    C            1.135681428271     1.235058182811     0.355392233043
    H            1.848012951162    -1.679641932724     0.786320306070
    H            1.366864726298    -1.945721228516    -0.859508757186
    C            1.826060863192     0.115775077694    -0.419176808019
    H            1.595870647694     2.190665748143     0.133924835132
    H            1.281426292438     1.066966919913     1.418184446856
    H            2.896234487898     0.138802653707    -0.249729172783
    H            1.683310335334     0.282382023534    -1.482754797651

  Mulliken Charges: (a.u.)
   Center  Symbol    Alpha    Beta     Spin     Total
       1     H     0.39585  0.39585  0.00000  0.20829
       2     O     4.20193  4.20193  0.00000 -0.40387
       3     C     2.92681  2.92681  0.00000  0.14639
       4     H     0.46247  0.46247  0.00000  0.07507
       5     C     3.10434  3.10434  0.00000 -0.20867
       6     C     3.11138  3.11138  0.00000 -0.22275
       7     H     0.45187  0.45187  0.00000  0.09627
       8     H     0.45109  0.45109  0.00000  0.09782
       9     C     3.11424  3.11424  0.00000 -0.22847
      10     H     0.44695  0.44695  0.00000  0.10610
      11     H     0.44367  0.44367  0.00000  0.11266
      12     C     3.10094  3.10094  0.00000 -0.20187
      13     H     0.44692  0.44692  0.00000  0.10616
      14     H     0.44767  0.44767  0.00000  0.10466
      15     C     3.10181  3.10181  0.00000 -0.20362
      16     H     0.44178  0.44178  0.00000  0.11645
      17     H     0.45388  0.45388  0.00000  0.09224
      18     H     0.44287  0.44287  0.00000  0.11427
      19     H     0.45355  0.45355  0.00000  0.09289

   Total alpha = 28.00000, Total beta = 28.00000, Total charge = -0.00000
