  ==> Input File <==

--------------------------------------------------------------------------
set {
	reference rhf
	basis 6-31G*
}

set_num_threads( 4 )
memory 2 gb

molecule MOL {
0 1

H	 -2.798360	 -0.862255	 -0.071053
N	 -1.863561	 -0.715187	 0.256814
C	 -1.344686	 0.554728	 -0.219830
H	 -1.300452	 -1.461917	 -0.101532
C	 -1.561016	 0.673596	 -1.713887
H	 -1.796219	 1.422446	 0.263063
H	 -0.277839	 0.590064	 -0.021415
O	 -2.938413	 0.706462	 -1.956345
H	 -1.092727	 1.582476	 -2.091089
H	 -1.109457	 -0.178171	 -2.217695
C	 -3.283794	 0.728998	 -3.304593
H	 -4.363253	 0.754593	 -3.366333
H	 -2.882436	 1.609275	 -3.803599
H	 -2.921563	 -0.156562	 -3.822647

	symmetry c1
}
set optking {
	frozen_dihedral = ("
		6 3 2 4
	")
}

ee = optimize('scf')
oeprop('DIPOLE', 'QUADRUPOLE', 'MULLIKEN_CHARGES')
f=open( 'psi4out.xyz', 'w' )
f.write( "14  " )
f.write( str(ee) + "\n" )
f.write( MOL.save_string_xyz() )
f.close()
--------------------------------------------------------------------------

    Molecular point group: c1
  Charge       = 0
  Multiplicity = 1
  Basis Set: 6-31G*
  Basis Set:
  @DF-RHF Final Energy:  -248.12224349883076
    Total Energy =                       -248.1222434988306418
    Molecular point group: c1
  Basis Set: 6-31G*
  Basis Set:
  Basis Set: 6-31G*
  Basis Set:
  @DF-RHF Final Energy:  -248.12445929214570
    Total Energy =                       -248.1244592921457865
  Basis Set: 6-31G*
  Basis Set:
  Basis Set: 6-31G*
  Basis Set:
  @DF-RHF Final Energy:  -248.12475894124105
    Total Energy =                       -248.1247589412409411
  Basis Set: 6-31G*
  Basis Set:
  Basis Set: 6-31G*
  Basis Set:
  @DF-RHF Final Energy:  -248.12476437439184
    Total Energy =                       -248.1247643743919298
  Basis Set: 6-31G*
  Basis Set:
  Charge       = 0
  Multiplicity = 1
  Basis Set: 6-31G*
  Basis Set:

    Orbital Energies (a.u.)
    -----------------------

    Doubly Occupied:

       1A    -20.561570     2A    -15.528791     3A    -11.270133
       4A    -11.269306     5A    -11.241257     6A     -1.385753
       7A     -1.174341     8A     -1.000174     9A     -0.910134
      10A     -0.823225    11A     -0.685520    12A     -0.672836
      13A     -0.645997    14A     -0.634396    15A     -0.584914
      16A     -0.552021    17A     -0.520229    18A     -0.506313
      19A     -0.480554    20A     -0.421777    21A     -0.378674

  @DF-RHF Final Energy:  -248.12476538558704

   => Energetics <=

    Nuclear Repulsion Energy =            194.2824329683442954
    One-Electron Energy =                -722.3185631627055727
    Two-Electron Energy =                 279.9113648087742376
    DFT Exchange-Correlation Energy =       0.0000000000000000
    Empirical Dispersion Energy =           0.0000000000000000
    PCM Polarization Energy =               0.0000000000000000
    EFP Energy =                            0.0000000000000000
    Total Energy =                       -248.1247653855870112
    Molecular point group: c1
  Basis Set: 6-31G*
  Basis Set:

  -Total Gradient:
     Atom            X                  Y                   Z
    ------   -----------------  -----------------  -----------------
       1       -0.000002737356    -0.000023947043     0.000005062803
       2       -0.000772181776    -0.000160234688    -0.000968437769
       3       -0.000784978547    -0.000028207075    -0.000680760304
       4        0.000745392989     0.000152135860     0.000898130591
       5        0.000049555857     0.000045354252     0.000086470888
       6        0.000795885745     0.000032371826     0.000679351742
       7        0.000008414211    -0.000002306524    -0.000018661786
       8        0.000016659972    -0.000030503294    -0.000002579698
       9        0.000001790045     0.000014998649    -0.000017683375
      10       -0.000065189199     0.000014101044     0.000022629767
      11        0.000011343767    -0.000013903508    -0.000008667900
      12       -0.000001432706    -0.000001695476     0.000001399274
      13        0.000001864424     0.000000190440     0.000008996869
      14       -0.000004387424     0.000001645535    -0.000005251099

  **** Optimization is complete! (in 5 steps) ****
    Final optimized geometry and variables:
    Molecular point group: c1

    Geometry (in Angstrom), charge = 0, multiplicity = 1:

    H           -0.602512095728    -1.186009506923     1.485552275536
    N            0.354675043558    -1.060880604321     1.752073401641
    C            0.875163317298     0.159755811498     1.166953156793
    H            0.865363020641    -1.859000681921     1.426465146508
    C            0.649173094014     0.307490493077    -0.329660737277
    H            0.419678879741     1.003099163730     1.674619153654
    H            1.941200115352     0.212099564235     1.367076745981
    O           -0.726485574415     0.284347447376    -0.572149664531
    H            1.081120478452     1.242903326198    -0.686710012878
    H            1.136983110803    -0.506900142301    -0.867969619985
    C           -1.078014590409     0.381109301822    -1.915708922236
    H           -2.157384950319     0.352114672028    -1.975082980737
    H           -0.726340777643     1.313720392674    -2.352506388035
    H           -0.670511263661    -0.445805282345    -2.494414935821

  Mulliken Charges: (a.u.)
   Center  Symbol    Alpha    Beta     Spin     Total
       1     H     0.32378  0.32378  0.00000  0.35243
       2     N     3.91976  3.91976  0.00000 -0.83953
       3     C     3.07116  3.07116  0.00000 -0.14232
       4     H     0.33660  0.33660  0.00000  0.32679
       5     C     2.99491  2.99491  0.00000  0.01018
       6     H     0.41137  0.41137  0.00000  0.17727
       7     H     0.41992  0.41992  0.00000  0.16015
       8     O     4.30691  4.30691  0.00000 -0.61381
       9     H     0.43119  0.43119  0.00000  0.13762
      10     H     0.43584  0.43584  0.00000  0.12832
      11     C     3.07911  3.07911  0.00000 -0.15822
      12     H     0.41132  0.41132  0.00000  0.17736
      13     H     0.42858  0.42858  0.00000  0.14283
      14     H     0.42953  0.42953  0.00000  0.14093

   Total alpha = 21.00000, Total beta = 21.00000, Total charge = -0.00000
