                              Psi4 1.0.54 Driver

  ==> Input File <==

--------------------------------------------------------------------------
set {
	reference rhf
	basis cc-pvtz
}

set_num_threads( 4 )
memory 2 gb

molecule MOL {
0 1

H	 -2.644180	 -0.653737	 1.272255
C	 -2.092774	 -0.380414	 0.391915
O	 -0.808934	 -0.154049	 0.752536
F	 -2.163230	 -1.351640	 -0.507133
F	 -2.627232	 0.691260	 -0.169301
C	 0.085006	 0.250800	 -0.215074
C	 1.457222	 -0.294697	 0.173171
Cl	 0.144253	 2.019380	 -0.334035
H	 -0.162075	 -0.128698	 -1.191075
F	 2.353906	 0.044340	 -0.717916
F	 1.400691	 -1.604909	 0.211412
F	 1.846752	 0.132424	 1.342823

	symmetry c1
}
set optking {
	frozen_dihedral = ("
		9 6 3 2
	")
}

ee,wfn = optimize('scf', return_wfn=True)
oeprop( wfn, 'DIPOLE', 'QUADRUPOLE', 'MULLIKEN_CHARGES')
f=open( 'psi4out.xyz', 'w' )
f.write( "12  " )
f.write( str(ee) + "\n" )
f.write( MOL.save_string_xyz() )
f.close()
--------------------------------------------------------------------------

    Molecular point group: c1
  Charge       = 0
  Multiplicity = 1
  Basis Set: CC-PVTZ
  Basis Set:
  @DF-RHF Final Energy: -1146.61981012978367
    Total Energy =                      -1146.6198101297829908
    Molecular point group: c1
  Basis Set: CC-PVTZ
  Basis Set:
  Basis Set: CC-PVTZ
  Basis Set:
  @DF-RHF Final Energy: -1146.61999968334158
    Total Energy =                      -1146.6199996833420300
  Basis Set: CC-PVTZ
  Basis Set:
  Basis Set: CC-PVTZ
  Basis Set:
  @DF-RHF Final Energy: -1146.62004282933822
    Total Energy =                      -1146.6200428293382174
  Basis Set: CC-PVTZ
  Basis Set:
  Basis Set: CC-PVTZ
  Basis Set:
  @DF-RHF Final Energy: -1146.62004341765578
    Total Energy =                      -1146.6200434176564613
  Basis Set: CC-PVTZ
  Basis Set:
  Basis Set: CC-PVTZ
  Basis Set:
  @DF-RHF Final Energy: -1146.62005137617280
    Total Energy =                      -1146.6200513761732509
  Basis Set: CC-PVTZ
  Basis Set:
  Basis Set: CC-PVTZ
  Basis Set:
  @DF-RHF Final Energy: -1146.62005298798022
    Total Energy =                      -1146.6200529879806709
  Basis Set: CC-PVTZ
  Basis Set:
  Charge       = 0
  Multiplicity = 1
  Basis Set: CC-PVTZ
  Basis Set:

    Orbital Energies (a.u.)
    -----------------------

    Doubly Occupied:

       1A   -104.856058     2A    -26.354813     3A    -26.353719
       4A    -26.353108     5A    -26.343415     6A    -26.342323
       7A    -20.641708     8A    -11.520223     9A    -11.483868
      10A    -11.400889    11A    -10.581616    12A     -8.048414
      13A     -8.046423    14A     -8.046349    15A     -1.767857
      16A     -1.724579    17A     -1.662816    18A     -1.661129
      19A     -1.644707    20A     -1.487456    21A     -1.177857
      22A     -1.054832    23A     -0.990235    24A     -0.924217
      25A     -0.864627    26A     -0.858447    27A     -0.852358
      28A     -0.827175    29A     -0.817707    30A     -0.794338
      31A     -0.734192    32A     -0.733042    33A     -0.713994
      34A     -0.706865    35A     -0.685371    36A     -0.681254
      37A     -0.665390    38A     -0.664015    39A     -0.649234
      40A     -0.639843    41A     -0.598628    42A     -0.579592
      43A     -0.525947    44A     -0.477693    45A     -0.469513

  @DF-RHF Final Energy: -1146.62005303237629

   => Energetics <=

    Nuclear Repulsion Energy =            737.6688886979792414
    One-Electron Energy =               -3058.5622087021583866
    Two-Electron Energy =                1174.2732669718036504
    DFT Exchange-Correlation Energy =       0.0000000000000000
    Empirical Dispersion Energy =           0.0000000000000000
    PCM Polarization Energy =               0.0000000000000000
    EFP Energy =                            0.0000000000000000
    Total Energy =                      -1146.6200530323756084
    Molecular point group: c1
  Basis Set: CC-PVTZ
  Basis Set:

  -Total Gradient:
     Atom            X                  Y                   Z
    ------   -----------------  -----------------  -----------------
       1       -0.000001041788    -0.000001780800    -0.000008963228
       2       -0.000328432304     0.001543218430     0.000249797753
       3        0.000858761798    -0.002683974452    -0.000311689239
       4       -0.000026533204    -0.000044073154    -0.000003069531
       5       -0.000002108010     0.000003837372     0.000028481839
       6       -0.001564933855     0.002711055510    -0.000296199333
       7       -0.000009473213     0.000035637887    -0.000036974284
       8       -0.000011975578    -0.000003663374    -0.000011920067
       9        0.001060800571    -0.001515267927     0.000354923415
      10        0.000003209935    -0.000027518669    -0.000007530358
      11        0.000028771031     0.000053909096     0.000034634077
      12       -0.000007045395    -0.000071379825     0.000008508934

  **** Optimization is complete! (in 7 steps) ****
    Final optimized geometry and variables:
    Molecular point group: c1

    Geometry (in Angstrom), charge = 0, multiplicity = 1:

    H           -2.611931485713    -0.830239548216     1.224387590380
    C           -2.080026000028    -0.521009047386     0.343753184615
    O           -0.798584626387    -0.268140736064     0.697831423596
    F           -2.129715685838    -1.477352754581    -0.573840224918
    F           -2.656141542380     0.541645949281    -0.187748041286
    C            0.096448459647     0.145890549516    -0.263568739356
    C            1.458890646375    -0.415151947468     0.139602677577
    CL           0.183385009796     1.913184293659    -0.385997461501
    H           -0.138989730089    -0.244021846693    -1.238857686579
    F            2.369103918182    -0.080704985633    -0.739381889929
    F            1.389897447107    -1.725134597869     0.170067827424
    F            1.838988300196     0.001997277406     1.315810122386

  Mulliken Charges: (a.u.)
   Center  Symbol    Alpha    Beta     Spin     Total
       1     H     0.45296  0.45296  0.00000  0.09407
       2     C     2.73996  2.73996  0.00000  0.52008
       3     O     4.15496  4.15496  0.00000 -0.30993
       4     F     4.61869  4.61869  0.00000 -0.23737
       5     F     4.61250  4.61250  0.00000 -0.22500
       6     C     2.94066  2.94066  0.00000  0.11869
       7     C     2.66932  2.66932  0.00000  0.66137
       8    CL     8.57299  8.57299  0.00000 -0.14598
       9     H     0.43024  0.43024  0.00000  0.13951
      10     F     4.60224  4.60224  0.00000 -0.20449
      11     F     4.60501  4.60501  0.00000 -0.21002
      12     F     4.60047  4.60047  0.00000 -0.20094

   Total alpha = 45.00000, Total beta = 45.00000, Total charge =  0.00000

*** Psi4 exiting successfully. Buy a developer a beer!
