  ==> Input File <==

--------------------------------------------------------------------------
set {
	reference rhf
	basis cc-pvtz
}

set_num_threads( 4 )
memory 2 gb

molecule MOL {
0 1

H	 2.685705	 -0.240584	 0.813346
N	 1.710434	 -0.036657	 0.826390
C	 0.946212	 -1.212819	 1.190325
C	 1.283016	 0.502775	 -0.448824
H	 1.278779	 -1.565554	 2.158999
H	 1.073416	 -2.027275	 0.474714
C	 -0.527130	 -0.854445	 1.260382
H	 1.859639	 1.393199	 -0.667915
H	 1.431499	 -0.203289	 -1.267998
C	 -0.190767	 0.858901	 -0.376619
H	 -0.683301	 -0.151883	 2.084159
H	 -1.106036	 -1.745047	 1.474426
N	 -0.976577	 -0.298712	 -0.000000
H	 -0.526462	 1.207155	 -1.346231
H	 -0.323766	 1.679498	 0.334382
C	 -2.391156	 -0.021003	 -0.000000
H	 -2.853954	 -0.458728	 -0.875714
H	 -2.853954	 -0.458728	 0.875714
H	 -2.614037	 1.049773	 -0.000000

	symmetry c1
}
set optking {
	frozen_dihedral = ("
		7 13 16 19
	")
}

ee = optimize('scf')
oeprop('DIPOLE', 'QUADRUPOLE', 'MULLIKEN_CHARGES')
f=open( 'psi4out.xyz', 'w' )
f.write( "19  " )
f.write( str(ee) + "\n" )
f.write( MOL.save_string_xyz() )
f.close()
--------------------------------------------------------------------------

    Molecular point group: c1
  Charge       = 0
  Multiplicity = 1
  Basis Set: CC-PVTZ
  Basis Set:
  @DF-RHF Final Energy:  -305.30313682295025
    Total Energy =                       -305.3031368229501936
    Molecular point group: c1
  Basis Set: CC-PVTZ
  Basis Set:
  Basis Set: CC-PVTZ
  Basis Set:
  @DF-RHF Final Energy:  -305.30371598325183
    Total Energy =                       -305.3037159832515499
  Basis Set: CC-PVTZ
  Basis Set:
  Basis Set: CC-PVTZ
  Basis Set:
  @DF-RHF Final Energy:  -305.30384097869279
    Total Energy =                       -305.3038409786924490
  Basis Set: CC-PVTZ
  Basis Set:
  Basis Set: CC-PVTZ
  Basis Set:
  @DF-RHF Final Energy:  -305.30384948638590
    Total Energy =                       -305.3038494863859000
  Basis Set: CC-PVTZ
  Basis Set:
  Charge       = 0
  Multiplicity = 1
  Basis Set: CC-PVTZ
  Basis Set:

    Orbital Energies (a.u.)
    -----------------------

    Doubly Occupied:

       1A    -15.532410     2A    -15.530763     3A    -11.236628
       4A    -11.236565     5A    -11.235776     6A    -11.235726
       7A    -11.233034     8A     -1.246412     9A     -1.185270
      10A     -1.023895    11A     -0.965180    12A     -0.861687
      13A     -0.858871    14A     -0.756045    15A     -0.691906
      16A     -0.632753    17A     -0.625247    18A     -0.606622
      19A     -0.604732    20A     -0.582278    21A     -0.544860
      22A     -0.533066    23A     -0.513279    24A     -0.488656
      25A     -0.468629    26A     -0.457654    27A     -0.365571
      28A     -0.339349

  @DF-RHF Final Energy:  -305.30385006922711

   => Energetics <=

    Nuclear Repulsion Energy =            339.7442748371181551
    One-Electron Energy =               -1086.9105257646574501
    Two-Electron Energy =                 441.8624008583121849
    DFT Exchange-Correlation Energy =       0.0000000000000000
    Empirical Dispersion Energy =           0.0000000000000000
    PCM Polarization Energy =               0.0000000000000000
    EFP Energy =                            0.0000000000000000
    Total Energy =                       -305.3038500692271100
    Molecular point group: c1
  Basis Set: CC-PVTZ
  Basis Set:

  -Total Gradient:
     Atom            X                  Y                   Z
    ------   -----------------  -----------------  -----------------
       1        0.000010513078    -0.000000383161     0.000005292271
       2       -0.000000137790     0.000002204955     0.000007774563
       3        0.000002437088    -0.000004848186     0.000013471527
       4       -0.000004260618     0.000003178771    -0.000009574862
       5        0.000009436559     0.000000177862    -0.000001656463
       6       -0.000008002523    -0.000001598103     0.000001604643
       7       -0.000407940275    -0.002454820447    -0.000996508926
       8        0.000000651283    -0.000003355790     0.000002979132
       9       -0.000002607127     0.000002377786    -0.000006517633
      10       -0.000026460999     0.000013872224    -0.000021232896
      11        0.000005262534    -0.000004349506    -0.000004140421
      12        0.000004006199    -0.000002778512     0.000011028715
      13        0.000643977722     0.003469196832     0.000428571084
      14        0.000003813713     0.000012026716    -0.000005077949
      15       -0.000000285348    -0.000004107111     0.000000151181
      16       -0.000429162192    -0.001114081052     0.004063095396
      17        0.000004834014     0.000003879967     0.000006819702
      18        0.000015656698    -0.000008413869    -0.000009851104
      19        0.000178267978     0.000091820625    -0.003486227959

  **** Optimization is complete! (in 5 steps) ****
    Final optimized geometry and variables:
    Molecular point group: c1

    Geometry (in Angstrom), charge = 0, multiplicity = 1:

    H            2.720361400202    -0.102983645606     0.439082232266
    N            1.746085759391     0.105351856045     0.460002681203
    C            0.980347290648    -1.066680657727     0.833643627798
    C            1.310122564900     0.642297116521    -0.813204708236
    H            1.328309465622    -1.426108904311     1.794554851345
    H            1.089192782287    -1.878502600240     0.111687051784
    C           -0.489923893369    -0.700564358602     0.931945680081
    H            1.893874868037     1.525073845788    -1.044610931939
    H            1.441567533313    -0.070753566624    -1.629464642897
    C           -0.158867249409     1.014741804052    -0.725617331805
    H           -0.627291547225    -0.016248777561     1.774800241632
    H           -1.067085019139    -1.593921190632     1.136328873672
    N           -0.949513677653    -0.122987802237    -0.312791441851
    H           -0.504226015427     1.345442369165    -1.698444690791
    H           -0.272469758941     1.853880530037    -0.032754988153
    C           -2.378073183348     0.116294081076    -0.370853372166
    H           -2.798844384380    -0.284272254321    -1.288004638096
    H           -2.886294079681    -0.356891573280     0.459073834945
    H           -2.616823957524     1.177837183066    -0.352043156834

  Mulliken Charges: (a.u.)
   Center  Symbol    Alpha    Beta     Spin     Total
       1     H     0.43992  0.43992  0.00000  0.12015
       2     N     3.64275  3.64275  0.00000 -0.28550
       3     C     3.04183  3.04183  0.00000 -0.08366
       4     C     3.04189  3.04189  0.00000 -0.08379
       5     H     0.45272  0.45272  0.00000  0.09457
       6     H     0.46630  0.46630  0.00000  0.06741
       7     C     3.03340  3.03340  0.00000 -0.06681
       8     H     0.45271  0.45271  0.00000  0.09457
       9     H     0.46620  0.46620  0.00000  0.06761
      10     C     3.03403  3.03403  0.00000 -0.06807
      11     H     0.46953  0.46953  0.00000  0.06093
      12     H     0.45421  0.45421  0.00000  0.09158
      13     N     3.61616  3.61616  0.00000 -0.23232
      14     H     0.45402  0.45402  0.00000  0.09197
      15     H     0.46899  0.46899  0.00000  0.06203
      16     C     3.09270  3.09270  0.00000 -0.18541
      17     H     0.45088  0.45088  0.00000  0.09824
      18     H     0.45738  0.45738  0.00000  0.08524
      19     H     0.46438  0.46438  0.00000  0.07124

   Total alpha = 28.00000, Total beta = 28.00000, Total charge = -0.00000
