                              Psi4 1.0.54 Driver

  ==> Input File <==

--------------------------------------------------------------------------
set {
	reference rhf
	basis cc-pvtz
}

set_num_threads( 4 )
memory 2 gb

molecule MOL {
0 1

O	 1.847685	 1.294399	 -0.000190
C	 1.704209	 0.119472	 -0.000093
C	 0.380337	 -0.600947	 -0.000234
O	 2.715427	 -0.733672	 0.000025
C	 -0.824290	 0.329213	 -0.000115
H	 0.371455	 -1.255476	 -0.865660
H	 0.371410	 -1.255787	 0.864952
C	 -0.563521	 1.616899	 -0.775927
H	 -1.094254	 0.564080	 1.023228
H	 -1.676517	 -0.189838	 -0.423891
C	 -1.760959	 2.562668	 -0.787439
H	 0.293827	 2.131301	 -0.347449
H	 -0.290199	 1.374177	 -1.800436
C	 -1.500230	 3.849869	 -1.562389
H	 -2.034220	 2.806529	 0.235311
H	 -2.617431	 2.050465	 -1.216697
H	 -0.669929	 4.402734	 -1.135570
H	 -2.369027	 4.497778	 -1.550556
H	 -1.258140	 3.640722	 -2.599155
C	 4.020999	 -0.192556	 0.000019
H	 4.182809	 0.412891	 -0.879449
H	 4.692590	 -1.035653	 0.000152
H	 4.182726	 0.413087	 0.879368

	symmetry c1
}
set optking {
	frozen_dihedral = ("
		9 5 3 6
	")
}

ee,wfn = optimize('scf', return_wfn=True)
oeprop( wfn, 'DIPOLE', 'QUADRUPOLE', 'MULLIKEN_CHARGES')
f=open( 'psi4out.xyz', 'w' )
f.write( "23  " )
f.write( str(ee) + "\n" )
f.write( MOL.save_string_xyz() )
f.close()
--------------------------------------------------------------------------

    Molecular point group: c1
  Charge       = 0
  Multiplicity = 1
  Basis Set: CC-PVTZ
  Basis Set:
  @DF-RHF Final Energy:  -423.10785941881210
    Total Energy =                       -423.1078594188122679
    Molecular point group: c1
  Basis Set: CC-PVTZ
  Basis Set:
  Basis Set: CC-PVTZ
  Basis Set:
  @DF-RHF Final Energy:  -423.12081319901642
    Total Energy =                       -423.1208131990163110
  Basis Set: CC-PVTZ
  Basis Set:
  Basis Set: CC-PVTZ
  Basis Set:
  @DF-RHF Final Energy:  -423.12349338042202
    Total Energy =                       -423.1234933804215643
  Basis Set: CC-PVTZ
  Basis Set:
  Basis Set: CC-PVTZ
  Basis Set:
  @DF-RHF Final Energy:  -423.11890167962753
    Total Energy =                       -423.1189016796276974
  Basis Set: CC-PVTZ
  Basis Set:
  @DF-RHF Final Energy:  -423.12487089771179
    Total Energy =                       -423.1248708977120714
  @DF-RHF Final Energy:  -423.12532051920294
    Total Energy =                       -423.1253205192027735
  @DF-RHF Final Energy:  -423.12538146700098
    Total Energy =                       -423.1253814670011479
  @DF-RHF Final Energy:  -423.12594719166123
    Total Energy =                       -423.1259471916614530
  @DF-RHF Final Energy:  -423.12614920409163
    Total Energy =                       -423.1261492040915755
  Basis Set: CC-PVTZ
  Basis Set:
  @DF-RHF Final Energy:  -423.12619036354562
    Total Energy =                       -423.1261903635453336
  Basis Set: CC-PVTZ
  Basis Set:
  Basis Set: CC-PVTZ
  Basis Set:
  @DF-RHF Final Energy:  -423.12620397200436
    Total Energy =                       -423.1262039720047596
  Basis Set: CC-PVTZ
  Basis Set:
  Basis Set: CC-PVTZ
  Basis Set:
  @DF-RHF Final Energy:  -423.12620737421730
    Total Energy =                       -423.1262073742175289
  Basis Set: CC-PVTZ
  Basis Set:
  Charge       = 0
  Multiplicity = 1
  Basis Set: CC-PVTZ
  Basis Set:

    Orbital Energies (a.u.)
    -----------------------

    Doubly Occupied:

       1A    -20.598337     2A    -20.532035     3A    -11.365381
       4A    -11.278823     5A    -11.233783     6A    -11.221829
       7A    -11.212202     8A    -11.209734     9A    -11.204799
      10A     -1.473035    11A     -1.365376    12A     -1.091432
      13A     -1.042373    14A     -0.986751    15A     -0.933123
      16A     -0.845741    17A     -0.796821    18A     -0.768929
      19A     -0.698965    20A     -0.683239    21A     -0.674417
      22A     -0.645789    23A     -0.609293    24A     -0.602026
      25A     -0.570657    26A     -0.565242    27A     -0.550834
      28A     -0.528325    29A     -0.523681    30A     -0.505554
      31A     -0.487687    32A     -0.471869    33A     -0.463834
      34A     -0.457700    35A     -0.453595    36A     -0.435402

  @DF-RHF Final Energy:  -423.12620806921018

   => Energetics <=

    Nuclear Repulsion Energy =            465.3669990862358645
    One-Electron Energy =               -1498.8091890019707080
    Two-Electron Energy =                 610.3159818465248918
    DFT Exchange-Correlation Energy =       0.0000000000000000
    Empirical Dispersion Energy =           0.0000000000000000
    PCM Polarization Energy =               0.0000000000000000
    EFP Energy =                            0.0000000000000000
    Total Energy =                       -423.1262080692099516
    Molecular point group: c1
  Basis Set: CC-PVTZ
  Basis Set:

  -Total Gradient:
     Atom            X                  Y                   Z
    ------   -----------------  -----------------  -----------------
       1       -0.000050340898     0.000073353243     0.000011087543
       2        0.000073525814    -0.000043818706    -0.000013594889
       3        0.003596690701     0.004012819691    -0.004369923624
       4        0.000028031544     0.000020983115     0.000008402368
       5        0.004323752847     0.004945181089     0.000598389920
       6       -0.003658373186    -0.004137723968     0.003509773035
       7       -0.000014266866     0.000030312172    -0.000000800177
       8       -0.000037125217    -0.000041970121    -0.000005288576
       9       -0.004273280754    -0.004842552055     0.000275041501
      10        0.000003696298     0.000005429412    -0.000003741136
      11        0.000005054867    -0.000001405367    -0.000014798031
      12        0.000051005121     0.000001665607     0.000016578059
      13       -0.000001857514    -0.000000759555    -0.000005606323
      14        0.000009698990     0.000002804896     0.000017398981
      15        0.000000739064    -0.000004003223    -0.000004341926
      16        0.000005918050    -0.000004639595    -0.000004892801
      17        0.000003775590     0.000004653727    -0.000004079273
      18        0.000001872157     0.000001539856     0.000005945994
      19       -0.000004563667    -0.000003750815     0.000002620018
      20        0.000027698966    -0.000008951502    -0.000020974962
      21       -0.000026493771    -0.000001584968     0.000006590681
      22       -0.000016861990    -0.000004161007    -0.000000572380
      23       -0.000048296139    -0.000003421928    -0.000003213999

  **** Optimization is complete! (in 13 steps) ****
    Final optimized geometry and variables:
    Molecular point group: c1

    Geometry (in Angstrom), charge = 0, multiplicity = 1:

    O            1.335632497389     0.055154295917     1.210343064876
    C            1.050940078014    -0.876327778390     0.535903539730
    C           -0.336754360066    -1.446706025320     0.405071848279
    O            1.941008423176    -1.569482947237    -0.152051119460
    C           -1.485349009958    -0.429961345223     0.414879644411
    H           -0.401216832142    -2.108756330614    -0.446749582494
    H           -0.446774969556    -2.097701196750     1.269239806151
    C           -1.289632298650     0.806925488695    -0.456255295401
    H           -1.727250489394    -0.159410626242     1.435998194006
    H           -2.362115176530    -0.964786123838     0.058943800829
    C           -2.534958588432     1.687398507460    -0.514056166873
    H           -0.456634646788     1.389299673758    -0.083465181112
    H           -1.027139486766     0.494792036139    -1.465730297486
    C           -2.344756687543     2.932907962977    -1.373113390238
    H           -2.807914217294     1.984983340215     0.494621543820
    H           -3.370925257712     1.109039869064    -0.898369157740
    H           -1.538341771358     3.550394805277    -0.992408920337
    H           -3.244126298344     3.537721137921    -1.392321161531
    H           -2.102224499017     2.668749580547    -2.397229250738
    C            3.293666252022    -1.172601324793    -0.045238663597
    H            3.421256936668    -0.158383840711    -0.392992974797
    H            3.852912800366    -1.852969115805    -0.666614332405
    H            3.630178761015    -1.239195061393     0.978690034904

  Mulliken Charges: (a.u.)
   Center  Symbol    Alpha    Beta     Spin     Total
       1     O     4.20518  4.20518  0.00000 -0.41036
       2     C     2.79600  2.79600  0.00000  0.40801
       3     C     3.10976  3.10976  0.00000 -0.21952
       4     O     4.14647  4.14647  0.00000 -0.29294
       5     C     3.08603  3.08603  0.00000 -0.17206
       6     H     0.43510  0.43510  0.00000  0.12979
       7     H     0.43944  0.43944  0.00000  0.12112
       8     C     3.09752  3.09752  0.00000 -0.19505
       9     H     0.44706  0.44706  0.00000  0.10587
      10     H     0.45105  0.45105  0.00000  0.09790
      11     C     3.08589  3.08589  0.00000 -0.17179
      12     H     0.43819  0.43819  0.00000  0.12362
      13     H     0.45609  0.45609  0.00000  0.08783
      14     C     3.14995  3.14995  0.00000 -0.29989
      15     H     0.45349  0.45349  0.00000  0.09302
      16     H     0.45555  0.45555  0.00000  0.08889
      17     H     0.45338  0.45338  0.00000  0.09324
      18     H     0.44890  0.44890  0.00000  0.10220
      19     H     0.45607  0.45607  0.00000  0.08785
      20     C     3.03548  3.03548  0.00000 -0.07095
      21     H     0.45388  0.45388  0.00000  0.09224
      22     H     0.44513  0.44513  0.00000  0.10974
      23     H     0.45439  0.45439  0.00000  0.09121

   Total alpha = 36.00000, Total beta = 36.00000, Total charge = -0.00000

*** Psi4 exiting successfully. Buy a developer a beer!
