  ==> Input File <==

--------------------------------------------------------------------------
set {
	reference rhf
	basis 6-31G*
}

set_num_threads( 4 )
memory 2 gb

molecule MOL {
0 1

O	 2.056993	 -0.088461	 -0.703559
C	 1.122059	 0.121804	 -0.000188
C	 -0.170150	 -0.657997	 -0.000612
O	 1.094898	 1.096484	 0.899943
C	 -1.412532	 0.227344	 -0.000452
H	 -0.153702	 -1.313099	 -0.867402
H	 -0.153924	 -1.313811	 0.865644
C	 -2.706999	 -0.587347	 -0.000541
H	 -1.388000	 0.879466	 -0.868000
H	 -1.387972	 0.879138	 0.867341
C	 -3.956778	 0.291888	 0.000910
H	 -2.726114	 -1.239230	 -0.871609
H	 -2.725217	 -1.240844	 0.869333
H	 -3.985213	 0.933254	 -0.875158
H	 -4.860123	 -0.309979	 0.000519
H	 -3.984618	 0.931166	 0.878514
C	 2.250832	 1.907765	 1.003767
H	 3.110097	 1.311911	 1.275995
H	 2.036355	 2.629569	 1.776391
H	 2.448572	 2.409157	 0.067278

	symmetry c1
}
set optking {
	frozen_dihedral = ("
		1 2 3 6
	")
}

ee = optimize('scf')
oeprop('DIPOLE', 'QUADRUPOLE', 'MULLIKEN_CHARGES')
f=open( 'psi4out.xyz', 'w' )
f.write( "20  " )
f.write( str(ee) + "\n" )
f.write( MOL.save_string_xyz() )
f.close()
--------------------------------------------------------------------------

    Molecular point group: c1
  Charge       = 0
  Multiplicity = 1
  Basis Set: 6-31G*
  Basis Set:
  @DF-RHF Final Energy:  -383.93961628998051
    Total Energy =                       -383.9396162899806768
    Molecular point group: c1
  Basis Set: 6-31G*
  Basis Set:
  Basis Set: 6-31G*
  Basis Set:
  @DF-RHF Final Energy:  -383.93857531924971
    Total Energy =                       -383.9385753192493667
  Basis Set: 6-31G*
  Basis Set:
  Basis Set: 6-31G*
  Basis Set:
  @DF-RHF Final Energy:  -383.93982655935679
    Total Energy =                       -383.9398265593567885
  Basis Set: 6-31G*
  Basis Set:
  Basis Set: 6-31G*
  Basis Set:
  @DF-RHF Final Energy:  -383.94005391375276
    Total Energy =                       -383.9400539137529904
  Basis Set: 6-31G*
  Basis Set:
  Basis Set: 6-31G*
  Basis Set:
  @DF-RHF Final Energy:  -383.94005543175126
    Total Energy =                       -383.9400554317512615
  Basis Set: 6-31G*
  Basis Set:
  Charge       = 0
  Multiplicity = 1
  Basis Set: 6-31G*
  Basis Set:

    Orbital Energies (a.u.)
    -----------------------

    Doubly Occupied:

       1A    -20.604723     2A    -20.543389     3A    -11.371495
       4A    -11.281191     5A    -11.235009     6A    -11.226746
       7A    -11.223465     8A    -11.214003     9A     -1.469320
      10A     -1.361394    11A     -1.092254    12A     -1.024725
      13A     -0.966439    14A     -0.891725    15A     -0.806740
      16A     -0.774256    17A     -0.693412    18A     -0.681301
      19A     -0.672783    20A     -0.647633    21A     -0.595610
      22A     -0.591784    23A     -0.578623    24A     -0.548083
      25A     -0.531842    26A     -0.522777    27A     -0.507700
      28A     -0.487922    29A     -0.480840    30A     -0.473471
      31A     -0.454851    32A     -0.428563

  @DF-RHF Final Energy:  -383.94005621769395

   => Energetics <=

    Nuclear Repulsion Energy =            383.5500491736531785
    One-Electron Energy =               -1283.0120730317871676
    Two-Electron Energy =                 515.5219676404398115
    DFT Exchange-Correlation Energy =       0.0000000000000000
    Empirical Dispersion Energy =           0.0000000000000000
    PCM Polarization Energy =               0.0000000000000000
    EFP Energy =                            0.0000000000000000
    Total Energy =                       -383.9400562176941776
    Molecular point group: c1
  Basis Set: 6-31G*
  Basis Set:

  -Total Gradient:
     Atom            X                  Y                   Z
    ------   -----------------  -----------------  -----------------
       1        0.000321613119    -0.000401387989     0.000664640362
       2       -0.000549887029     0.000764733096    -0.000952885169
       3        0.000544521809    -0.000870503324     0.000800361229
       4        0.000058999524    -0.000019975314    -0.000076235928
       5        0.000031947272    -0.000055008721     0.000018037004
       6       -0.000359321038     0.000566012106    -0.000419184585
       7       -0.000018398032    -0.000025110490    -0.000001438526
       8       -0.000012135415     0.000021101559    -0.000061723924
       9       -0.000021505666    -0.000034294569     0.000007630928
      10        0.000014775451     0.000026402144    -0.000009155976
      11       -0.000028869861    -0.000009637031     0.000030858887
      12       -0.000009152953     0.000004081320    -0.000011291304
      13        0.000029508575     0.000011003817    -0.000016106837
      14        0.000001402205    -0.000012311874    -0.000000241013
      15       -0.000015800173     0.000007858769     0.000012584757
      16       -0.000001564044     0.000010420969    -0.000002945184
      17       -0.000016705942    -0.000002067741     0.000022553994
      18        0.000006425269     0.000001552119     0.000001705192
      19        0.000023076087     0.000013619353    -0.000000996612
      20        0.000001070843     0.000003511804    -0.000006167292

  **** Optimization is complete! (in 6 steps) ****
    Final optimized geometry and variables:
    Molecular point group: c1

    Geometry (in Angstrom), charge = 0, multiplicity = 1:

    O            2.223960476690    -0.402446764247    -0.868736555518
    C            1.303760726961    -0.167876027177    -0.153101879509
    C            0.010035562894    -0.945936470559    -0.135587750683
    O            1.321826271977     0.801863770025     0.752204250054
    C           -1.251548503828    -0.075637977576    -0.144214779403
    H            0.030653592205    -1.603859351396    -0.994845188977
    H            0.021385443686    -1.567015536252     0.756927883025
    C           -2.530161739001    -0.914612758453    -0.173615077847
    H           -1.231425296302     0.579586235477    -1.012388081301
    H           -1.254056302548     0.566533120222     0.729540002747
    C           -3.796928638226    -0.060017107148    -0.177734657014
    H           -2.523582444568    -1.555407713956    -1.052421985625
    H           -2.544893802127    -1.577900997052     0.688670712052
    H           -3.828727406847     0.589393178948    -1.047840849866
    H           -4.687712405191    -0.679893607469    -0.195057463068
    H           -3.848189412656     0.569140423173     0.706188544513
    C            2.503837452938     1.576998459567     0.839398465939
    H            3.347793388356     0.953843930332     1.097834050307
    H            2.323501032307     2.303976532254     1.615902541875
    H            2.702688658078     2.072849438735    -0.099651901351

  Mulliken Charges: (a.u.)
   Center  Symbol    Alpha    Beta     Spin     Total
       1     O     4.28686  4.28686  0.00000 -0.57371
       2     C     2.61070  2.61070  0.00000  0.77860
       3     C     3.20203  3.20203  0.00000 -0.40406
       4     O     4.30258  4.30258  0.00000 -0.60516
       5     C     3.15960  3.15960  0.00000 -0.31920
       6     H     0.39815  0.39815  0.00000  0.20370
       7     H     0.40302  0.40302  0.00000  0.19397
       8     C     3.15374  3.15374  0.00000 -0.30748
       9     H     0.41726  0.41726  0.00000  0.16549
      10     H     0.40770  0.40770  0.00000  0.18460
      11     C     3.23983  3.23983  0.00000 -0.47966
      12     H     0.42040  0.42040  0.00000  0.15920
      13     H     0.42150  0.42150  0.00000  0.15700
      14     H     0.42025  0.42025  0.00000  0.15949
      15     H     0.41758  0.41758  0.00000  0.16483
      16     H     0.42035  0.42035  0.00000  0.15930
      17     C     3.09227  3.09227  0.00000 -0.18454
      18     H     0.40874  0.40874  0.00000  0.18251
      19     H     0.40883  0.40883  0.00000  0.18233
      20     H     0.40860  0.40860  0.00000  0.18281

   Total alpha = 32.00000, Total beta = 32.00000, Total charge = -0.00000
