                              Psi4 1.0.54 Driver

  ==> Input File <==

--------------------------------------------------------------------------
set {
	reference rhf
	basis cc-pvtz
}

set_num_threads( 4 )
memory 2 gb

molecule MOL {
0 1

H	 -3.401682	 -1.036167	 0.000000
O	 -3.113760	 -0.140926	 0.000000
C	 -1.775087	 -0.058754	 0.000000
C	 -1.074507	 0.573947	 1.019467
C	 -1.098600	 -0.632490	 -1.063661
H	 -1.606389	 1.016707	 1.841351
C	 0.298137	 0.629619	 0.970049
H	 -1.657934	 -1.115555	 -1.839427
C	 0.276058	 -0.568070	 -1.098170
H	 0.850240	 1.114853	 1.750330
C	 0.990581	 0.059446	 -0.089146
H	 0.801912	 -1.012843	 -1.922896
C	 2.463075	 0.115964	 -0.147697
O	 3.156780	 0.629062	 0.665728
H	 2.905480	 -0.365275	 -1.026610

	symmetry c1
}
set optking {
	frozen_dihedral = ("
		5 3 2 1
	")
}

ee,wfn = optimize('scf', return_wfn=True)
oeprop( wfn, 'DIPOLE', 'QUADRUPOLE', 'MULLIKEN_CHARGES')
f=open( 'psi4out.xyz', 'w' )
f.write( "15  " )
f.write( str(ee) + "\n" )
f.write( MOL.save_string_xyz() )
f.close()
--------------------------------------------------------------------------

    Molecular point group: c1
  Charge       = 0
  Multiplicity = 1
  Basis Set: CC-PVTZ
  Basis Set:
  @DF-RHF Final Energy:  -418.43663764649426
    Total Energy =                       -418.4366376464944324
    Molecular point group: c1
  Basis Set: CC-PVTZ
  Basis Set:
  Basis Set: CC-PVTZ
  Basis Set:
  @DF-RHF Final Energy:  -418.43806817470949
    Total Energy =                       -418.4380681747093149
  Basis Set: CC-PVTZ
  Basis Set:
  Basis Set: CC-PVTZ
  Basis Set:
  @DF-RHF Final Energy:  -418.43808449603557
    Total Energy =                       -418.4380844960357990
  Basis Set: CC-PVTZ
  Basis Set:
  Basis Set: CC-PVTZ
  Basis Set:
  @DF-RHF Final Energy:  -418.43773968897744
    Total Energy =                       -418.4377396889777856
  Basis Set: CC-PVTZ
  Basis Set:
  Basis Set: CC-PVTZ
  Basis Set:
  @DF-RHF Final Energy:  -418.43817625505989
    Total Energy =                       -418.4381762550599433
  Basis Set: CC-PVTZ
  Basis Set:
  Charge       = 0
  Multiplicity = 1
  Basis Set: CC-PVTZ
  Basis Set:

    Orbital Energies (a.u.)
    -----------------------

    Doubly Occupied:

       1A    -20.592058     2A    -20.549370     3A    -11.325401
       4A    -11.315077     5A    -11.258834     6A    -11.251539
       7A    -11.242278     8A    -11.241694     9A    -11.238552
      10A     -1.422129    11A     -1.405516    12A     -1.175585
      13A     -1.045695    14A     -1.040472    15A     -0.893065
      16A     -0.860166    17A     -0.802829    18A     -0.757889
      19A     -0.704504    20A     -0.684258    21A     -0.647139
      22A     -0.634696    23A     -0.623354    24A     -0.609974
      25A     -0.566327    26A     -0.558532    27A     -0.546151
      28A     -0.504969    29A     -0.489046    30A     -0.424259
      31A     -0.360212    32A     -0.342081

  @DF-RHF Final Energy:  -418.43817878823245

   => Energetics <=

    Nuclear Repulsion Energy =            401.8459582310561018
    One-Electron Energy =               -1366.3409687746895997
    Two-Electron Energy =                 546.0568317554015039
    DFT Exchange-Correlation Energy =       0.0000000000000000
    Empirical Dispersion Energy =           0.0000000000000000
    PCM Polarization Energy =               0.0000000000000000
    EFP Energy =                            0.0000000000000000
    Total Energy =                       -418.4381787882319941
    Molecular point group: c1
  Basis Set: CC-PVTZ
  Basis Set:

  -Total Gradient:
     Atom            X                  Y                   Z
    ------   -----------------  -----------------  -----------------
       1        0.000131898304    -0.000062614039     0.002959464805
       2       -0.000219937406     0.001107062097    -0.004245324282
       3        0.000253910292    -0.002817921436     0.002550748100
       4       -0.000334812451    -0.000102669240    -0.000112322325
       5        0.000156350426     0.001897922409    -0.001145361447
       6        0.000013953939    -0.000000723797    -0.000009257849
       7        0.000311511723    -0.000089354490    -0.000147847744
       8       -0.000000013993     0.000002203574     0.000006111334
       9       -0.000244263695    -0.000127014474    -0.000111895372
      10       -0.000021033003     0.000007988199     0.000002801145
      11        0.000009689951     0.000181546349     0.000301538120
      12        0.000008826859     0.000014410990     0.000006388700
      13       -0.000092362766    -0.000028009369    -0.000173485297
      14        0.000026487919     0.000025395166     0.000090062835
      15       -0.000000206105    -0.000008221938     0.000028379276

  **** Optimization is complete! (in 6 steps) ****
    Final optimized geometry and variables:
    Molecular point group: c1

    Geometry (in Angstrom), charge = 0, multiplicity = 1:

    H           -3.454929442273    -1.045303980027    -0.010491469261
    O           -3.120606362379    -0.165613665609     0.004600964241
    C           -1.764475178242    -0.157286207146    -0.041197693722
    C           -1.075452459539     0.490582144663     0.973265764232
    C           -1.084262127678    -0.713987341608    -1.107721306698
    H           -1.629583832808     0.926958371620     1.780270710268
    C            0.296321748101     0.564045942735     0.924914370876
    H           -1.631789194105    -1.186322229173    -1.900334350069
    C            0.294199822149    -0.643903074368    -1.140999477499
    H            0.843912097025     1.059450824358     1.701891169044
    C            0.994562085549    -0.007882892561    -0.131739388935
    H            0.826107113585    -1.079536479299    -1.966603172090
    C            2.469829372444     0.061661383183    -0.190615918091
    O            3.156744610407     0.580473542404     0.623426610808
    H            2.916243542544    -0.416032567908    -1.069395499576

  Mulliken Charges: (a.u.)
   Center  Symbol    Alpha    Beta     Spin     Total
       1     H     0.38423  0.38423  0.00000  0.23154
       2     O     4.18205  4.18205  0.00000 -0.36409
       3     C     2.86240  2.86240  0.00000  0.27520
       4     C     3.10580  3.10580  0.00000 -0.21160
       5     C     3.11957  3.11957  0.00000 -0.23914
       6     H     0.41263  0.41263  0.00000  0.17474
       7     C     3.06616  3.06616  0.00000 -0.13232
       8     H     0.41920  0.41920  0.00000  0.16161
       9     C     3.07709  3.07709  0.00000 -0.15417
      10     H     0.40698  0.40698  0.00000  0.18605
      11     C     2.99682  2.99682  0.00000  0.00635
      12     H     0.42113  0.42113  0.00000  0.15774
      13     C     2.91055  2.91055  0.00000  0.17890
      14     O     4.17574  4.17574  0.00000 -0.35148
      15     H     0.45967  0.45967  0.00000  0.08067

   Total alpha = 32.00000, Total beta = 32.00000, Total charge =  0.00000

*** Psi4 exiting successfully. Buy a developer a beer!
