                              Psi4 1.0.54 Driver

  ==> Input File <==

--------------------------------------------------------------------------
set {
	reference rhf
	basis cc-pvtz
}

set_num_threads( 4 )
memory 2 gb

molecule MOL {
0 1

H	 -3.162190	 0.493205	 -0.000107
C	 -2.363908	 -0.234727	 0.000005
O	 -1.158738	 0.454634	 -0.000087
H	 -2.464314	 -0.863616	 -0.882153
H	 -2.464327	 -0.863359	 0.882345
C	 -1.206991	 1.700316	 -0.621590
C	 0.162649	 2.345241	 -0.554116
H	 -1.945544	 2.334623	 -0.130845
H	 -1.518690	 1.588081	 -1.660286
C	 0.192959	 3.718360	 -1.215913
H	 0.455650	 2.425714	 0.486845
H	 0.879089	 1.685133	 -1.030480
H	 -0.500173	 4.402852	 -0.738289
H	 1.181839	 4.155628	 -1.153199
H	 -0.073609	 3.657286	 -2.265808

	symmetry c1
}
set optking {
	frozen_dihedral = ("
		6 3 2 4
	")
}

ee,wfn = optimize('scf', return_wfn=True)
oeprop( wfn, 'DIPOLE', 'QUADRUPOLE', 'MULLIKEN_CHARGES')
f=open( 'psi4out.xyz', 'w' )
f.write( "15  " )
f.write( str(ee) + "\n" )
f.write( MOL.save_string_xyz() )
f.close()
--------------------------------------------------------------------------

    Molecular point group: c1
  Charge       = 0
  Multiplicity = 1
  Basis Set: CC-PVTZ
  Basis Set:
  @DF-RHF Final Energy:  -232.22530580802200
    Total Energy =                       -232.2253058080218580
    Molecular point group: c1
  Basis Set: CC-PVTZ
  Basis Set:
  Basis Set: CC-PVTZ
  Basis Set:
  @DF-RHF Final Energy:  -232.22623328664324
    Total Energy =                       -232.2262332866432644
  Basis Set: CC-PVTZ
  Basis Set:
  Basis Set: CC-PVTZ
  Basis Set:
  @DF-RHF Final Energy:  -232.22648773401403
    Total Energy =                       -232.2264877340141425
  Basis Set: CC-PVTZ
  Basis Set:
  Charge       = 0
  Multiplicity = 1
  Basis Set: CC-PVTZ
  Basis Set:

    Orbital Energies (a.u.)
    -----------------------

    Doubly Occupied:

       1A    -20.545906     2A    -11.264641     3A    -11.261430
       4A    -11.212505     5A    -11.210600     6A     -1.379509
       7A     -1.058287     8A     -0.956227     9A     -0.877248
      10A     -0.809357    11A     -0.675258    12A     -0.654820
      13A     -0.632058    14A     -0.608433    15A     -0.564397
      16A     -0.543340    17A     -0.503326    18A     -0.489803
      19A     -0.478848    20A     -0.462531    21A     -0.413925

  @DF-RHF Final Energy:  -232.22648910177094

   => Energetics <=

    Nuclear Repulsion Energy =            189.8331940032434773
    One-Electron Energy =                -690.9144750858149564
    Two-Electron Energy =                 268.8547919808005418
    DFT Exchange-Correlation Energy =       0.0000000000000000
    Empirical Dispersion Energy =           0.0000000000000000
    PCM Polarization Energy =               0.0000000000000000
    EFP Energy =                            0.0000000000000000
    Total Energy =                       -232.2264891017709374
    Molecular point group: c1
  Basis Set: CC-PVTZ
  Basis Set:

  -Total Gradient:
     Atom            X                  Y                   Z
    ------   -----------------  -----------------  -----------------
       1       -0.000044079447    -0.000006987567    -0.000007608320
       2       -0.001804793198     0.003327330720    -0.000910078761
       3        0.001108931525    -0.002121421376    -0.002476477977
       4        0.001346291851    -0.002114942184     0.001426220153
       5       -0.000005906133    -0.000036189616    -0.000002360205
       6       -0.000595770168     0.001006253212     0.001899313158
       7        0.000010413472    -0.000022702707     0.000023114224
       8       -0.000000671308    -0.000036672274     0.000026476924
       9       -0.000004911197     0.000000436914     0.000010181489
      10       -0.000012662072     0.000000096923    -0.000001894224
      11        0.000012121858     0.000005183763     0.000005181836
      12       -0.000005986841    -0.000001146186     0.000002347707
      13       -0.000000384116     0.000005627174     0.000000142089
      14       -0.000002097385    -0.000004053822     0.000003908266
      15       -0.000000496842    -0.000000812973     0.000001533642

  **** Optimization is complete! (in 4 steps) ****
    Final optimized geometry and variables:
    Molecular point group: c1

    Geometry (in Angstrom), charge = 0, multiplicity = 1:

    H           -2.314467831962    -1.179939826899     0.522554189672
    C           -1.446883372563    -1.832094387141     0.482258044329
    O           -0.255385695140    -1.114483714360     0.480742335669
    H           -1.521956027868    -2.471224558899    -0.393909353076
    H           -1.455735544985    -2.467369541656     1.358060991987
    C           -0.307939817552     0.125880073221    -0.152326912394
    C            1.058387368880     0.777466606852    -0.082052797446
    H           -1.051214350314     0.758837748070     0.331612919056
    H           -0.612507238813     0.008300285082    -1.192744131407
    C            1.083302911462     2.150420076395    -0.744654285184
    H            1.348043149564     0.859940144546     0.959801251497
    H            1.779768625638     0.120926733336    -0.555941598056
    H            0.385653350725     2.831749675926    -0.268955679952
    H            2.069861013083     2.592819687755    -0.680035986788
    H            0.819350998954     2.087381351356    -1.795146197021

  Mulliken Charges: (a.u.)
   Center  Symbol    Alpha    Beta     Spin     Total
       1     H     0.47389  0.47389  0.00000  0.05222
       2     C     3.03166  3.03166  0.00000 -0.06331
       3     O     4.17392  4.17392  0.00000 -0.34783
       4     H     0.46527  0.46527  0.00000  0.06946
       5     H     0.45081  0.45081  0.00000  0.09839
       6     C     2.95591  2.95591  0.00000  0.08818
       7     C     3.08112  3.08112  0.00000 -0.16224
       8     H     0.47459  0.47459  0.00000  0.05082
       9     H     0.47676  0.47676  0.00000  0.04647
      10     C     3.15582  3.15582  0.00000 -0.31164
      11     H     0.45122  0.45122  0.00000  0.09755
      12     H     0.45101  0.45101  0.00000  0.09798
      13     H     0.45593  0.45593  0.00000  0.08814
      14     H     0.44627  0.44627  0.00000  0.10746
      15     H     0.45583  0.45583  0.00000  0.08834

   Total alpha = 21.00000, Total beta = 21.00000, Total charge = -0.00000

*** Psi4 exiting successfully. Buy a developer a beer!
