                              Psi4 1.0.54 Driver

  ==> Input File <==

--------------------------------------------------------------------------
set {
	reference rhf
	basis cc-pvtz
}

set_num_threads( 4 )
memory 2 gb

molecule MOL {
0 1

O	 0.402258	 0.253316	 0.931168
C	 1.121787	 0.124983	 0.000110
C	 0.982804	 0.840911	 -1.318827
O	 2.167739	 -0.685178	 -0.000678
C	 -0.205716	 1.789408	 -1.379633
H	 1.914910	 1.366779	 -1.498054
H	 0.919300	 0.081210	 -2.091020
C	 -0.316190	 2.497158	 -2.726925
H	 -0.119746	 2.522641	 -0.585581
H	 -1.116319	 1.235870	 -1.179778
C	 -1.502813	 3.452019	 -2.798028
H	 0.600368	 3.047316	 -2.923110
H	 -0.401891	 1.757420	 -3.518556
H	 -1.428352	 4.224631	 -2.040327
H	 -1.556237	 3.939758	 -3.764430
H	 -2.437879	 2.925396	 -2.640228
C	 3.449556	 -0.089977	 -0.000570
H	 3.585694	 0.522473	 -0.879546
H	 4.155805	 -0.904274	 -0.001389
H	 3.586173	 0.521118	 0.879272

	symmetry c1
}
set optking {
	frozen_dihedral = ("
		1 2 4 17
	")
}

ee,wfn = optimize('scf', return_wfn=True)
oeprop( wfn, 'DIPOLE', 'QUADRUPOLE', 'MULLIKEN_CHARGES')
f=open( 'psi4out.xyz', 'w' )
f.write( "20  " )
f.write( str(ee) + "\n" )
f.write( MOL.save_string_xyz() )
f.close()
--------------------------------------------------------------------------

    Molecular point group: c1
  Charge       = 0
  Multiplicity = 1
  Basis Set: CC-PVTZ
  Basis Set:
  @DF-RHF Final Energy:  -384.05995235821263
    Total Energy =                       -384.0599523582126267
    Molecular point group: c1
  Basis Set: CC-PVTZ
  Basis Set:
  Basis Set: CC-PVTZ
  Basis Set:
  @DF-RHF Final Energy:  -384.05870280934602
    Total Energy =                       -384.0587028093461868
  Basis Set: CC-PVTZ
  Basis Set:
  Basis Set: CC-PVTZ
  Basis Set:
  @DF-RHF Final Energy:  -384.06205119079812
    Total Energy =                       -384.0620511907983428
  Basis Set: CC-PVTZ
  Basis Set:
  Basis Set: CC-PVTZ
  Basis Set:
  @DF-RHF Final Energy:  -384.06294622055702
    Total Energy =                       -384.0629462205573645
  Basis Set: CC-PVTZ
  Basis Set:
  Basis Set: CC-PVTZ
  Basis Set:
  @DF-RHF Final Energy:  -384.06301647386994
    Total Energy =                       -384.0630164738697658
  Basis Set: CC-PVTZ
  Basis Set:
  Basis Set: CC-PVTZ
  Basis Set:
  @DF-RHF Final Energy:  -384.06302404137654
    Total Energy =                       -384.0630240413768206
  Basis Set: CC-PVTZ
  Basis Set:
  Charge       = 0
  Multiplicity = 1
  Basis Set: CC-PVTZ
  Basis Set:

    Orbital Energies (a.u.)
    -----------------------

    Doubly Occupied:

       1A    -20.579627     2A    -20.543683     3A    -11.367628
       4A    -11.290862     5A    -11.239628     6A    -11.221701
       7A    -11.220844     8A    -11.211141     9A     -1.461448
      10A     -1.370117    11A     -1.091954    12A     -1.019001
      13A     -0.974601    14A     -0.899224    15A     -0.809258
      16A     -0.767066    17A     -0.698660    18A     -0.680733
      19A     -0.678667    20A     -0.647121    21A     -0.618138
      22A     -0.591400    23A     -0.590387    24A     -0.552026
      25A     -0.539121    26A     -0.516456    27A     -0.495619
      28A     -0.490417    29A     -0.480677    30A     -0.473927
      31A     -0.454967    32A     -0.436466

  @DF-RHF Final Energy:  -384.06302453308979

   => Energetics <=

    Nuclear Repulsion Energy =            382.3530055644438335
    One-Electron Energy =               -1280.8069340287247542
    Two-Electron Energy =                 514.3909039311910192
    DFT Exchange-Correlation Energy =       0.0000000000000000
    Empirical Dispersion Energy =           0.0000000000000000
    PCM Polarization Energy =               0.0000000000000000
    EFP Energy =                            0.0000000000000000
    Total Energy =                       -384.0630245330899015
    Molecular point group: c1
  Basis Set: CC-PVTZ
  Basis Set:

  -Total Gradient:
     Atom            X                  Y                   Z
    ------   -----------------  -----------------  -----------------
       1        0.000384909722     0.000625923673     0.000225943494
       2       -0.000509711747    -0.000948817660    -0.000013614501
       3        0.000002894701     0.000030974011     0.000052826616
       4        0.000127386301     0.000255994225    -0.000854691407
       5        0.000006380338    -0.000009132932    -0.000016381379
       6       -0.000016742355    -0.000015198650    -0.000015025301
       7        0.000000162767    -0.000007591407    -0.000005617172
       8        0.000000942388     0.000012720084     0.000015781682
       9       -0.000000073359    -0.000000344102     0.000001605492
      10        0.000014308690     0.000013651172    -0.000003056589
      11       -0.000011706109    -0.000005611145    -0.000027807553
      12       -0.000014554829    -0.000009590627     0.000003019850
      13        0.000000263068     0.000005217202    -0.000001941119
      14        0.000002883893    -0.000004458835    -0.000003081193
      15       -0.000007711880     0.000001365240     0.000011459911
      16        0.000011217738     0.000009271671    -0.000001698406
      17        0.000017783760     0.000043204051     0.000624467528
      18       -0.000002742033    -0.000015479382     0.000027912331
      19       -0.000000494524     0.000028130750    -0.000010987501
      20       -0.000005396529    -0.000010227341    -0.000009114780

  **** Optimization is complete! (in 7 steps) ****
    Final optimized geometry and variables:
    Molecular point group: c1

    Geometry (in Angstrom), charge = 0, multiplicity = 1:

    O           -0.263960672106    -0.590443902326     1.857487811162
    C            0.458117939092    -0.723263053598     0.939132689334
    C            0.212248719922    -0.142061960504    -0.432283463630
    O            1.564564895955    -1.488155039898     1.039602284521
    C           -1.084927456610     0.646441759080    -0.545441417311
    H            1.060328892648     0.482520835114    -0.694537264248
    H            0.230577959328    -0.972208084873    -1.131786167382
    C           -1.304214655992     1.209848209276    -1.946516477801
    H           -1.077208855560     1.453521017561     0.178516165000
    H           -1.915733196799     0.006219852501    -0.272213026886
    C           -2.604059650605     1.997267380063    -2.070462845525
    H           -0.468612856136     1.851397665446    -2.214471621718
    H           -1.306414875839     0.396606570647    -2.667477153300
    H           -2.618024532486     2.838408107799    -1.385766942786
    H           -2.733360977240     2.384862659898    -3.074237162790
    H           -3.461525520711     1.373366886137    -1.842843744597
    C            2.825092528558    -0.861250351894     1.032821842123
    H            3.053214678106    -0.425247170621     0.068008920344
    H            3.550255084035    -1.628534073766     1.249752131160
    H            2.878335603293    -0.097650728662     1.799496190076

  Mulliken Charges: (a.u.)
   Center  Symbol    Alpha    Beta     Spin     Total
       1     O     4.16699  4.16699  0.00000 -0.33398
       2     C     2.78853  2.78853  0.00000  0.42294
       3     C     3.12693  3.12693  0.00000 -0.25386
       4     O     4.16101  4.16101  0.00000 -0.32202
       5     C     3.08206  3.08206  0.00000 -0.16412
       6     H     0.44560  0.44560  0.00000  0.10879
       7     H     0.43701  0.43701  0.00000  0.12599
       8     C     3.08520  3.08520  0.00000 -0.17040
       9     H     0.44634  0.44634  0.00000  0.10732
      10     H     0.44418  0.44418  0.00000  0.11164
      11     C     3.14962  3.14962  0.00000 -0.29924
      12     H     0.45602  0.45602  0.00000  0.08795
      13     H     0.45475  0.45475  0.00000  0.09051
      14     H     0.45378  0.45378  0.00000  0.09244
      15     H     0.44810  0.44810  0.00000  0.10380
      16     H     0.45311  0.45311  0.00000  0.09378
      17     C     3.04091  3.04091  0.00000 -0.08182
      18     H     0.46313  0.46313  0.00000  0.07374
      19     H     0.43879  0.43879  0.00000  0.12243
      20     H     0.45794  0.45794  0.00000  0.08412

   Total alpha = 32.00000, Total beta = 32.00000, Total charge = -0.00000

*** Psi4 exiting successfully. Buy a developer a beer!
