                              Psi4 1.0.54 Driver

  ==> Input File <==

--------------------------------------------------------------------------
set {
	reference rhf
	basis cc-pvtz
}

set_num_threads( 4 )
memory 2 gb

molecule MOL {
0 1

O	 3.219313	 0.959291	 -0.614106
C	 2.698710	 0.058177	 -0.050237
C	 1.246364	 -0.005813	 0.348416
O	 3.344101	 -1.038700	 0.312317
C	 0.453207	 1.232821	 -0.049003
H	 0.839270	 -0.907818	 -0.092281
H	 1.216683	 -0.160521	 1.422434
C	 -0.998367	 1.217982	 0.432195
H	 0.481498	 1.345443	 -1.127236
H	 0.951413	 2.105557	 0.354893
C	 -1.882951	 0.151251	 -0.211235
H	 -1.429490	 2.193659	 0.228843
H	 -1.019755	 1.099323	 1.513279
C	 -3.342450	 0.243269	 0.226009
H	 -1.826223	 0.246578	 -1.293162
H	 -1.508033	 -0.839650	 0.027695
C	 -4.234517	 -0.821434	 -0.405970
H	 -3.730149	 1.228245	 -0.022691
H	 -3.398860	 0.159952	 1.308941
C	 -5.621644	 -0.302721	 -0.770103
H	 -3.750885	 -1.211450	 -1.297434
H	 -4.332461	 -1.660036	 0.278143
H	 -6.228550	 -1.082580	 -1.215602
H	 -5.559602	 0.514496	 -1.481029
H	 -6.145302	 0.063266	 0.106849
C	 4.720529	 -1.114346	 0.001449
H	 4.874321	 -1.055557	 -1.065852
H	 5.057824	 -2.067950	 0.373977
H	 5.264321	 -0.313596	 0.480350

	symmetry c1
}
set optking {
	frozen_dihedral = ("
		21 17 14 11
	")
}

ee,wfn = optimize('scf', return_wfn=True)
oeprop( wfn, 'DIPOLE', 'QUADRUPOLE', 'MULLIKEN_CHARGES')
f=open( 'psi4out.xyz', 'w' )
f.write( "29  " )
f.write( str(ee) + "\n" )
f.write( MOL.save_string_xyz() )
f.close()
--------------------------------------------------------------------------

    Molecular point group: c1
  Charge       = 0
  Multiplicity = 1
  Basis Set: CC-PVTZ
  Basis Set:
  @DF-RHF Final Energy:  -501.22090927798445
    Total Energy =                       -501.2209092779839921
    Molecular point group: c1
  Basis Set: CC-PVTZ
  Basis Set:
  Basis Set: CC-PVTZ
  Basis Set:
  @DF-RHF Final Energy:  -501.22116434224188
    Total Energy =                       -501.2211643422424459
  Basis Set: CC-PVTZ
  Basis Set:
  Basis Set: CC-PVTZ
  Basis Set:
  @DF-RHF Final Energy:  -501.22121741407750
    Total Energy =                       -501.2212174140770458
  Basis Set: CC-PVTZ
  Basis Set:
  Basis Set: CC-PVTZ
  Basis Set:
  @DF-RHF Final Energy:  -501.22095058841342
    Total Energy =                       -501.2209505884134160
  Basis Set: CC-PVTZ
  Basis Set:
  Basis Set: CC-PVTZ
  Basis Set:
  @DF-RHF Final Energy:  -501.22122857699469
    Total Energy =                       -501.2212285769945765
  Basis Set: CC-PVTZ
  Basis Set:
  Charge       = 0
  Multiplicity = 1
  Basis Set: CC-PVTZ
  Basis Set:

    Orbital Energies (a.u.)
    -----------------------

    Doubly Occupied:

       1A    -20.596008     2A    -20.533863     3A    -11.364265
       4A    -11.278259     5A    -11.232926     6A    -11.217081
       7A    -11.215420     8A    -11.214109     9A    -11.213641
      10A    -11.212145    11A    -11.207588    12A     -1.471868
      13A     -1.365500    14A     -1.098919    15A     -1.066816
      16A     -1.020350    17A     -0.978224    18A     -0.929129
      19A     -0.862444    20A     -0.800742    21A     -0.791102
      22A     -0.765776    23A     -0.702867    24A     -0.685457
      25A     -0.676090    26A     -0.646172    27A     -0.631635
      28A     -0.604663    29A     -0.598001    30A     -0.582519
      31A     -0.567071    32A     -0.552649    33A     -0.532331
      34A     -0.527562    35A     -0.518226    36A     -0.516912
      37A     -0.495667    38A     -0.478420    39A     -0.471564
      40A     -0.461385    41A     -0.458920    42A     -0.456554
      43A     -0.443387    44A     -0.436982

  @DF-RHF Final Energy:  -501.22122893996163

   => Energetics <=

    Nuclear Repulsion Energy =            611.2834554682527823
    One-Electron Energy =               -1894.0469529649421929
    Two-Electron Energy =                 781.5422685567282315
    DFT Exchange-Correlation Energy =       0.0000000000000000
    Empirical Dispersion Energy =           0.0000000000000000
    PCM Polarization Energy =               0.0000000000000000
    EFP Energy =                            0.0000000000000000
    Total Energy =                       -501.2212289399612928
    Molecular point group: c1
  Basis Set: CC-PVTZ
  Basis Set:

  -Total Gradient:
     Atom            X                  Y                   Z
    ------   -----------------  -----------------  -----------------
       1       -0.000052094131     0.000069068140    -0.000024711233
       2        0.000031449703     0.000013843914     0.000010850503
       3        0.000017995074    -0.000016695988    -0.000013066567
       4       -0.000019968541    -0.000090486439     0.000037137143
       5        0.000009694498     0.000004443961     0.000010186779
       6       -0.000003650522    -0.000002428583    -0.000003372957
       7        0.000010636055     0.000003276493    -0.000002219363
       8        0.000002261238     0.000011939080     0.000004334709
       9       -0.000005802716    -0.000000299034     0.000003964832
      10        0.000004615916     0.000002915297     0.000002254704
      11       -0.000553663669     0.001820407579    -0.002367602723
      12        0.000009472577     0.000002911284    -0.000004635159
      13       -0.000002455550     0.000008182987    -0.000003194988
      14        0.001206664753    -0.003248325227     0.003856352104
      15       -0.000016159387    -0.000001894639    -0.000014582262
      16        0.000019050265    -0.000012741105     0.000002740772
      17       -0.002487513939     0.004305512679    -0.003839380341
      18       -0.000000466723     0.000012436585    -0.000002552222
      19       -0.000001582639    -0.000002981346     0.000011605135
      20       -0.000024457851     0.000009209725    -0.000009131958
      21        0.001841033697    -0.002879702056     0.002331493579
      22       -0.000004101518    -0.000014011027     0.000007764184
      23        0.000013337292     0.000001980622     0.000010250431
      24        0.000002745673    -0.000011689130     0.000002107653
      25        0.000010227314     0.000001161650    -0.000003156298
      26       -0.000002833698     0.000031975242    -0.000012476984
      27        0.000006366054    -0.000005334538     0.000004961283
      28       -0.000016651754    -0.000003659305     0.000005954206
      29        0.000005852535    -0.000009016816    -0.000001874959

  **** Optimization is complete! (in 6 steps) ****
    Final optimized geometry and variables:
    Molecular point group: c1

    Geometry (in Angstrom), charge = 0, multiplicity = 1:

    O            3.218350673131     0.929589021333    -0.512828996361
    C            2.694679353584     0.020762369284     0.035645627671
    C            1.240655934940    -0.047664479465     0.427280651262
    O            3.337381922083    -1.082252741934     0.384261670141
    C            0.450832025518     1.198465366645     0.046967142222
    H            0.834081924325    -0.941673727322    -0.029940187174
    H            1.206240756934    -0.220073253207     1.498443112539
    C           -1.002874428917     1.177324272595     0.521515869860
    H            0.483944673048     1.328824711573    -1.029129873324
    H            0.948291471850     2.063837021299     0.467327187641
    C           -1.885426769893     0.122443408026    -0.142987098230
    H           -1.432358894744     2.156691812521     0.332242821033
    H           -1.029196395400     1.041162491609     1.600387991443
    C           -3.350601549729     0.218761690013     0.276204304059
    H           -1.821384833597     0.229759401830    -1.223068624977
    H           -1.515826799279    -0.873293727548     0.086792723730
    C           -4.243135494331    -0.862140881504    -0.353627154330
    H           -3.720009226598     1.199966360202    -0.011192192912
    H           -3.428662045425     0.176559390690     1.358461676323
    C           -5.645057521793    -0.375909784886    -0.700623330935
    H           -3.757120113261    -1.269829867651    -1.234895846182
    H           -4.320793848207    -1.701074220968     0.332490463665
    H           -6.252592463654    -1.178761143366    -1.102465700373
    H           -5.611157712354     0.417686526586    -1.439527652950
    H           -6.150382852888     0.013847599008     0.177057754833
    C            4.714902886688    -1.155017297916     0.077581285870
    H            4.872949881922    -1.080485376787    -0.988112599928
    H            5.049501232088    -2.114567783322     0.437074385164
    H            5.257924298272    -0.362313958596     0.570535986998

  Mulliken Charges: (a.u.)
   Center  Symbol    Alpha    Beta     Spin     Total
       1     O     4.19699  4.19699  0.00000 -0.39397
       2     C     2.80487  2.80487  0.00000  0.39025
       3     C     3.10159  3.10159  0.00000 -0.20319
       4     O     4.14720  4.14720  0.00000 -0.29440
       5     C     3.09252  3.09252  0.00000 -0.18505
       6     H     0.43902  0.43902  0.00000  0.12195
       7     H     0.43992  0.43992  0.00000  0.12015
       8     C     3.10455  3.10455  0.00000 -0.20910
       9     H     0.44628  0.44628  0.00000  0.10744
      10     H     0.43961  0.43961  0.00000  0.12078
      11     C     3.09380  3.09380  0.00000 -0.18760
      12     H     0.44501  0.44501  0.00000  0.10997
      13     H     0.45368  0.45368  0.00000  0.09264
      14     C     3.08953  3.08953  0.00000 -0.17905
      15     H     0.45249  0.45249  0.00000  0.09501
      16     H     0.45312  0.45312  0.00000  0.09376
      17     C     3.08663  3.08663  0.00000 -0.17327
      18     H     0.45449  0.45449  0.00000  0.09102
      19     H     0.45201  0.45201  0.00000  0.09598
      20     C     3.14768  3.14768  0.00000 -0.29536
      21     H     0.45456  0.45456  0.00000  0.09089
      22     H     0.45347  0.45347  0.00000  0.09306
      23     H     0.44922  0.44922  0.00000  0.10156
      24     H     0.45544  0.45544  0.00000  0.08912
      25     H     0.45433  0.45433  0.00000  0.09133
      26     C     3.03810  3.03810  0.00000 -0.07620
      27     H     0.45436  0.45436  0.00000  0.09129
      28     H     0.44528  0.44528  0.00000  0.10945
      29     H     0.45424  0.45424  0.00000  0.09152

   Total alpha = 44.00000, Total beta = 44.00000, Total charge =  0.00000

*** Psi4 exiting successfully. Buy a developer a beer!
