  ==> Input File <==

--------------------------------------------------------------------------
set {
	reference rhf
	basis 6-31G*
}

set_num_threads( 1 )
memory 2 gb

molecule MOL {
0 1

O	 -2.752079	 1.214911	 -0.710276
C	 -2.631748	 0.079797	 -0.376130
C	 -3.768858	 -0.908399	 -0.334681
O	 -1.481751	 -0.454642	 0.000584
H	 -4.203031	 -0.980931	 -1.324678
H	 -3.443328	 -1.883665	 -0.004039
H	 -4.534506	 -0.529986	 0.332003
C	 -0.334255	 0.388708	 0.000906
C	 0.891947	 -0.504646	 0.000751
H	 -0.365390	 1.025305	 -0.873475
H	 -0.365484	 1.024911	 0.875569
C	 2.191998	 0.301789	 0.000897
H	 0.855148	 -1.151283	 -0.871571
H	 0.855132	 -1.151660	 0.872805
C	 3.441114	 -0.581407	 0.000108
H	 2.215074	 0.954890	 -0.869742
H	 2.215465	 0.953923	 0.872248
C	 4.739576	 0.224112	 -0.001102
H	 3.419457	 -1.233487	 -0.870178
H	 3.420834	 -1.233096	 0.870717
H	 4.804918	 0.861552	 -0.878265
H	 5.606527	 -0.429058	 -0.001824
H	 4.806469	 0.861674	 0.875853

	symmetry c1
}
set optking {
	frozen_dihedral = ("
		13 9 8 10,
		16 12 9 13,
		19 15 12 16,
		1 2 4 8
	")
}

ee = energy('scf')
oeprop('DIPOLE', 'QUADRUPOLE', 'MULLIKEN_CHARGES')
f=open( 'psi4out.xyz', 'w' )
f.write( "23  " )
f.write( str(ee) + "\n" )
f.write( MOL.save_string_xyz() )
f.close()
--------------------------------------------------------------------------

    Molecular point group: c1

    Geometry (in Angstrom), charge = 0, multiplicity = 1:

       Center              X                  Y                   Z               Mass
    ------------   -----------------  -----------------  -----------------  -----------------
           O         -2.767793503302     1.236231649151    -0.549899873741    15.994914619560
           C         -2.647462503302     0.101117649151    -0.215753873741    12.000000000000
           C         -3.784572503302    -0.887078350849    -0.174304873741    12.000000000000
           O         -1.497465503302    -0.433321350849     0.160960126259    15.994914619560
           H         -4.218745503302    -0.959610350849    -1.164301873741     1.007825032070
           H         -3.459042503302    -1.862344350849     0.156337126259     1.007825032070
           H         -4.550220503302    -0.508665350849     0.492379126259     1.007825032070
           C         -0.349969503302     0.410028649151     0.161282126259    12.000000000000
           C          0.876232496698    -0.483325350849     0.161127126259    12.000000000000
           H         -0.381104503302     1.046625649151    -0.713098873741     1.007825032070
           H         -0.381198503302     1.046231649151     1.035945126259     1.007825032070
           C          2.176283496698     0.323109649151     0.161273126259    12.000000000000
           H          0.839433496698    -1.129962350849    -0.711194873741     1.007825032070
           H          0.839417496698    -1.130339350849     1.033181126259     1.007825032070
           C          3.425399496698    -0.560086350849     0.160484126259    12.000000000000
           H          2.199359496698     0.976210649151    -0.709365873741     1.007825032070
           H          2.199750496698     0.975243649151     1.032624126259     1.007825032070
           C          4.723861496698     0.245432649151     0.159274126259    12.000000000000
           H          3.403742496698    -1.212166350849    -0.709801873741     1.007825032070
           H          3.405119496698    -1.211775350849     1.031093126259     1.007825032070
           H          4.789203496698     0.882872649151    -0.717888873741     1.007825032070
           H          5.590812496698    -0.407737350849     0.158552126259     1.007825032070
           H          4.790754496698     0.882994649151     1.036229126259     1.007825032070

  Charge       = 0
  Multiplicity = 1
  Basis Set: 6-31G*
  Basis Set:

    Orbital Energies (a.u.)
    -----------------------

    Doubly Occupied:

       1A    -20.603120     2A    -20.540442     3A    -11.374442
       4A    -11.280528     5A    -11.232581     6A    -11.224072
       7A    -11.223481     8A    -11.221495     9A    -11.212837
      10A     -1.468175    11A     -1.360892    12A     -1.093954
      13A     -1.042189    14A     -1.003422    15A     -0.930804
      16A     -0.841882    17A     -0.802335    18A     -0.774362
      19A     -0.694220    20A     -0.683553    21A     -0.667129
      22A     -0.646761    23A     -0.605857    24A     -0.588270
      25A     -0.582499    26A     -0.567824    27A     -0.557135
      28A     -0.537512    29A     -0.523216    30A     -0.505511
      31A     -0.490344    32A     -0.477808    33A     -0.471117
      34A     -0.466864    35A     -0.449995    36A     -0.434720

  @DF-RHF Final Energy:  -422.97891965586240

   => Energetics <=

    Nuclear Repulsion Energy =            449.9975344005377451
    One-Electron Energy =               -1467.5903420347274277
    Two-Electron Energy =                 594.6138879783250104
    DFT Exchange-Correlation Energy =       0.0000000000000000
    Empirical Dispersion Energy =           0.0000000000000000
    PCM Polarization Energy =               0.0000000000000000
    EFP Energy =                            0.0000000000000000
    Total Energy =                       -422.9789196558647291

  Mulliken Charges: (a.u.)
   Center  Symbol    Alpha    Beta     Spin     Total
       1     O     4.28390  4.28390  0.00000 -0.56779
       2     C     2.61556  2.61556  0.00000  0.76888
       3     C     3.28802  3.28802  0.00000 -0.57604
       4     O     4.31225  4.31225  0.00000 -0.62451
       5     H     0.39753  0.39753  0.00000  0.20494
       6     H     0.39980  0.39980  0.00000  0.20040
       7     H     0.39736  0.39736  0.00000  0.20527
       8     C     2.99841  2.99841  0.00000  0.00317
       9     C     3.16418  3.16418  0.00000 -0.32837
      10     H     0.40391  0.40391  0.00000  0.19219
      11     H     0.41435  0.41435  0.00000  0.17130
      12     C     3.16019  3.16019  0.00000 -0.32039
      13     H     0.41467  0.41467  0.00000  0.17065
      14     H     0.41441  0.41441  0.00000  0.17118
      15     C     3.15139  3.15139  0.00000 -0.30278
      16     H     0.42039  0.42039  0.00000  0.15922
      17     H     0.42123  0.42123  0.00000  0.15753
      18     C     3.23987  3.23987  0.00000 -0.47974
      19     H     0.42137  0.42137  0.00000  0.15726
      20     H     0.42144  0.42144  0.00000  0.15712
      21     H     0.42075  0.42075  0.00000  0.15851
      22     H     0.41803  0.41803  0.00000  0.16395
      23     H     0.42098  0.42098  0.00000  0.15805

   Total alpha = 36.00000, Total beta = 36.00000, Total charge =  0.00000
