                              Psi4 1.0.54 Driver

  ==> Input File <==

--------------------------------------------------------------------------
set {
	reference rhf
	basis cc-pvtz
}

set_num_threads( 4 )
memory 2 gb

molecule MOL {
0 1

H	 -2.644180	 -0.653737	 1.272255
C	 -2.092774	 -0.380414	 0.391915
O	 -0.808934	 -0.154049	 0.752536
F	 -2.163230	 -1.351640	 -0.507133
F	 -2.627232	 0.691260	 -0.169301
C	 0.085006	 0.250800	 -0.215074
C	 -0.515813	 -0.108853	 -1.571888
Cl	 1.654952	 -0.549197	 -0.013050
H	 0.260711	 1.312152	 -0.197625
F	 0.282230	 0.264400	 -2.539789
F	 -1.653385	 0.528341	 -1.717585
F	 -0.745404	 -1.387929	 -1.688094

	symmetry c1
}
set optking {
	frozen_dihedral = ("
		9 6 3 2
	")
}

ee,wfn = optimize('scf', return_wfn=True)
oeprop( wfn, 'DIPOLE', 'QUADRUPOLE', 'MULLIKEN_CHARGES')
f=open( 'psi4out.xyz', 'w' )
f.write( "12  " )
f.write( str(ee) + "\n" )
f.write( MOL.save_string_xyz() )
f.close()
--------------------------------------------------------------------------

    Molecular point group: c1
  Charge       = 0
  Multiplicity = 1
  Basis Set: CC-PVTZ
  Basis Set:
  @DF-RHF Final Energy: -1146.49003800359515
    Total Energy =                      -1146.4900380035960552
    Molecular point group: c1
  Basis Set: CC-PVTZ
  Basis Set:
  Basis Set: CC-PVTZ
  Basis Set:
  @DF-RHF Final Energy: -1146.54546840925127
    Total Energy =                      -1146.5454684092524076
  Basis Set: CC-PVTZ
  Basis Set:
  Basis Set: CC-PVTZ
  Basis Set:
  @DF-RHF Final Energy: -1146.57576585837683
    Total Energy =                      -1146.5757658583770535
  Basis Set: CC-PVTZ
  Basis Set:
  Basis Set: CC-PVTZ
  Basis Set:
  @DF-RHF Final Energy: -1146.59094661900258
    Total Energy =                      -1146.5909466190030344
  Basis Set: CC-PVTZ
  Basis Set:
  @DF-RHF Final Energy: -1146.59916264941171
    Total Energy =                      -1146.5991626494114826
  @DF-RHF Final Energy: -1146.60265062148346
    Total Energy =                      -1146.6026506214834626
  @DF-RHF Final Energy: -1146.60432862007337
    Total Energy =                      -1146.6043286200738294
  @DF-RHF Final Energy: -1146.60494272816004
    Total Energy =                      -1146.6049427281600401
  Basis Set: CC-PVTZ
  Basis Set:
  @DF-RHF Final Energy: -1146.60507524707759
    Total Energy =                      -1146.6050752470773659
  Basis Set: CC-PVTZ
  Basis Set:
  Basis Set: CC-PVTZ
  Basis Set:
  @DF-RHF Final Energy: -1146.60509277299207
    Total Energy =                      -1146.6050927729920659
  Basis Set: CC-PVTZ
  Basis Set:
  Basis Set: CC-PVTZ
  Basis Set:
  @DF-RHF Final Energy: -1146.60509431191167
    Total Energy =                      -1146.6050943119107615
  Basis Set: CC-PVTZ
  Basis Set:
  Charge       = 0
  Multiplicity = 1
  Basis Set: CC-PVTZ
  Basis Set:

    Orbital Energies (a.u.)
    -----------------------

    Doubly Occupied:

       1A   -104.856629     2A    -26.356198     3A    -26.354870
       4A    -26.353946     5A    -26.338689     6A    -26.335824
       7A    -20.635083     8A    -11.524657     9A    -11.482090
      10A    -11.405619    11A    -10.582157    12A     -8.048952
      13A     -8.046946    14A     -8.046869    15A     -1.770401
      16A     -1.718841    17A     -1.664744    18A     -1.662737
      19A     -1.640595    20A     -1.477114    21A     -1.180058
      22A     -1.043718    23A     -1.000670    24A     -0.922947
      25A     -0.863543    26A     -0.860065    27A     -0.855411
      28A     -0.832492    29A     -0.818626    30A     -0.768953
      31A     -0.736635    32A     -0.735291    33A     -0.713626
      34A     -0.695337    35A     -0.685255    36A     -0.680359
      37A     -0.665573    38A     -0.665095    39A     -0.656439
      40A     -0.646683    41A     -0.587167    42A     -0.551083
      43A     -0.530456    44A     -0.479060    45A     -0.468465

  @DF-RHF Final Energy: -1146.60509486838851

   => Energetics <=

    Nuclear Repulsion Energy =            753.6218547128421505
    One-Electron Energy =               -3090.5619630575788506
    Two-Electron Energy =                1190.3350134763484220
    DFT Exchange-Correlation Energy =       0.0000000000000000
    Empirical Dispersion Energy =           0.0000000000000000
    PCM Polarization Energy =               0.0000000000000000
    EFP Energy =                            0.0000000000000000
    Total Energy =                      -1146.6050948683880506
    Molecular point group: c1
  Basis Set: CC-PVTZ
  Basis Set:

  -Total Gradient:
     Atom            X                  Y                   Z
    ------   -----------------  -----------------  -----------------
       1        0.000005824434    -0.000011456944    -0.000008223695
       2       -0.000003927105    -0.003551651011    -0.001193303602
       3        0.000887304306     0.005346623435     0.002241787307
       4        0.000012055043    -0.000094343183     0.000059925771
       5       -0.000013751362     0.000028321652     0.000002122408
       6       -0.004414891410    -0.000718792921    -0.002259786157
       7        0.000043624086     0.000069470597    -0.000042704445
       8        0.000022294453    -0.000015483408    -0.000003769841
       9        0.003493899607    -0.001144313757     0.001202207473
      10       -0.000009207784    -0.000027509327     0.000015974610
      11       -0.000014632381     0.000117503305    -0.000095214666
      12       -0.000008591796     0.000001631528     0.000080984826

  **** Optimization is complete! (in 12 steps) ****
    Final optimized geometry and variables:
    Molecular point group: c1

    Geometry (in Angstrom), charge = 0, multiplicity = 1:

    H           -1.129571642590    -0.506267236434     2.730867151326
    C           -1.084598586408    -0.139000983844     1.721834397697
    O            0.226294203445    -0.034680918644     1.405527588859
    F           -1.728513112637    -0.964784480171     0.919904669070
    F           -1.692883042597     1.034959692988     1.651660510939
    C            0.787820162337     0.369973719977     0.204415965141
    C           -0.026920913734     0.230124502729    -1.091101897435
    CL           2.288734424498    -0.561615129939     0.018732096808
    H            1.095590633912     1.398426019817     0.282343413540
    F            0.678894022573     0.744262849665    -2.069514765925
    F           -1.141698331476     0.913551939594    -1.012172336870
    F           -0.312748799260    -1.003642377047    -1.395033152891

  Mulliken Charges: (a.u.)
   Center  Symbol    Alpha    Beta     Spin     Total
       1     H     0.44608  0.44608  0.00000  0.10785
       2     C     2.74370  2.74370  0.00000  0.51260
       3     O     4.15996  4.15996  0.00000 -0.31993
       4     F     4.61470  4.61470  0.00000 -0.22940
       5     F     4.61786  4.61786  0.00000 -0.23572
       6     C     2.93329  2.93329  0.00000  0.13342
       7     C     2.68392  2.68392  0.00000  0.63215
       8    CL     8.57157  8.57157  0.00000 -0.14315
       9     H     0.42527  0.42527  0.00000  0.14945
      10     F     4.60195  4.60195  0.00000 -0.20390
      11     F     4.60299  4.60299  0.00000 -0.20598
      12     F     4.59870  4.59870  0.00000 -0.19740

   Total alpha = 45.00000, Total beta = 45.00000, Total charge =  0.00000

*** Psi4 exiting successfully. Buy a developer a beer!
