                              Psi4 1.0.54 Driver

  ==> Input File <==

--------------------------------------------------------------------------
set {
	reference rhf
	basis cc-pvtz
}

set_num_threads( 4 )
memory 2 gb

molecule MOL {
0 1

H	 3.956442	 4.047133	 -1.627255
C	 3.047378	 3.861500	 -2.187621
C	 2.205230	 2.774897	 -1.527768
H	 2.499056	 4.795314	 -2.247208
H	 3.332185	 3.580136	 -3.196342
C	 0.919638	 2.478430	 -2.296748
H	 1.959776	 3.077546	 -0.516286
H	 2.793348	 1.863486	 -1.448586
C	 0.059103	 1.390025	 -1.662918
H	 0.333251	 3.384595	 -2.385322
H	 1.174448	 2.166869	 -3.305601
C	 -0.641639	 1.802304	 -0.379379
H	 -0.726055	 1.092158	 -2.353256
H	 0.642037	 0.492910	 -1.476125
C	 -1.180025	 0.697761	 0.509157
O	 -0.784931	 2.945396	 -0.085979
C	 -2.285431	 -0.137488	 -0.145671
H	 -1.551865	 1.168125	 1.409341
H	 -0.354342	 0.048063	 0.787252
C	 -3.646545	 0.082747	 0.508954
H	 -2.348635	 0.118247	 -1.199806
H	 -2.034895	 -1.192387	 -0.096473
C	 -4.757412	 -0.737227	 -0.138149
H	 -3.900211	 1.137405	 0.459735
H	 -3.580878	 -0.166775	 1.564416
H	 -4.867876	 -0.486707	 -1.187777
H	 -4.549650	 -1.800049	 -0.072540
H	 -5.709585	 -0.556397	 0.346597

	symmetry c1
}
set optking {
	frozen_dihedral = ("
		12 15 17 21
	")
}

ee,wfn = optimize('scf', return_wfn=True)
oeprop( wfn, 'DIPOLE', 'QUADRUPOLE', 'MULLIKEN_CHARGES')
f=open( 'psi4out.xyz', 'w' )
f.write( "28  " )
f.write( str(ee) + "\n" )
f.write( MOL.save_string_xyz() )
f.close()
--------------------------------------------------------------------------

    Molecular point group: c1
  Charge       = 0
  Multiplicity = 1
  Basis Set: CC-PVTZ
  Basis Set:
  @DF-RHF Final Energy:  -426.31413711481719
    Total Energy =                       -426.3141371148170720
    Molecular point group: c1
  Basis Set: CC-PVTZ
  Basis Set:
  Basis Set: CC-PVTZ
  Basis Set:
  @DF-RHF Final Energy:  -426.30794761337938
    Total Energy =                       -426.3079476133791559
  Basis Set: CC-PVTZ
  Basis Set:
  Basis Set: CC-PVTZ
  Basis Set:
  @DF-RHF Final Energy:  -426.31409380373157
    Total Energy =                       -426.3140938037317937
  Basis Set: CC-PVTZ
  Basis Set:
  Basis Set: CC-PVTZ
  Basis Set:
  @DF-RHF Final Energy:  -426.30839550978794
    Total Energy =                       -426.3083955097885109
  Basis Set: CC-PVTZ
  Basis Set:
  @DF-RHF Final Energy:  -426.31184247555166
    Total Energy =                       -426.3118424755518845
  @DF-RHF Final Energy:  -426.31470565724408
    Total Energy =                       -426.3147056572436213
  @DF-RHF Final Energy:  -426.31483718247569
    Total Energy =                       -426.3148371824750029
  @DF-RHF Final Energy:  -426.31494406518618
    Total Energy =                       -426.3149440651859550
  @DF-RHF Final Energy:  -426.31268720694425
    Total Energy =                       -426.3126872069447018
  @DF-RHF Final Energy:  -426.31527954413639
    Total Energy =                       -426.3152795441362741
  @DF-RHF Final Energy:  -426.31498518871695
    Total Energy =                       -426.3149851887166051
  @DF-RHF Final Energy:  -426.31542480622272
    Total Energy =                       -426.3154248062231773
  @DF-RHF Final Energy:  -426.31546819817197
    Total Energy =                       -426.3154681981721978
  Basis Set: CC-PVTZ
  Basis Set:
  @DF-RHF Final Energy:  -426.31548623798949
    Total Energy =                       -426.3154862379890346
  Basis Set: CC-PVTZ
  Basis Set:
  Basis Set: CC-PVTZ
  Basis Set:
  @DF-RHF Final Energy:  -426.31548853025595
    Total Energy =                       -426.3154885302564026
  Basis Set: CC-PVTZ
  Basis Set:
  Basis Set: CC-PVTZ
  Basis Set:
  @DF-RHF Final Energy:  -426.31548954644029
    Total Energy =                       -426.3154895464401761
  Basis Set: CC-PVTZ
  Basis Set:
  Charge       = 0
  Multiplicity = 1
  Basis Set: CC-PVTZ
  Basis Set:

    Orbital Energies (a.u.)
    -----------------------

    Doubly Occupied:

       1A    -20.536282     2A    -11.317004     3A    -11.229422
       4A    -11.228958     5A    -11.226204     6A    -11.218333
       7A    -11.214744     8A    -11.210029     9A    -11.208740
      10A    -11.202857    11A     -1.396529    12A     -1.091949
      13A     -1.077796    14A     -1.022685    15A     -0.989861
      16A     -0.908854    17A     -0.870305    18A     -0.807176
      19A     -0.797921    20A     -0.727708    21A     -0.672965
      22A     -0.645498    23A     -0.626522    24A     -0.617944
      25A     -0.608767    26A     -0.585518    27A     -0.580756
      28A     -0.572861    29A     -0.537435    30A     -0.534120
      31A     -0.528927    32A     -0.511913    33A     -0.500009
      34A     -0.478858    35A     -0.476657    36A     -0.472309
      37A     -0.465845    38A     -0.463195    39A     -0.457095
      40A     -0.393658

  @DF-RHF Final Energy:  -426.31548982054267

   => Energetics <=

    Nuclear Repulsion Energy =            534.6698544541903857
    One-Electron Energy =               -1637.9422656703886787
    Two-Electron Energy =                 676.9569213956556268
    DFT Exchange-Correlation Energy =       0.0000000000000000
    Empirical Dispersion Energy =           0.0000000000000000
    PCM Polarization Energy =               0.0000000000000000
    EFP Energy =                            0.0000000000000000
    Total Energy =                       -426.3154898205425525
    Molecular point group: c1
  Basis Set: CC-PVTZ
  Basis Set:

  -Total Gradient:
     Atom            X                  Y                   Z
    ------   -----------------  -----------------  -----------------
       1        0.000006566786     0.000007145767    -0.000001992984
       2        0.000001017347    -0.000018673992     0.000016258450
       3        0.000011617295     0.000023411479    -0.000020805747
       4       -0.000005603700     0.000005533693     0.000000523213
       5        0.000003684665    -0.000001010430    -0.000004891375
       6       -0.000025668917    -0.000012860601     0.000025973553
       7       -0.000010042747    -0.000002960051    -0.000001243527
       8        0.000008726884    -0.000006265730     0.000003599883
       9        0.000000919970     0.000033057215    -0.000015576600
      10       -0.000001107090     0.000004172034    -0.000005851384
      11        0.000009631763     0.000004262977     0.000001629997
      12        0.000515583042    -0.000969428305    -0.000366229737
      13       -0.000018051532    -0.000023105016    -0.000000894251
      14       -0.000001068017    -0.000004446227    -0.000000464904
      15       -0.000822413944     0.001625303951     0.000616785123
      16       -0.000000351039     0.000027842364    -0.000022381470
      17        0.000944030132    -0.002114207632    -0.000542422880
      18        0.000003142209     0.000003909506    -0.000007217192
      19       -0.000005656334    -0.000015431335     0.000010414509
      20       -0.000015941939     0.000002897850     0.000011836250
      21       -0.000615969559     0.001434993796     0.000309048768
      22       -0.000000382747    -0.000001703213     0.000001958676
      23        0.000010297732    -0.000001854698    -0.000003995136
      24        0.000002315878    -0.000007122092     0.000000922085
      25        0.000002278215     0.000000672037    -0.000010317874
      26       -0.000001976859    -0.000000485239     0.000006647785
      27        0.000003722011     0.000001569878    -0.000000451809
      28        0.000000700496     0.000004782015    -0.000000861423

  **** Optimization is complete! (in 17 steps) ****
    Final optimized geometry and variables:
    Molecular point group: c1

    Geometry (in Angstrom), charge = 0, multiplicity = 1:

    H            4.694619664172     2.340609821937    -1.220700147301
    C            3.903605947022     1.798362770619    -1.725826371382
    C            3.111687532616     0.939831456805    -0.745621666273
    H            3.262203158000     2.526036341821    -2.211121476860
    H            4.361197013870     1.191695143233    -2.500832546854
    C            1.997496695395     0.147198997890    -1.426266789744
    H            2.686119749219     1.571418115964     0.024131846301
    H            3.787439186487     0.248032448571    -0.247952275114
    C            1.183205153200    -0.721824343694    -0.473696820661
    H            1.331049541920     0.829432915115    -1.941154855948
    H            2.435766721586    -0.495862252136    -2.184104969244
    C            0.193891087136     0.022530406666     0.401571825987
    H            0.611720339012    -1.464391572787    -1.025944942540
    H            1.835236274091    -1.293930202000     0.182021195730
    C           -0.666142911564    -0.822311665149     1.320524210686
    O            0.056125374936     1.202439272741     0.349309560123
    C           -1.990732102028    -1.231786035170     0.627393578412
    H           -0.873274718957    -0.235161830669     2.204506246298
    H           -0.116980887715    -1.703937838178     1.626985029219
    C           -3.214169772883    -0.547446538837     1.233815364539
    H           -1.951470963354    -0.978800790738    -0.427749871764
    H           -2.115063746928    -2.307266415616     0.681687932429
    C           -4.513883310362    -0.925450462085     0.532966763987
    H           -3.073651225908     0.527640849487     1.189629709669
    H           -3.281287914064    -0.806512950239     2.286727772459
    H           -4.490266158897    -0.643517293023    -0.514353490847
    H           -4.691190015765    -1.994870703669     0.583225345992
    H           -5.361954295502    -0.428385669321     0.989110424174

  Mulliken Charges: (a.u.)
   Center  Symbol    Alpha    Beta     Spin     Total
       1     H     0.44874  0.44874  0.00000  0.10253
       2     C     3.15164  3.15164  0.00000 -0.30329
       3     C     3.08351  3.08351  0.00000 -0.16702
       4     H     0.45230  0.45230  0.00000  0.09541
       5     H     0.45744  0.45744  0.00000  0.08512
       6     C     3.08779  3.08779  0.00000 -0.17559
       7     H     0.44324  0.44324  0.00000  0.11353
       8     H     0.45890  0.45890  0.00000  0.08219
       9     C     3.12755  3.12755  0.00000 -0.25509
      10     H     0.44690  0.44690  0.00000  0.10620
      11     H     0.44802  0.44802  0.00000  0.10395
      12     C     2.86651  2.86651  0.00000  0.26698
      13     H     0.43297  0.43297  0.00000  0.13407
      14     H     0.44185  0.44185  0.00000  0.11629
      15     C     3.10710  3.10710  0.00000 -0.21420
      16     O     4.18271  4.18271  0.00000 -0.36541
      17     C     3.09389  3.09389  0.00000 -0.18777
      18     H     0.43945  0.43945  0.00000  0.12110
      19     H     0.43919  0.43919  0.00000  0.12163
      20     C     3.08238  3.08238  0.00000 -0.16476
      21     H     0.45421  0.45421  0.00000  0.09157
      22     H     0.44704  0.44704  0.00000  0.10592
      23     C     3.15120  3.15120  0.00000 -0.30239
      24     H     0.44456  0.44456  0.00000  0.11089
      25     H     0.45377  0.45377  0.00000  0.09247
      26     H     0.45389  0.45389  0.00000  0.09221
      27     H     0.45629  0.45629  0.00000  0.08741
      28     H     0.44697  0.44697  0.00000  0.10606

   Total alpha = 40.00000, Total beta = 40.00000, Total charge = -0.00000

*** Psi4 exiting successfully. Buy a developer a beer!
