                              Psi4 1.0.54 Driver

  ==> Input File <==

--------------------------------------------------------------------------
set {
	reference rhf
	basis cc-pvtz
}

set_num_threads( 4 )
memory 2 gb

molecule MOL {
0 1

O	 -1.510770	 1.240811	 -0.054933
C	 -1.081510	 0.147522	 0.122720
C	 0.327029	 -0.064006	 0.641890
C	 -1.903028	 -1.084121	 -0.174656
C	 1.349460	 -0.017068	 -0.500215
H	 0.399029	 -1.014606	 1.159950
H	 0.538021	 0.726928	 1.350471
C	 1.005232	 1.036627	 -1.546628
H	 2.338537	 0.184051	 -0.098825
H	 1.395196	 -0.995316	 -0.964184
H	 1.735952	 1.041081	 -2.346664
H	 0.983187	 2.030256	 -1.111924
H	 0.032609	 0.845501	 -1.986338
H	 -1.341891	 -1.779207	 -0.789259
H	 -2.820449	 -0.808163	 -0.671328
H	 -2.133314	 -1.593056	 0.755831

	symmetry c1
}
set optking {
	frozen_dihedral = ("
		9 5 3 2
	")
}

ee,wfn = optimize('scf', return_wfn=True)
oeprop( wfn, 'DIPOLE', 'QUADRUPOLE', 'MULLIKEN_CHARGES')
f=open( 'psi4out.xyz', 'w' )
f.write( "16  " )
f.write( str(ee) + "\n" )
f.write( MOL.save_string_xyz() )
f.close()
--------------------------------------------------------------------------

    Molecular point group: c1
  Charge       = 0
  Multiplicity = 1
  Basis Set: CC-PVTZ
  Basis Set:
  @DF-RHF Final Energy:  -270.12282450175530
    Total Energy =                       -270.1228245017553604
    Molecular point group: c1
  Basis Set: CC-PVTZ
  Basis Set:
  Basis Set: CC-PVTZ
  Basis Set:
  @DF-RHF Final Energy:  -270.12482066559539
    Total Energy =                       -270.1248206655957347
  Basis Set: CC-PVTZ
  Basis Set:
  Basis Set: CC-PVTZ
  Basis Set:
  @DF-RHF Final Energy:  -270.12357163393392
    Total Energy =                       -270.1235716339338069
  Basis Set: CC-PVTZ
  Basis Set:
  Basis Set: CC-PVTZ
  Basis Set:
  @DF-RHF Final Energy:  -270.12565769908269
    Total Energy =                       -270.1256576990825806
  Basis Set: CC-PVTZ
  Basis Set:
  @DF-RHF Final Energy:  -270.12606533641042
    Total Energy =                       -270.1260653364104201
  Basis Set: CC-PVTZ
  Basis Set:
  @DF-RHF Final Energy:  -270.12624071594502
    Total Energy =                       -270.1262407159448458
  Basis Set: CC-PVTZ
  Basis Set:
  Basis Set: CC-PVTZ
  Basis Set:
  @DF-RHF Final Energy:  -270.12628534391968
    Total Energy =                       -270.1262853439199034
  Basis Set: CC-PVTZ
  Basis Set:
  Basis Set: CC-PVTZ
  Basis Set:
  @DF-RHF Final Energy:  -270.12629624379383
    Total Energy =                       -270.1262962437937176
  Basis Set: CC-PVTZ
  Basis Set:
  Charge       = 0
  Multiplicity = 1
  Basis Set: CC-PVTZ
  Basis Set:

    Orbital Energies (a.u.)
    -----------------------

    Doubly Occupied:

       1A    -20.537983     2A    -11.319535     3A    -11.233363
       4A    -11.228528     5A    -11.226769     6A    -11.214668
       7A     -1.397905     8A     -1.083127     9A     -1.010106
      10A     -0.951451    11A     -0.835684    12A     -0.728948
      13A     -0.656501    14A     -0.648479    15A     -0.625776
      16A     -0.607335    17A     -0.578667    18A     -0.561366
      19A     -0.536656    20A     -0.509386    21A     -0.505977
      22A     -0.483738    23A     -0.477075    24A     -0.400348

  @DF-RHF Final Energy:  -270.12629713060812

   => Energetics <=

    Nuclear Repulsion Energy =            243.4618584979708658
    One-Electron Energy =                -848.4575700665188833
    Two-Electron Energy =                 334.8694144379398949
    DFT Exchange-Correlation Energy =       0.0000000000000000
    Empirical Dispersion Energy =           0.0000000000000000
    PCM Polarization Energy =               0.0000000000000000
    EFP Energy =                            0.0000000000000000
    Total Energy =                       -270.1262971306081226
    Molecular point group: c1
  Basis Set: CC-PVTZ
  Basis Set:

  -Total Gradient:
     Atom            X                  Y                   Z
    ------   -----------------  -----------------  -----------------
       1       -0.000010384485    -0.000028404602    -0.000008402243
       2        0.000407563388     0.003629631004    -0.000098115564
       3       -0.000703752884    -0.004056703614    -0.000125998222
       4       -0.000027401213    -0.000022872903     0.000091320269
       5        0.001144241023    -0.004147979550     0.001246143978
       6       -0.000008117513     0.000002636002     0.000006877070
       7       -0.000012589317     0.000002075931    -0.000004236213
       8        0.000008806648    -0.000020614198     0.000040139163
       9       -0.000844294523     0.004612694214    -0.001088556928
      10        0.000001603687     0.000007655205    -0.000002139813
      11       -0.000009326643     0.000006020942    -0.000009468563
      12       -0.000001282358    -0.000006515679     0.000001055741
      13        0.000025221521     0.000004937571     0.000006276222
      14        0.000013556784     0.000020289668    -0.000029737130
      15        0.000004893829     0.000010399974    -0.000010030061
      16        0.000011262057    -0.000013249965    -0.000015127707

  **** Optimization is complete! (in 9 steps) ****
    Final optimized geometry and variables:
    Molecular point group: c1

    Geometry (in Angstrom), charge = 0, multiplicity = 1:

    O           -1.320398370940     1.025308083764     0.618356030716
    C           -0.760804462978    -0.016143562698     0.505627578934
    C            0.708249913461    -0.163099922339     0.850295496646
    C           -1.486923208725    -1.252594732626     0.027407608010
    C            1.632811612021    -0.283174770756    -0.377220602828
    H            0.843647969386    -1.028557926740     1.490705124927
    H            0.975017201821     0.718485840315     1.417497892474
    C            1.272737874348     0.654739925299    -1.529061948141
    H            2.633634611733    -0.025501143615    -0.051139897235
    H            1.661034430909    -1.306964500125    -0.732520520385
    H            2.017072530446     0.589034470264    -2.313692521034
    H            1.226820616089     1.684182369728    -1.193875846982
    H            0.311869024976     0.414242332199    -1.968972138998
    H           -0.936065789908    -1.744659803245    -0.765684345737
    H           -2.475258500041    -0.990196589888    -0.317618777213
    H           -1.567673795565    -1.957958665467     0.848240387510

  Mulliken Charges: (a.u.)
   Center  Symbol    Alpha    Beta     Spin     Total
       1     O     4.17642  4.17642  0.00000 -0.35285
       2     C     2.85422  2.85422  0.00000  0.29156
       3     C     3.10700  3.10700  0.00000 -0.21401
       4     C     3.15534  3.15534  0.00000 -0.31068
       5     C     3.10733  3.10733  0.00000 -0.21465
       6     H     0.44324  0.44324  0.00000  0.11353
       7     H     0.43825  0.43825  0.00000  0.12351
       8     C     3.14511  3.14511  0.00000 -0.29021
       9     H     0.44261  0.44261  0.00000  0.11478
      10     H     0.44864  0.44864  0.00000  0.10271
      11     H     0.44804  0.44804  0.00000  0.10392
      12     H     0.44537  0.44537  0.00000  0.10926
      13     H     0.45457  0.45457  0.00000  0.09085
      14     H     0.45081  0.45081  0.00000  0.09839
      15     H     0.43553  0.43553  0.00000  0.12893
      16     H     0.44753  0.44753  0.00000  0.10494

   Total alpha = 24.00000, Total beta = 24.00000, Total charge =  0.00000

*** Psi4 exiting successfully. Buy a developer a beer!
