  ==> Input File <==

--------------------------------------------------------------------------
set {
	reference rhf
	basis 6-31G*
}

set_num_threads( 4 )
memory 2 gb

molecule MOL {
0 1

O	 0.074228	 1.262779	 -0.000085
C	 0.028650	 0.075053	 -0.000277
C	 -1.233602	 -0.752807	 0.000328
O	 1.109162	 -0.694619	 -0.000298
C	 -2.501530	 0.091881	 0.000126
H	 -1.193807	 -1.406641	 -0.865785
H	 -1.193516	 -1.405779	 0.867015
H	 -2.545121	 0.729328	 -0.874513
H	 -3.377167	 -0.548497	 0.000561
H	 -2.544818	 0.730135	 0.874258
C	 2.353562	 -0.055247	 -0.219979
H	 2.365874	 0.430257	 -1.185146
H	 3.096854	 -0.836358	 -0.184668
H	 2.544615	 0.678804	 0.549526

	symmetry c1
}
set optking {
	frozen_dihedral = ("
		11 4 2 3
	")
}

ee = optimize('scf')
oeprop('DIPOLE', 'QUADRUPOLE', 'MULLIKEN_CHARGES')
f=open( 'psi4out.xyz', 'w' )
f.write( "14  " )
f.write( str(ee) + "\n" )
f.write( MOL.save_string_xyz() )
f.close()
--------------------------------------------------------------------------

    Molecular point group: c1
  Charge       = 0
  Multiplicity = 1
  Basis Set: 6-31G*
  Basis Set:
  @DF-RHF Final Energy:  -305.87154657742451
    Total Energy =                       -305.8715465774247946
    Molecular point group: c1
  Basis Set: 6-31G*
  Basis Set:
  Basis Set: 6-31G*
  Basis Set:
  @DF-RHF Final Energy:  -305.87038637095259
    Total Energy =                       -305.8703863709528150
  Basis Set: 6-31G*
  Basis Set:
  Basis Set: 6-31G*
  Basis Set:
  @DF-RHF Final Energy:  -305.87164108580583
    Total Energy =                       -305.8716410858058339
  Basis Set: 6-31G*
  Basis Set:
  Basis Set: 6-31G*
  Basis Set:
  @DF-RHF Final Energy:  -305.87166126533862
    Total Energy =                       -305.8716612653385027
  Basis Set: 6-31G*
  Basis Set:
  Basis Set: 6-31G*
  Basis Set:
  @DF-RHF Final Energy:  -305.87167472394526
    Total Energy =                       -305.8716747239450342
  Basis Set: 6-31G*
  Basis Set:
  Charge       = 0
  Multiplicity = 1
  Basis Set: 6-31G*
  Basis Set:

    Orbital Energies (a.u.)
    -----------------------

    Doubly Occupied:

       1A    -20.604169     2A    -20.546512     3A    -11.373018
       4A    -11.281704     5A    -11.238872     6A    -11.216780
       7A     -1.469985     8A     -1.363822     9A     -1.064442
      10A     -0.980256    11A     -0.878717    12A     -0.768875
      13A     -0.700682    14A     -0.682609    15A     -0.671833
      16A     -0.621232    17A     -0.602709    18A     -0.545299
      19A     -0.537628    20A     -0.521606    21A     -0.513826
      22A     -0.496462    23A     -0.457303    24A     -0.439243

  @DF-RHF Final Energy:  -305.87167536193124

   => Energetics <=

    Nuclear Repulsion Energy =            247.1087660291242400
    One-Electron Energy =                -906.8057122845506228
    Two-Electron Energy =                 353.8252708934949737
    DFT Exchange-Correlation Energy =       0.0000000000000000
    Empirical Dispersion Energy =           0.0000000000000000
    PCM Polarization Energy =               0.0000000000000000
    EFP Energy =                            0.0000000000000000
    Total Energy =                       -305.8716753619314090
    Molecular point group: c1
  Basis Set: 6-31G*
  Basis Set:

  -Total Gradient:
     Atom            X                  Y                   Z
    ------   -----------------  -----------------  -----------------
       1        0.000023136768    -0.000051992622     0.000012772079
       2       -0.000235512940     0.000040265356     0.001991574659
       3        0.000056735280    -0.000134577807    -0.002279290266
       4        0.000344328238     0.000695918210     0.002760336037
       5        0.000009533732    -0.000018649788     0.000005936289
       6        0.000003835974    -0.000011669304     0.000003764494
       7       -0.000001393345    -0.000004483763     0.000002321407
       8       -0.000003434370     0.000001798629    -0.000000468104
       9        0.000001437451     0.000002242280    -0.000003632860
      10        0.000003895349     0.000003207320     0.000002288871
      11       -0.000209474058    -0.000534812583    -0.002527811817
      12        0.000015818787     0.000010420437     0.000006598148
      13       -0.000006193898    -0.000000369301     0.000012639425
      14       -0.000002712973     0.000002702937     0.000012971637

  **** Optimization is complete! (in 6 steps) ****
    Final optimized geometry and variables:
    Molecular point group: c1

    Geometry (in Angstrom), charge = 0, multiplicity = 1:

    O            0.073218686967     1.262596248147    -0.094699534014
    C            0.029197503847     0.080244256073     0.017151545283
    C           -1.231199770069    -0.749937602180     0.038671499701
    O            1.111390315004    -0.683823433978     0.097911400545
    C           -2.500510420200     0.091230031200     0.088516386872
    H           -1.209211705256    -1.375358801120    -0.849500386631
    H           -1.170578375086    -1.430011703447     0.882299835765
    H           -2.560961724214     0.755456328392    -0.764529284472
    H           -3.374869487547    -0.550773097354     0.086392779511
    H           -2.528987710798     0.701695661418     0.983357478413
    C            2.359945691562    -0.055584853378    -0.130085680681
    H            2.378088277156     0.405082750048    -1.107597812449
    H            3.099471867160    -0.838917173306    -0.072068438288
    H            2.552159551920     0.696784386399     0.620954202151

  Mulliken Charges: (a.u.)
   Center  Symbol    Alpha    Beta     Spin     Total
       1     O     4.28463  4.28463  0.00000 -0.56925
       2     C     2.60818  2.60818  0.00000  0.78365
       3     C     3.20514  3.20514  0.00000 -0.41028
       4     O     4.30619  4.30619  0.00000 -0.61237
       5     C     3.23933  3.23933  0.00000 -0.47867
       6     H     0.40022  0.40022  0.00000  0.19956
       7     H     0.40028  0.40028  0.00000  0.19943
       8     H     0.40825  0.40825  0.00000  0.18350
       9     H     0.41779  0.41779  0.00000  0.16442
      10     H     0.41129  0.41129  0.00000  0.17743
      11     C     3.09234  3.09234  0.00000 -0.18469
      12     H     0.41035  0.41035  0.00000  0.17930
      13     H     0.40832  0.40832  0.00000  0.18336
      14     H     0.40769  0.40769  0.00000  0.18461

   Total alpha = 24.00000, Total beta = 24.00000, Total charge =  0.00000
