                              Psi4 1.0.54 Driver

  ==> Input File <==

--------------------------------------------------------------------------
set {
	reference rhf
	basis cc-pvtz
}

set_num_threads( 4 )
memory 2 gb

molecule MOL {
0 1

O	 1.847685	 1.294399	 -0.000190
C	 1.704209	 0.119472	 -0.000093
C	 0.380337	 -0.600947	 -0.000234
O	 2.715427	 -0.733672	 0.000025
C	 -0.824290	 0.329213	 -0.000115
H	 0.371455	 -1.255476	 -0.865660
H	 0.371410	 -1.255787	 0.864952
C	 -2.146151	 -0.432825	 -0.000068
H	 -0.773936	 0.979158	 -0.866319
H	 -0.773838	 0.979034	 0.866186
C	 -3.366283	 0.483552	 0.000557
H	 -2.189286	 -1.084450	 -0.869996
H	 -2.188867	 -1.085083	 0.869399
C	 -4.210604	 0.356025	 1.263993
H	 -3.980616	 0.262083	 -0.867604
H	 -3.040286	 1.513606	 -0.112909
H	 -4.580621	 -0.656451	 1.387337
H	 -5.067476	 1.018950	 1.231830
H	 -3.632974	 0.605349	 2.147970
C	 4.020999	 -0.192556	 0.000019
H	 4.182809	 0.412891	 -0.879449
H	 4.692590	 -1.035653	 0.000152
H	 4.182726	 0.413087	 0.879368

	symmetry c1
}
set optking {
	frozen_dihedral = ("
		15 11 8 12
	")
}

ee,wfn = optimize('scf', return_wfn=True)
oeprop( wfn, 'DIPOLE', 'QUADRUPOLE', 'MULLIKEN_CHARGES')
f=open( 'psi4out.xyz', 'w' )
f.write( "23  " )
f.write( str(ee) + "\n" )
f.write( MOL.save_string_xyz() )
f.close()
--------------------------------------------------------------------------

    Molecular point group: c1
  Charge       = 0
  Multiplicity = 1
  Basis Set: CC-PVTZ
  Basis Set:
  @DF-RHF Final Energy:  -423.12526523166628
    Total Energy =                       -423.1252652316667309
    Molecular point group: c1
  Basis Set: CC-PVTZ
  Basis Set:
  Basis Set: CC-PVTZ
  Basis Set:
  @DF-RHF Final Energy:  -423.12550886729201
    Total Energy =                       -423.1255088672925240
  Basis Set: CC-PVTZ
  Basis Set:
  Basis Set: CC-PVTZ
  Basis Set:
  @DF-RHF Final Energy:  -423.12557977124573
    Total Energy =                       -423.1255797712458389
  Basis Set: CC-PVTZ
  Basis Set:
  Basis Set: CC-PVTZ
  Basis Set:
  @DF-RHF Final Energy:  -423.12556005007667
    Total Energy =                       -423.1255600500767287
  Basis Set: CC-PVTZ
  Basis Set:
  Basis Set: CC-PVTZ
  Basis Set:
  @DF-RHF Final Energy:  -423.12558047009469
    Total Energy =                       -423.1255804700946328
  Basis Set: CC-PVTZ
  Basis Set:
  Charge       = 0
  Multiplicity = 1
  Basis Set: CC-PVTZ
  Basis Set:

    Orbital Energies (a.u.)
    -----------------------

    Doubly Occupied:

       1A    -20.596333     2A    -20.534147     3A    -11.364634
       4A    -11.278497     5A    -11.233606     6A    -11.217733
       7A    -11.215538     8A    -11.214204     9A    -11.207974
      10A     -1.472228    11A     -1.365806    12A     -1.093162
      13A     -1.043068    14A     -0.987696    15A     -0.932200
      16A     -0.846888    17A     -0.794247    18A     -0.769632
      19A     -0.699021    20A     -0.686584    21A     -0.675851
      22A     -0.644710    23A     -0.614057    24A     -0.599476
      25A     -0.581489    26A     -0.565873    27A     -0.542630
      28A     -0.528218    29A     -0.523227    30A     -0.503617
      31A     -0.495244    32A     -0.469000    33A     -0.462705
      34A     -0.461038    35A     -0.455845    36A     -0.438205

  @DF-RHF Final Energy:  -423.12558053638043

   => Energetics <=

    Nuclear Repulsion Energy =            454.3784394894827301
    One-Electron Energy =               -1476.7792812182494799
    Two-Electron Energy =                 599.2752611923864379
    DFT Exchange-Correlation Energy =       0.0000000000000000
    Empirical Dispersion Energy =           0.0000000000000000
    PCM Polarization Energy =               0.0000000000000000
    EFP Energy =                            0.0000000000000000
    Total Energy =                       -423.1255805363803120
    Molecular point group: c1
  Basis Set: CC-PVTZ
  Basis Set:

  -Total Gradient:
     Atom            X                  Y                   Z
    ------   -----------------  -----------------  -----------------
       1       -0.000004125748     0.000005498967     0.000024797474
       2        0.000002744809    -0.000006499359    -0.000075072946
       3        0.000007302058    -0.000001792165     0.000019900729
       4        0.000014960596    -0.000007565881     0.000021850067
       5       -0.000012832367    -0.000008898374     0.000007317729
       6        0.000007662215     0.000002386537    -0.000001401411
       7       -0.000003127906     0.000000438909    -0.000003215775
       8        0.000669022658     0.000957104794    -0.000709865102
       9       -0.000011345166     0.000001554028     0.000003404738
      10       -0.000009668322    -0.000007614073     0.000000498280
      11       -0.000665121521    -0.000955561801     0.000724927085
      12       -0.000454313402    -0.000623954564     0.000484409847
      13        0.000001494313     0.000004045250     0.000005409611
      14        0.000003318877     0.000009292856    -0.000008026067
      15        0.000450229724     0.000623917660    -0.000487064799
      16       -0.000001797451     0.000001211068     0.000007345776
      17        0.000008451006     0.000003632220    -0.000009633462
      18       -0.000008471451     0.000005831877     0.000001880670
      19        0.000004545802    -0.000002864384    -0.000008844077
      20        0.000000105175     0.000001578616     0.000001488247
      21       -0.000000257385    -0.000000264590    -0.000000733014
      22       -0.000000295577    -0.000001574125     0.000000265966
      23        0.000001519059     0.000000096534     0.000000360432

  **** Optimization is complete! (in 6 steps) ****
    Final optimized geometry and variables:
    Molecular point group: c1

    Geometry (in Angstrom), charge = 0, multiplicity = 1:

    O            1.790436600258     1.224881777764    -0.152120132928
    C            1.650641132095     0.049485370196    -0.154163342531
    C            0.328968766053    -0.674910894505    -0.153637148702
    O            2.664586397586    -0.800455068994    -0.156477326835
    C           -0.878126457307     0.251470800337    -0.152585861855
    H            0.321169256095    -1.329212503333    -1.019309512916
    H            0.322573177728    -1.330121158071     0.711319530659
    C           -2.199220271239    -0.513592605992    -0.154247062678
    H           -0.830527922488     0.903038716560    -1.017613010708
    H           -0.831361662079     0.900588121191     0.714873509549
    C           -3.438230858417     0.404621121847    -0.124070107868
    H           -2.238479569642    -1.160330261084    -1.025417984618
    H           -2.222874344686    -1.179080918658     0.704489263583
    C           -4.262597498173     0.275675025118     1.153225326055
    H           -4.071139227273     0.198342946890    -0.980135622311
    H           -3.123134683029     1.437187500459    -0.235166123822
    H           -4.643967900237    -0.733010137780     1.271983345323
    H           -5.109979409830     0.951803228707     1.144495944580
    H           -3.663917546811     0.506406255193     2.028479365591
    C            3.968382784603    -0.255253013641    -0.156688735282
    H            4.127554949372     0.352320833654    -1.035187570953
    H            4.642667077762    -1.096216849098    -0.158739262844
    H            4.129124274995     0.349282593204     0.723619599580

  Mulliken Charges: (a.u.)
   Center  Symbol    Alpha    Beta     Spin     Total
       1     O     4.19698  4.19698  0.00000 -0.39395
       2     C     2.80611  2.80611  0.00000  0.38777
       3     C     3.10294  3.10294  0.00000 -0.20588
       4     O     4.14649  4.14649  0.00000 -0.29298
       5     C     3.08395  3.08395  0.00000 -0.16791
       6     H     0.44016  0.44016  0.00000  0.11968
       7     H     0.43975  0.43975  0.00000  0.12051
       8     C     3.09779  3.09779  0.00000 -0.19558
       9     H     0.44546  0.44546  0.00000  0.10908
      10     H     0.44579  0.44579  0.00000  0.10842
      11     C     3.09033  3.09033  0.00000 -0.18066
      12     H     0.44944  0.44944  0.00000  0.10113
      13     H     0.45574  0.45574  0.00000  0.08852
      14     C     3.14703  3.14703  0.00000 -0.29407
      15     H     0.44916  0.44916  0.00000  0.10168
      16     H     0.45200  0.45200  0.00000  0.09600
      17     H     0.45511  0.45511  0.00000  0.08978
      18     H     0.44907  0.44907  0.00000  0.10186
      19     H     0.45494  0.45494  0.00000  0.09011
      20     C     3.03770  3.03770  0.00000 -0.07540
      21     H     0.45435  0.45435  0.00000  0.09130
      22     H     0.44534  0.44534  0.00000  0.10931
      23     H     0.45436  0.45436  0.00000  0.09128

   Total alpha = 36.00000, Total beta = 36.00000, Total charge = -0.00000

*** Psi4 exiting successfully. Buy a developer a beer!
