  ==> Input File <==

--------------------------------------------------------------------------
set {
	reference rhf
	basis cc-pvtz
}

set_num_threads( 4 )
memory 2 gb

molecule MOL {
0 1

H	 -2.266619	 1.169943	 0.000098
O	 -1.438073	 1.611259	 0.000041
C	 -0.408657	 0.734701	 0.000005
C	 -0.545678	 -0.389572	 0.792877
C	 0.739395	 0.940456	 -0.756139
H	 -1.446661	 -0.512038	 1.361351
C	 0.465332	 -1.325795	 0.840952
C	 1.738955	 -0.016540	 -0.688562
C	 0.887383	 2.167856	 -1.620888
H	 0.351944	 -2.196128	 1.458726
C	 1.616149	 -1.144027	 0.098652
H	 2.632534	 0.127869	 -1.267034
H	 0.843284	 3.081573	 -1.034803
H	 1.838303	 2.160892	 -2.133864
H	 0.111590	 2.222400	 -2.379502
H	 2.406755	 -1.868085	 0.131101

	symmetry c1
}
set optking {
	frozen_dihedral = ("
		4 3 2 1
	")
}

ee = optimize('scf')
oeprop('DIPOLE', 'QUADRUPOLE', 'MULLIKEN_CHARGES')
f=open( 'psi4out.xyz', 'w' )
f.write( "16  " )
f.write( str(ee) + "\n" )
f.write( MOL.save_string_xyz() )
f.close()
--------------------------------------------------------------------------

    Molecular point group: c1
  Charge       = 0
  Multiplicity = 1
  Basis Set: CC-PVTZ
  Basis Set:
  @DF-RHF Final Energy:  -344.71651903675439
    Total Energy =                       -344.7165190367545620
    Molecular point group: c1
  Basis Set: CC-PVTZ
  Basis Set:
  Basis Set: CC-PVTZ
  Basis Set:
  @DF-RHF Final Energy:  -344.71839162238734
    Total Energy =                       -344.7183916223877418
  Basis Set: CC-PVTZ
  Basis Set:
  Basis Set: CC-PVTZ
  Basis Set:
  @DF-RHF Final Energy:  -344.71853075533551
    Total Energy =                       -344.7185307553355642
  Basis Set: CC-PVTZ
  Basis Set:
  Basis Set: CC-PVTZ
  Basis Set:
  @DF-RHF Final Energy:  -344.71854205470055
    Total Energy =                       -344.7185420547004924
  Basis Set: CC-PVTZ
  Basis Set:
  Basis Set: CC-PVTZ
  Basis Set:
  @DF-RHF Final Energy:  -344.71854493640666
    Total Energy =                       -344.7185449364062606
  Basis Set: CC-PVTZ
  Basis Set:
  Charge       = 0
  Multiplicity = 1
  Basis Set: CC-PVTZ
  Basis Set:

    Orbital Energies (a.u.)
    -----------------------

    Doubly Occupied:

       1A    -20.577755     2A    -11.288023     3A    -11.230070
       4A    -11.228365     5A    -11.225819     6A    -11.223685
       7A    -11.219080     8A    -11.213503     9A     -1.406345
      10A     -1.153050    11A     -1.047351    12A     -1.006419
      13A     -0.932400    14A     -0.843795    15A     -0.803298
      16A     -0.734129    17A     -0.673468    18A     -0.655469
      19A     -0.618447    20A     -0.596842    21A     -0.575900
      22A     -0.562881    23A     -0.543993    24A     -0.537039
      25A     -0.502297    26A     -0.485667    27A     -0.473892
      28A     -0.333450    29A     -0.313381

  @DF-RHF Final Energy:  -344.71854509165922

   => Energetics <=

    Nuclear Repulsion Energy =            350.7694987442677643
    One-Electron Energy =               -1162.9644639604393888
    Two-Electron Energy =                 467.4764201245124013
    DFT Exchange-Correlation Energy =       0.0000000000000000
    Empirical Dispersion Energy =           0.0000000000000000
    PCM Polarization Energy =               0.0000000000000000
    EFP Energy =                            0.0000000000000000
    Total Energy =                       -344.7185450916591662
    Molecular point group: c1
  Basis Set: CC-PVTZ
  Basis Set:

  -Total Gradient:
     Atom            X                  Y                   Z
    ------   -----------------  -----------------  -----------------
       1        0.000016581928    -0.000101277318    -0.002590590724
       2        0.000383856643     0.000669846497     0.004015516145
       3       -0.001269230201    -0.001544157849    -0.002882509964
       4        0.000828313883     0.000978605794     0.001466021432
       5       -0.000010994816    -0.000010463119    -0.000014306316
       6        0.000003546113    -0.000000634671    -0.000002680628
       7        0.000005483755    -0.000005547571     0.000012617460
       8        0.000025920642     0.000018980740     0.000030565962
       9        0.000018700952     0.000000853321     0.000003325480
      10        0.000005411469     0.000000607091    -0.000001844325
      11       -0.000004941448     0.000004472574    -0.000034898914
      12        0.000001626684    -0.000000617182    -0.000005815667
      13       -0.000001936953    -0.000003296290    -0.000000481313
      14        0.000000665518     0.000001569840     0.000000707292
      15       -0.000001169971    -0.000006474339     0.000001491796
      16       -0.000001834196    -0.000002467519     0.000002882286

  **** Optimization is complete! (in 6 steps) ****
    Final optimized geometry and variables:
    Molecular point group: c1

    Geometry (in Angstrom), charge = 0, multiplicity = 1:

    H           -2.574627947252     0.882543717426     0.149346927869
    O           -1.721223596036     1.276546944698     0.137520474557
    C           -0.749725392116     0.325444510206     0.178714811143
    C           -0.876661848602    -0.789819884286     0.981686833219
    C            0.402356048486     0.545742896853    -0.567720743608
    H           -1.767504292563    -0.919986425779     1.568239214190
    C            0.139230083215    -1.726564942340     1.032392669738
    C            1.408787496926    -0.399717053239    -0.489841438730
    C            0.533825502975     1.778794525279    -1.422771499393
    H            0.031187794674    -2.595182598437     1.653325339492
    C            1.287563481158    -1.532798436543     0.295951477602
    H            2.306031807348    -0.248959407871    -1.060689950397
    H            0.476233634628     2.678982811434    -0.822956821939
    H            1.479776033114     1.779107878713    -1.947367871718
    H           -0.263096608189     1.833295106854    -2.154361278652
    H            2.084450091397    -2.250114446924     0.331753161491

  Mulliken Charges: (a.u.)
   Center  Symbol    Alpha    Beta     Spin     Total
       1     H     0.38519  0.38519  0.00000  0.22961
       2     O     4.18274  4.18274  0.00000 -0.36548
       3     C     2.87504  2.87504  0.00000  0.24993
       4     C     3.12523  3.12523  0.00000 -0.25047
       5     C     2.99425  2.99425  0.00000  0.01151
       6     H     0.42964  0.42964  0.00000  0.14071
       7     C     3.07382  3.07382  0.00000 -0.14764
       8     C     3.08652  3.08652  0.00000 -0.17305
       9     C     3.14018  3.14018  0.00000 -0.28036
      10     H     0.42257  0.42257  0.00000  0.15485
      11     C     3.08619  3.08619  0.00000 -0.17238
      12     H     0.42490  0.42490  0.00000  0.15020
      13     H     0.44580  0.44580  0.00000  0.10841
      14     H     0.45402  0.45402  0.00000  0.09195
      15     H     0.44929  0.44929  0.00000  0.10143
      16     H     0.42462  0.42462  0.00000  0.15076

   Total alpha = 29.00000, Total beta = 29.00000, Total charge =  0.00000
