  ==> Input File <==

--------------------------------------------------------------------------
set {
	reference rhf
	basis 6-31G*
}

set_num_threads( 1 )
memory 2 gb

molecule MOL {
0 1

H	 -2.857373	 -3.124370	 -0.043835
O	 -2.691835	 -2.216950	 -0.256178
C	 -1.408768	 -1.854965	 0.185747
C	 -1.177863	 -0.397191	 -0.171080
H	 -1.321123	 -1.993746	 1.262485
H	 -0.650836	 -2.478822	 -0.286144
C	 0.198102	 0.111031	 0.262842
H	 -1.960096	 0.196628	 0.293914
H	 -1.297605	 -0.285004	 -1.245116
C	 1.331804	 -0.827780	 -0.158768
H	 0.361943	 1.100838	 -0.156218
H	 0.217265	 0.229072	 1.345532
C	 2.723619	 -0.410569	 0.329459
H	 1.342964	 -0.912588	 -1.244120
H	 1.116806	 -1.824343	 0.220779
C	 3.243875	 0.895854	 -0.272975
H	 3.424222	 -1.207124	 0.091250
H	 2.714788	 -0.329854	 1.414619
H	 3.251977	 0.848779	 -1.358681
H	 2.637085	 1.747371	 0.016682
H	 4.259473	 1.094070	 0.055697

	symmetry c1
}
set optking {
	frozen_dihedral = ("
		2 3 4 8,
		4 7 10 14,
		16 13 10 14,
		1 2 3 5
	")
}

ee = energy('scf')
oeprop('DIPOLE', 'QUADRUPOLE', 'MULLIKEN_CHARGES')
f=open( 'psi4out.xyz', 'w' )
f.write( "21  " )
f.write( str(ee) + "\n" )
f.write( MOL.save_string_xyz() )
f.close()
--------------------------------------------------------------------------

    Molecular point group: c1

    Geometry (in Angstrom), charge = 0, multiplicity = 1:

       Center              X                  Y                   Z               Mass
    ------------   -----------------  -----------------  -----------------  -----------------
           H         -3.123776593188    -2.416695193197    -0.027918647368     1.007825032070
           O         -2.958238593188    -1.509275193197    -0.240261647368    15.994914619560
           C         -1.675171593188    -1.147290193197     0.201663352632    12.000000000000
           C         -1.444266593188     0.310483806803    -0.155163647368    12.000000000000
           H         -1.587526593188    -1.286071193197     1.278401352632     1.007825032070
           H         -0.917239593188    -1.771147193197    -0.270227647368     1.007825032070
           C         -0.068301593188     0.818705806803     0.278758352632    12.000000000000
           H         -2.226499593188     0.904302806803     0.309830352632     1.007825032070
           H         -1.564008593188     0.422670806803    -1.229199647368     1.007825032070
           C          1.065400406812    -0.120105193197    -0.142851647368    12.000000000000
           H          0.095539406812     1.808512806803    -0.140301647368     1.007825032070
           H         -0.049138593188     0.936746806803     1.361448352632     1.007825032070
           C          2.457215406812     0.297105806803     0.345375352632    12.000000000000
           H          1.076560406812    -0.204913193197    -1.228203647368     1.007825032070
           H          0.850402406812    -1.116668193197     0.236695352632     1.007825032070
           C          2.977471406812     1.603528806803    -0.257058647368    12.000000000000
           H          3.157818406812    -0.499449193197     0.107166352632     1.007825032070
           H          2.448384406812     0.377820806803     1.430535352632     1.007825032070
           H          2.985573406812     1.556453806803    -1.342764647368     1.007825032070
           H          2.370681406812     2.455045806803     0.032598352632     1.007825032070
           H          3.993069406812     1.801744806803     0.071613352632     1.007825032070

  Charge       = 0
  Multiplicity = 1
  Basis Set: 6-31G*
  Basis Set:

    Orbital Energies (a.u.)
    -----------------------

    Doubly Occupied:

       1A    -20.551035     2A    -11.265556     3A    -11.216368
       4A    -11.215636     5A    -11.214648     6A    -11.210585
       7A    -11.208700     8A     -1.357904     9A     -1.089395
      10A     -1.032523    11A     -0.949167    12A     -0.886008
      13A     -0.814004    14A     -0.768243    15A     -0.696539
      16A     -0.650210    17A     -0.632664    18A     -0.609261
      19A     -0.579688    20A     -0.573602    21A     -0.534070
      22A     -0.529016    23A     -0.513741    24A     -0.488334
      25A     -0.482521    26A     -0.460442    27A     -0.451960
      28A     -0.444435    29A     -0.428348

  @DF-RHF Final Energy:  -310.20759398560352

   => Energetics <=

    Nuclear Repulsion Energy =            318.1713112327814201
    One-Electron Energy =               -1051.0486660317646965
    Two-Electron Energy =                 422.6697608133795825
    DFT Exchange-Correlation Energy =       0.0000000000000000
    Empirical Dispersion Energy =           0.0000000000000000
    PCM Polarization Energy =               0.0000000000000000
    EFP Energy =                            0.0000000000000000
    Total Energy =                       -310.2075939856037508

  Mulliken Charges: (a.u.)
   Center  Symbol    Alpha    Beta     Spin     Total
       1     H     0.28143  0.28143  0.00000  0.43714
       2     O     4.37329  4.37329  0.00000 -0.74658
       3     C     2.99321  2.99321  0.00000  0.01358
       4     C     3.15912  3.15912  0.00000 -0.31824
       5     H     0.43343  0.43343  0.00000  0.13314
       6     H     0.42904  0.42904  0.00000  0.14191
       7     C     3.16149  3.16149  0.00000 -0.32298
       8     H     0.41267  0.41267  0.00000  0.17466
       9     H     0.41493  0.41493  0.00000  0.17015
      10     C     3.16012  3.16012  0.00000 -0.32023
      11     H     0.41635  0.41635  0.00000  0.16730
      12     H     0.42347  0.42347  0.00000  0.15306
      13     C     3.15064  3.15064  0.00000 -0.30128
      14     H     0.42250  0.42250  0.00000  0.15500
      15     H     0.42115  0.42115  0.00000  0.15770
      16     C     3.24156  3.24156  0.00000 -0.48312
      17     H     0.42128  0.42128  0.00000  0.15743
      18     H     0.42351  0.42351  0.00000  0.15299
      19     H     0.42194  0.42194  0.00000  0.15612
      20     H     0.41976  0.41976  0.00000  0.16048
      21     H     0.41911  0.41911  0.00000  0.16178

   Total alpha = 29.00000, Total beta = 29.00000, Total charge =  0.00000
