  ==> Input File <==

--------------------------------------------------------------------------
set {
	reference rhf
	basis 6-31G*
}

set_num_threads( 4 )
memory 2 gb

molecule MOL {
0 1

H	 2.591676	 2.013956	 0.335017
O	 3.341076	 1.666752	 -0.126416
C	 3.569581	 0.339145	 0.272707
C	 2.539767	 -0.640285	 -0.279495
H	 4.553106	 0.084646	 -0.100901
H	 3.608576	 0.269204	 1.359154
C	 1.115811	 -0.397273	 0.226630
H	 2.556196	 -0.582511	 -1.364741
H	 2.852081	 -1.648031	 -0.010655
C	 0.115918	 -1.429151	 -0.302766
H	 0.797950	 0.599468	 -0.066350
H	 1.109961	 -0.420744	 1.316472
C	 0.413244	 -1.948728	 -1.714140
H	 0.069307	 -2.269419	 0.387615
H	 -0.875852	 -0.981835	 -0.302470
C	 1.693475	 -2.779376	 -1.838683
H	 -0.428042	 -2.557795	 -2.038319
H	 0.460354	 -1.107663	 -2.404233
C	 1.891659	 -3.362753	 -3.239337
H	 1.666806	 -3.591045	 -1.113015
H	 2.559466	 -2.172576	 -1.585396
C	 3.172137	 -4.187043	 -3.368130
H	 1.035847	 -3.983840	 -3.494923
H	 1.908827	 -2.553874	 -3.966871
H	 3.171003	 -5.023923	 -2.675415
H	 3.283009	 -4.588187	 -4.370840
H	 4.050259	 -3.584000	 -3.154580

	symmetry c1
}
set optking {
	frozen_dihedral = ("
		14 10 7 4
	")
}

ee = optimize('scf')
oeprop('DIPOLE', 'QUADRUPOLE', 'MULLIKEN_CHARGES')
f=open( 'psi4out.xyz', 'w' )
f.write( "27  " )
f.write( str(ee) + "\n" )
f.write( MOL.save_string_xyz() )
f.close()
--------------------------------------------------------------------------

    Molecular point group: c1
  Charge       = 0
  Multiplicity = 1
  Basis Set: 6-31G*
  Basis Set:
  @DF-RHF Final Energy:  -388.24932519920674
    Total Energy =                       -388.2493251992068508
    Molecular point group: c1
  Basis Set: 6-31G*
  Basis Set:
  Basis Set: 6-31G*
  Basis Set:
  @DF-RHF Final Energy:  -388.26695077214515
    Total Energy =                       -388.2669507721449236
  Basis Set: 6-31G*
  Basis Set:
  Basis Set: 6-31G*
  Basis Set:
  @DF-RHF Final Energy:  -388.27149709868684
    Total Energy =                       -388.2714970986866092
  Basis Set: 6-31G*
  Basis Set:
  Basis Set: 6-31G*
  Basis Set:
  @DF-RHF Final Energy:  -388.27309089169546
    Total Energy =                       -388.2730908916953467
  Basis Set: 6-31G*
  Basis Set:
  @DF-RHF Final Energy:  -388.27371904554769
    Total Energy =                       -388.2737190455472955
  @DF-RHF Final Energy:  -388.27380294477456
    Total Energy =                       -388.2738029447749568
  @DF-RHF Final Energy:  -388.27379792597924
    Total Energy =                       -388.2737979259799204
  @DF-RHF Final Energy:  -388.27382464445827
    Total Energy =                       -388.2738246444578181
  Basis Set: 6-31G*
  Basis Set:
  @DF-RHF Final Energy:  -388.27383919589198
    Total Energy =                       -388.2738391958923785
  Basis Set: 6-31G*
  Basis Set:
  Basis Set: 6-31G*
  Basis Set:
  @DF-RHF Final Energy:  -388.27383785191518
    Total Energy =                       -388.2738378519156868
  Basis Set: 6-31G*
  Basis Set:
  Basis Set: 6-31G*
  Basis Set:
  @DF-RHF Final Energy:  -388.27384141334159
    Total Energy =                       -388.2738414133415290
  Basis Set: 6-31G*
  Basis Set:
  Charge       = 0
  Multiplicity = 1
  Basis Set: 6-31G*
  Basis Set:

    Orbital Energies (a.u.)
    -----------------------

    Doubly Occupied:

       1A    -20.552544     2A    -11.267312     3A    -11.221124
       4A    -11.217698     5A    -11.215029     6A    -11.214808
       7A    -11.214250     8A    -11.212023     9A    -11.208079
      10A     -1.359301    11A     -1.092306    12A     -1.058760
      13A     -1.008939    14A     -0.951700    15A     -0.886400
      16A     -0.832195    17A     -0.792985    18A     -0.770406
      19A     -0.696242    20A     -0.647691    21A     -0.636855
      22A     -0.613175    23A     -0.604555    24A     -0.586215
      25A     -0.566583    26A     -0.552829    27A     -0.550764
      28A     -0.518509    29A     -0.516124    30A     -0.496958
      31A     -0.482234    32A     -0.472234    33A     -0.466026
      34A     -0.455992    35A     -0.454184    36A     -0.434539
      37A     -0.423095

  @DF-RHF Final Energy:  -388.27384141448380

   => Energetics <=

    Nuclear Repulsion Energy =            468.6230172809338796
    One-Electron Energy =               -1455.2923816558779890
    Two-Electron Energy =                 598.3955229604600845
    DFT Exchange-Correlation Energy =       0.0000000000000000
    Empirical Dispersion Energy =           0.0000000000000000
    PCM Polarization Energy =               0.0000000000000000
    EFP Energy =                            0.0000000000000000
    Total Energy =                       -388.2738414144839680
    Molecular point group: c1
  Basis Set: 6-31G*
  Basis Set:

  -Total Gradient:
     Atom            X                  Y                   Z
    ------   -----------------  -----------------  -----------------
       1        0.000005682580    -0.000005669512     0.000002866203
       2        0.000012298907     0.000001272462    -0.000010258304
       3       -0.000018593576     0.000002926004     0.000014912201
       4       -0.001042282340     0.002626454652    -0.003613258905
       5       -0.000005395280     0.000010112101    -0.000004278926
       6        0.000005271647    -0.000002844027     0.000001856788
       7        0.000364814149    -0.003331573462     0.005978707312
       8       -0.000001122932    -0.000001654632    -0.000005320400
       9        0.000000731715     0.000000829829     0.000001101617
      10        0.005511548596    -0.001465838605    -0.005348540335
      11       -0.000002398692    -0.000003179243     0.000000821170
      12        0.000001347742    -0.000000636446     0.000000669086
      13        0.000000395300     0.000009606030    -0.000001676890
      14       -0.004835383600     0.002161647934     0.002979723740
      15        0.000000315215    -0.000000840967     0.000000206308
      16        0.000008028665     0.000004096468    -0.000000686211
      17        0.000005529321     0.000001206182    -0.000004495583
      18        0.000002074755     0.000003398656     0.000000596998
      19       -0.000012099129    -0.000008776794     0.000005615396
      20       -0.000006026358     0.000003789634     0.000001914314
      21        0.000000235799    -0.000007168910     0.000000168724
      22        0.000010048308     0.000006558274    -0.000001169708
      23       -0.000001888925    -0.000005134035     0.000000307037
      24       -0.000006527109    -0.000000358005     0.000000219354
      25       -0.000002954637     0.000001616950    -0.000003255427
      26        0.000003335370     0.000003305773    -0.000000120293
      27        0.000003014508    -0.000003146318     0.000003374733

  **** Optimization is complete! (in 12 steps) ****
    Final optimized geometry and variables:
    Molecular point group: c1

    Geometry (in Angstrom), charge = 0, multiplicity = 1:

    H            0.175969416560     3.602368361119     1.605593680131
    O            1.009838754129     3.406009904668     1.204385279947
    C            1.460934707710     2.147967412491     1.637836630246
    C            0.703640147433     0.983799605075     1.005259853257
    H            2.504894155862     2.097632182354     1.356139252513
    H            1.415873385307     2.079900767966     2.724089719054
    C           -0.774701142798     0.942508973943     1.402194969299
    H            0.801767456751     1.062324823352    -0.072115925181
    H            1.198665261812     0.063356162514     1.308126698783
    C           -1.641238477823    -0.195555360384     0.820574640565
    H           -1.222015189480     1.883204888301     1.087159070921
    H           -0.856815844052     0.915441946391     2.486990030440
    C           -1.386433945428    -0.627997696355    -0.632280437015
    H           -1.615713245201    -1.055791091019     1.486459273139
    H           -2.670003156497     0.151727573377     0.884630100381
    C           -0.328481009230    -1.720301040800    -0.819260940900
    H           -2.322630218565    -1.003318917425    -1.038954103359
    H           -1.131447561606     0.241126841775    -1.235195662460
    C           -0.156463107321    -2.135315163394    -2.282000852835
    H           -0.615862027580    -2.591127946122    -0.232040376634
    H            0.630793464723    -1.395249622119    -0.429141429099
    C            0.881264468464    -3.241310242506    -2.471142617562
    H           -1.113858445391    -2.467842309327    -2.677773057944
    H            0.131261469218    -1.266932530034    -2.870975468418
    H            0.604212139721    -4.136984787199    -1.922186024819
    H            0.981216732258    -3.512788135428    -3.517538010019
    H            1.858888491250    -2.926810776872    -2.116650607393

  Mulliken Charges: (a.u.)
   Center  Symbol    Alpha    Beta     Spin     Total
       1     H     0.27963  0.27963  0.00000  0.44073
       2     O     4.37106  4.37106  0.00000 -0.74212
       3     C     2.99723  2.99723  0.00000  0.00553
       4     C     3.16427  3.16427  0.00000 -0.32854
       5     H     0.41434  0.41434  0.00000  0.17132
       6     H     0.43200  0.43200  0.00000  0.13601
       7     C     3.16156  3.16156  0.00000 -0.32311
       8     H     0.41308  0.41308  0.00000  0.17384
       9     H     0.42374  0.42374  0.00000  0.15251
      10     C     3.15498  3.15498  0.00000 -0.30995
      11     H     0.42649  0.42649  0.00000  0.14702
      12     H     0.42289  0.42289  0.00000  0.15422
      13     C     3.15850  3.15850  0.00000 -0.31700
      14     H     0.42164  0.42164  0.00000  0.15671
      15     H     0.42009  0.42009  0.00000  0.15981
      16     C     3.15248  3.15248  0.00000 -0.30496
      17     H     0.42079  0.42079  0.00000  0.15841
      18     H     0.42010  0.42010  0.00000  0.15980
      19     C     3.15203  3.15203  0.00000 -0.30405
      20     H     0.42464  0.42464  0.00000  0.15072
      21     H     0.41994  0.41994  0.00000  0.16013
      22     C     3.23917  3.23917  0.00000 -0.47834
      23     H     0.42333  0.42333  0.00000  0.15335
      24     H     0.42269  0.42269  0.00000  0.15462
      25     H     0.42209  0.42209  0.00000  0.15583
      26     H     0.41928  0.41928  0.00000  0.16143
      27     H     0.42197  0.42197  0.00000  0.15607

   Total alpha = 37.00000, Total beta = 37.00000, Total charge = -0.00000
