  ==> Input File <==

--------------------------------------------------------------------------
set {
	reference rhf
	basis 6-31G*
}

set_num_threads( 1 )
memory 2 gb

molecule MOL {
0 1

O	 3.225979	 0.970355	 -0.599647
C	 2.701189	 0.057885	 -0.047330
C	 1.245376	 -0.013843	 0.345420
O	 3.347903	 -1.046386	 0.304773
C	 0.455112	 1.231400	 -0.050772
H	 0.838542	 -0.913825	 -0.103701
H	 1.208210	 -0.175333	 1.419774
C	 -0.998893	 1.219485	 0.433193
H	 0.482531	 1.345121	 -1.130325
H	 0.957290	 2.103070	 0.354729
C	 -2.048174	 1.123147	 -0.678041
H	 -1.173488	 2.132569	 0.997567
H	 -1.140500	 0.399373	 1.135598
C	 -3.481712	 1.225732	 -0.153211
H	 -1.873715	 1.915496	 -1.404378
H	 -1.937996	 0.184918	 -1.217076
C	 -4.538923	 1.125473	 -1.254294
H	 -3.604216	 2.168879	 0.376602
H	 -3.653422	 0.440236	 0.581098
C	 -5.967628	 1.232667	 -0.722307
H	 -4.368200	 1.909071	 -1.989461
H	 -4.420853	 0.181457	 -1.782190
H	 -6.693694	 1.158055	 -1.525966
H	 -6.128227	 2.181752	 -0.218679
H	 -6.180977	 0.441163	 -0.009371
C	 4.728119	 -1.109107	 -0.004993
H	 4.882018	 -1.033965	 -1.071845
H	 5.068212	 -2.067527	 0.355250
H	 5.265056	 -0.311663	 0.488280

	symmetry c1
}
set optking {
	frozen_dihedral = ("
		21 17 14 11,
		17 14 11 15,
		15 11 8 5,
		6 3 5 9,
		2 4 26 27,
		1 2 4 26,
		6 3 2 1
	")
}

ee = energy('scf')
oeprop('DIPOLE', 'QUADRUPOLE', 'MULLIKEN_CHARGES')
f=open( 'psi4out.xyz', 'w' )
f.write( "29  " )
f.write( str(ee) + "\n" )
f.write( MOL.save_string_xyz() )
f.close()
--------------------------------------------------------------------------

    Molecular point group: c1

    Geometry (in Angstrom), charge = 0, multiplicity = 1:

       Center              X                  Y                   Z               Mass
    ------------   -----------------  -----------------  -----------------  -----------------
           O          3.304186537006     0.438825213316    -0.377768986309    15.994914619560
           C          2.779396537006    -0.473644786684     0.174548013691    12.000000000000
           C          1.323583537006    -0.545372786684     0.567298013691    12.000000000000
           O          3.426110537006    -1.577915786684     0.526651013691    15.994914619560
           C          0.533319537006     0.699870213316     0.171106013691    12.000000000000
           H          0.916749537006    -1.445354786684     0.118177013691     1.007825032070
           H          1.286417537006    -0.706862786684     1.641652013691     1.007825032070
           C         -0.920685462994     0.687955213316     0.655071013691    12.000000000000
           H          0.560738537006     0.813591213316    -0.908446986309     1.007825032070
           H          1.035497537006     1.571540213316     0.576607013691     1.007825032070
           C         -1.969966462994     0.591617213316    -0.456162986309    12.000000000000
           H         -1.095280462994     1.601039213316     1.219445013691     1.007825032070
           H         -1.062292462994    -0.132156786684     1.357476013691     1.007825032070
           C         -3.403504462994     0.694202213316     0.068667013691    12.000000000000
           H         -1.795507462994     1.383966213316    -1.182499986309     1.007825032070
           H         -1.859788462994    -0.346611786684    -0.995197986309     1.007825032070
           C         -4.460715462994     0.593943213316    -1.032415986309    12.000000000000
           H         -3.526008462994     1.637349213316     0.598480013691     1.007825032070
           H         -3.575214462994    -0.091293786684     0.802976013691     1.007825032070
           C         -5.889420462994     0.701137213316    -0.500428986309    12.000000000000
           H         -4.289992462994     1.377541213316    -1.767582986309     1.007825032070
           H         -4.342645462994    -0.350072786684    -1.560311986309     1.007825032070
           H         -6.615486462994     0.626525213316    -1.304087986309     1.007825032070
           H         -6.050019462994     1.650222213316     0.003199013691     1.007825032070
           H         -6.102769462994    -0.090366786684     0.212507013691     1.007825032070
           C          4.806326537006    -1.640636786684     0.216885013691    12.000000000000
           H          4.960225537006    -1.565494786684    -0.849966986309     1.007825032070
           H          5.146419537006    -2.599056786684     0.577128013691     1.007825032070
           H          5.343263537006    -0.843192786684     0.710158013691     1.007825032070

  Charge       = 0
  Multiplicity = 1
  Basis Set: 6-31G*
  Basis Set:

    Orbital Energies (a.u.)
    -----------------------

    Doubly Occupied:

       1A    -20.603318     2A    -20.545257     3A    -11.371760
       4A    -11.280662     5A    -11.235643     6A    -11.217575
       7A    -11.216188     8A    -11.215280     9A    -11.215015
      10A    -11.213311    11A    -11.208422    12A     -1.469056
      13A     -1.362502    14A     -1.096566    15A     -1.066957
      16A     -1.019939    17A     -0.977348    18A     -0.927479
      19A     -0.857852    20A     -0.800044    21A     -0.790196
      22A     -0.766586    23A     -0.699703    24A     -0.682143
      25A     -0.672372    26A     -0.649700    27A     -0.628193
      28A     -0.602915    29A     -0.595826    30A     -0.582091
      31A     -0.565945    32A     -0.547455    33A     -0.532742
      34A     -0.529968    35A     -0.514929    36A     -0.505527
      37A     -0.500662    38A     -0.477241    39A     -0.468009
      40A     -0.461815    41A     -0.459084    42A     -0.455493
      43A     -0.442135    44A     -0.432314

  @DF-RHF Final Energy:  -501.03971182056034

   => Energetics <=

    Nuclear Repulsion Energy =            604.3574166343692013
    One-Electron Energy =               -1879.8679765177573699
    Two-Electron Energy =                 774.4708480628264624
    DFT Exchange-Correlation Energy =       0.0000000000000000
    Empirical Dispersion Energy =           0.0000000000000000
    PCM Polarization Energy =               0.0000000000000000
    EFP Energy =                            0.0000000000000000
    Total Energy =                       -501.0397118205617062

  Mulliken Charges: (a.u.)
   Center  Symbol    Alpha    Beta     Spin     Total
       1     O     4.28586  4.28586  0.00000 -0.57171
       2     C     2.60579  2.60579  0.00000  0.78841
       3     C     3.20955  3.20955  0.00000 -0.41910
       4     O     4.30760  4.30760  0.00000 -0.61521
       5     C     3.15572  3.15572  0.00000 -0.31144
       6     H     0.40032  0.40032  0.00000  0.19935
       7     H     0.40039  0.40039  0.00000  0.19922
       8     C     3.15802  3.15802  0.00000 -0.31604
       9     H     0.41030  0.41030  0.00000  0.17941
      10     H     0.40824  0.40824  0.00000  0.18352
      11     C     3.15348  3.15348  0.00000 -0.30695
      12     H     0.41876  0.41876  0.00000  0.16248
      13     H     0.42240  0.42240  0.00000  0.15520
      14     C     3.15155  3.15155  0.00000 -0.30309
      15     H     0.42125  0.42125  0.00000  0.15750
      16     H     0.42410  0.42410  0.00000  0.15181
      17     C     3.15145  3.15145  0.00000 -0.30290
      18     H     0.42354  0.42354  0.00000  0.15292
      19     H     0.42429  0.42429  0.00000  0.15142
      20     C     3.23925  3.23925  0.00000 -0.47850
      21     H     0.42263  0.42263  0.00000  0.15474
      22     H     0.42335  0.42335  0.00000  0.15330
      23     H     0.41929  0.41929  0.00000  0.16143
      24     H     0.42169  0.42169  0.00000  0.15662
      25     H     0.42201  0.42201  0.00000  0.15599
      26     C     3.09242  3.09242  0.00000 -0.18484
      27     H     0.40910  0.40910  0.00000  0.18181
      28     H     0.40853  0.40853  0.00000  0.18294
      29     H     0.40914  0.40914  0.00000  0.18172

   Total alpha = 44.00000, Total beta = 44.00000, Total charge =  0.00000
