  ==> Input File <==

--------------------------------------------------------------------------
set {
	reference rhf
	basis 6-31G*
}

set_num_threads( 4 )
memory 2 gb

molecule MOL {
0 1

H	 -2.499100	 -0.730091	 -0.745082
O	 -2.347518	 -0.290803	 0.079804
C	 -1.184022	 0.487508	 -0.006784
C	 0.062599	 -0.378592	 0.031606
H	 -1.176523	 1.099369	 -0.904519
H	 -1.187323	 1.153111	 0.844927
O	 1.171513	 0.459272	 -0.058250
H	 0.050699	 -1.089204	 -0.797170
H	 0.078739	 -0.954914	 0.954740
C	 1.520181	 1.085528	 1.135641
H	 1.773160	 0.359931	 1.906447
H	 2.384862	 1.704245	 0.939634
H	 0.712553	 1.714086	 1.505024

	symmetry c1
}
set optking {
	frozen_dihedral = ("
		10 7 4 8
	")
}

ee = optimize('scf')
oeprop('DIPOLE', 'QUADRUPOLE', 'MULLIKEN_CHARGES')
f=open( 'psi4out.xyz', 'w' )
f.write( "13  " )
f.write( str(ee) + "\n" )
f.write( MOL.save_string_xyz() )
f.close()
--------------------------------------------------------------------------

    Molecular point group: c1
  Charge       = 0
  Multiplicity = 1
  Basis Set: 6-31G*
  Basis Set:
  @DF-RHF Final Energy:  -267.94558310760186
    Total Energy =                       -267.9455831076018058
    Molecular point group: c1
  Basis Set: 6-31G*
  Basis Set:
  Basis Set: 6-31G*
  Basis Set:
  @DF-RHF Final Energy:  -267.94716719550814
    Total Energy =                       -267.9471671955080296
  Basis Set: 6-31G*
  Basis Set:
  Basis Set: 6-31G*
  Basis Set:
  @DF-RHF Final Energy:  -267.94788206885727
    Total Energy =                       -267.9478820688574388
  Basis Set: 6-31G*
  Basis Set:
  Basis Set: 6-31G*
  Basis Set:
  @DF-RHF Final Energy:  -267.94790681402935
    Total Energy =                       -267.9479068140292384
  Basis Set: 6-31G*
  Basis Set:
  Basis Set: 6-31G*
  Basis Set:
  @DF-RHF Final Energy:  -267.94790902510215
    Total Energy =                       -267.9479090251022626
  Basis Set: 6-31G*
  Basis Set:
  Charge       = 0
  Multiplicity = 1
  Basis Set: 6-31G*
  Basis Set:

    Orbital Energies (a.u.)
    -----------------------

    Doubly Occupied:

       1A    -20.562372     2A    -20.561563     3A    -11.271440
       4A    -11.270747     5A    -11.270067     6A     -1.385858
       7A     -1.366675     8A     -1.013931     9A     -0.927809
      10A     -0.835759    11A     -0.710577    12A     -0.673876
      13A     -0.656404    14A     -0.642789    15A     -0.595153
      16A     -0.570387    17A     -0.531884    18A     -0.515591
      19A     -0.465239    20A     -0.464175    21A     -0.406283

  @DF-RHF Final Energy:  -267.94790922062521

   => Energetics <=

    Nuclear Repulsion Energy =            191.8915907408421901
    One-Electron Energy =                -746.2818408519278819
    Two-Electron Energy =                 286.4423408904604003
    DFT Exchange-Correlation Energy =       0.0000000000000000
    Empirical Dispersion Energy =           0.0000000000000000
    PCM Polarization Energy =               0.0000000000000000
    EFP Energy =                            0.0000000000000000
    Total Energy =                       -267.9479092206253199
    Molecular point group: c1
  Basis Set: 6-31G*
  Basis Set:

  -Total Gradient:
     Atom            X                  Y                   Z
    ------   -----------------  -----------------  -----------------
       1        0.000010092746     0.000008687296     0.000001270697
       2        0.000021278610     0.000002053186     0.000014575246
       3       -0.000001389682     0.000022451082    -0.000010023971
       4        0.000251977710    -0.000375898368     0.000374701076
       5       -0.000002035131     0.000000269532    -0.000002141727
       6       -0.000012916484     0.000004325232     0.000003921233
       7        0.000352492491    -0.000545328243     0.000098232432
       8       -0.000323688656     0.000443258279    -0.000361850552
       9        0.000015875609     0.000001379290    -0.000000604591
      10       -0.000309651631     0.000433451600    -0.000118039028
      11        0.000001455678    -0.000000013834     0.000001368241
      12        0.000001272375     0.000007505196     0.000003887545
      13       -0.000004763624    -0.000002140247    -0.000005296601

  **** Optimization is complete! (in 6 steps) ****
    Final optimized geometry and variables:
    Molecular point group: c1

    Geometry (in Angstrom), charge = 0, multiplicity = 1:

    H           -2.266683792800    -1.074580987473    -1.029368180591
    O           -2.184060121348    -0.621161836369    -0.202048389251
    C           -1.061451251408     0.219715973081    -0.235686021576
    C            0.227911865056    -0.592705339570    -0.184085702340
    H           -1.057577014675     0.848838148465    -1.122091242958
    H           -1.146573842624     0.868178575029     0.625551937251
    O            1.370687874739     0.204709270718    -0.276048346692
    H            0.254623042138    -1.264502252633    -1.035440638371
    H            0.241721082187    -1.200215380408     0.718136955145
    C            1.773272470710     0.829027415347     0.905403682391
    H            1.938005426913     0.102899741656     1.698492091875
    H            2.705129569767     1.336302446611     0.697357879123
    H            1.050922488630     1.562517216814     1.252766811313

  Mulliken Charges: (a.u.)
   Center  Symbol    Alpha    Beta     Spin     Total
       1     H     0.28083  0.28083  0.00000  0.43835
       2     O     4.37011  4.37011  0.00000 -0.74023
       3     C     3.00848  3.00848  0.00000 -0.01697
       4     C     3.00382  3.00382  0.00000 -0.00764
       5     H     0.42236  0.42236  0.00000  0.15529
       6     H     0.41509  0.41509  0.00000  0.16982
       7     O     4.30707  4.30707  0.00000 -0.61413
       8     H     0.42068  0.42068  0.00000  0.15864
       9     H     0.42274  0.42274  0.00000  0.15451
      10     C     3.08276  3.08276  0.00000 -0.16551
      11     H     0.42722  0.42722  0.00000  0.14556
      12     H     0.41029  0.41029  0.00000  0.17943
      13     H     0.42856  0.42856  0.00000  0.14288

   Total alpha = 21.00000, Total beta = 21.00000, Total charge =  0.00000
