  ==> Input File <==

--------------------------------------------------------------------------
set {
	reference rhf
	basis 6-31G*
}

set_num_threads( 1 )
memory 2 gb

molecule MOL {
0 1

H	 -1.747972	 1.071763	 -0.489293
N	 -1.852125	 0.165761	 -0.074816
C	 -0.563778	 -0.502042	 0.037919
H	 -2.467390	 -0.355957	 -0.669809
C	 0.575259	 0.508231	 -0.048326
H	 -0.482092	 -1.204004	 -0.786564
H	 -0.460411	 -1.085169	 0.956626
C	 1.954651	 -0.143624	 0.035137
H	 0.475158	 1.060484	 -0.977307
H	 0.469181	 1.234488	 0.755973
H	 2.103292	 -0.853109	 -0.774172
H	 2.742821	 0.599562	 -0.030094
H	 2.083613	 -0.679371	 0.971560

	symmetry c1
}
set optking {
	frozen_dihedral = ("
		6 3 5 9
	")
}

ee = energy('scf')
oeprop('DIPOLE', 'QUADRUPOLE', 'MULLIKEN_CHARGES')
f=open( 'psi4out.xyz', 'w' )
f.write( "13  " )
f.write( str(ee) + "\n" )
f.write( MOL.save_string_xyz() )
f.close()
--------------------------------------------------------------------------

    Molecular point group: c1

    Geometry (in Angstrom), charge = 0, multiplicity = 1:

       Center              X                  Y                   Z               Mass
    ------------   -----------------  -----------------  -----------------  -----------------
           H         -1.754668656127     1.063993407465    -0.458786323728     1.007825032070
           N         -1.858821656127     0.157991407465    -0.044309323728    14.003074004780
           C         -0.570474656127    -0.509811592535     0.068425676272    12.000000000000
           H         -2.474086656127    -0.363726592535    -0.639302323728     1.007825032070
           C          0.568562343873     0.500461407465    -0.017819323728    12.000000000000
           H         -0.488788656127    -1.211773592535    -0.756057323728     1.007825032070
           H         -0.467107656127    -1.092938592535     0.987132676272     1.007825032070
           C          1.947954343873    -0.151393592535     0.065643676272    12.000000000000
           H          0.468461343873     1.052714407465    -0.946800323728     1.007825032070
           H          0.462484343873     1.226718407465     0.786479676272     1.007825032070
           H          2.096595343873    -0.860878592535    -0.743665323728     1.007825032070
           H          2.736124343873     0.591792407465     0.000412676272     1.007825032070
           H          2.076916343873    -0.687140592535     1.002066676272     1.007825032070

  Charge       = 0
  Multiplicity = 1
  Basis Set: 6-31G*
  Basis Set:

    Orbital Energies (a.u.)
    -----------------------

    Doubly Occupied:

       1A    -15.529433     2A    -11.240060     3A    -11.218825
       4A    -11.212788     5A     -1.177221     6A     -1.037646
       7A     -0.899171     8A     -0.807829     9A     -0.652071
      10A     -0.637246    11A     -0.605000    12A     -0.555019
      13A     -0.548023    14A     -0.497963    15A     -0.481650
      16A     -0.470447    17A     -0.375862

  @DF-RHF Final Energy:  -173.27721719906677

   => Energetics <=

    Nuclear Repulsion Energy =            132.0624859187832669
    One-Electron Energy =                -494.7868679823193361
    Two-Electron Energy =                 189.4471648644692721
    DFT Exchange-Correlation Energy =       0.0000000000000000
    Empirical Dispersion Energy =           0.0000000000000000
    PCM Polarization Energy =               0.0000000000000000
    EFP Energy =                            0.0000000000000000
    Total Energy =                       -173.2772171990667687

  Mulliken Charges: (a.u.)
   Center  Symbol    Alpha    Beta     Spin     Total
       1     H     0.33258  0.33258  0.00000  0.33484
       2     N     3.92781  3.92781  0.00000 -0.85563
       3     C     3.04551  3.04551  0.00000 -0.09102
       4     H     0.33297  0.33297  0.00000  0.33407
       5     C     3.16627  3.16627  0.00000 -0.33254
       6     H     0.43277  0.43277  0.00000  0.13445
       7     H     0.42141  0.42141  0.00000  0.15719
       8     C     3.24260  3.24260  0.00000 -0.48520
       9     H     0.42527  0.42527  0.00000  0.14945
      10     H     0.41530  0.41530  0.00000  0.16940
      11     H     0.42100  0.42100  0.00000  0.15799
      12     H     0.41752  0.41752  0.00000  0.16497
      13     H     0.41899  0.41899  0.00000  0.16203

   Total alpha = 17.00000, Total beta = 17.00000, Total charge =  0.00000
