  ==> Input File <==

--------------------------------------------------------------------------
set {
	reference rhf
	basis 6-31G*
}

set_num_threads( 4 )
memory 2 gb

molecule MOL {
0 1

H	 2.241089	 0.044189	 2.205716
O	 1.544188	 0.590490	 1.871689
C	 1.135793	 0.118896	 0.612333
C	 0.031547	 1.023609	 0.088541
H	 0.758019	 -0.898930	 0.691113
H	 1.975690	 0.099340	 -0.078531
C	 -1.134819	 0.293262	 -0.585751
H	 0.474374	 1.714721	 -0.623187
H	 -0.338529	 1.620940	 0.920081
C	 -1.917817	 -0.639439	 0.339494
H	 -0.758119	 -0.268455	 -1.433105
H	 -1.813832	 1.041889	 -0.986690
H	 -2.777680	 -1.057197	 -0.174994
H	 -1.310268	 -1.471279	 0.680599
H	 -2.283753	 -0.111424	 1.216626

	symmetry c1
}
set optking {
	frozen_dihedral = ("
		2 3 4 8
	")
}

ee = optimize('scf')
oeprop('DIPOLE', 'QUADRUPOLE', 'MULLIKEN_CHARGES')
f=open( 'psi4out.xyz', 'w' )
f.write( "15  " )
f.write( str(ee) + "\n" )
f.write( MOL.save_string_xyz() )
f.close()
--------------------------------------------------------------------------

    Molecular point group: c1
  Charge       = 0
  Multiplicity = 1
  Basis Set: 6-31G*
  Basis Set:
  @DF-RHF Final Energy:  -232.13786015619746
    Total Energy =                       -232.1378601561976325
    Molecular point group: c1
  Basis Set: 6-31G*
  Basis Set:
  Basis Set: 6-31G*
  Basis Set:
  @DF-RHF Final Energy:  -232.13846578520153
    Total Energy =                       -232.1384657852015039
  Basis Set: 6-31G*
  Basis Set:
  Basis Set: 6-31G*
  Basis Set:
  @DF-RHF Final Energy:  -232.13878392424476
    Total Energy =                       -232.1387839242449331
  Basis Set: 6-31G*
  Basis Set:
  Basis Set: 6-31G*
  Basis Set:
  @DF-RHF Final Energy:  -232.13880266118372
    Total Energy =                       -232.1388026611837176
  Basis Set: 6-31G*
  Basis Set:
  Basis Set: 6-31G*
  Basis Set:
  @DF-RHF Final Energy:  -232.13883687827118
    Total Energy =                       -232.1388368782712632
  Basis Set: 6-31G*
  Basis Set:
  Charge       = 0
  Multiplicity = 1
  Basis Set: 6-31G*
  Basis Set:

    Orbital Energies (a.u.)
    -----------------------

    Doubly Occupied:

       1A    -20.551545     2A    -11.267320     3A    -11.217512
       4A    -11.211279     5A    -11.207925     6A     -1.357714
       7A     -1.067428     8A     -0.968552     9A     -0.866870
      10A     -0.785869    11A     -0.695655    12A     -0.649255
      13A     -0.616986    14A     -0.574437    15A     -0.553700
      16A     -0.543445    17A     -0.502353    18A     -0.475455
      19A     -0.471780    20A     -0.456493    21A     -0.428970

  @DF-RHF Final Energy:  -232.13884253720190

   => Energetics <=

    Nuclear Repulsion Energy =            188.7105333663013482
    One-Electron Energy =                -688.7576624671979744
    Two-Electron Energy =                 267.9082865636946167
    DFT Exchange-Correlation Energy =       0.0000000000000000
    Empirical Dispersion Energy =           0.0000000000000000
    PCM Polarization Energy =               0.0000000000000000
    EFP Energy =                            0.0000000000000000
    Total Energy =                       -232.1388425372020379
    Molecular point group: c1
  Basis Set: 6-31G*
  Basis Set:

  -Total Gradient:
     Atom            X                  Y                   Z
    ------   -----------------  -----------------  -----------------
       1       -0.000003029497    -0.000004175008    -0.000010021336
       2       -0.001552469608    -0.001499177759     0.000990504504
       3        0.001881409468     0.001512776499    -0.001860982477
       4        0.000172064480     0.001887018940     0.003277742065
       5       -0.000019037385     0.000006309059    -0.000010140812
       6       -0.000007771292     0.000010689162     0.000010644446
       7        0.000044870223    -0.000027550599     0.000017890999
       8       -0.000498004951    -0.001881516315    -0.002423499635
       9        0.000004299149    -0.000002265519     0.000015267246
      10       -0.000036751069     0.000021376209    -0.000006097602
      11        0.000004092594    -0.000007824242    -0.000014701692
      12        0.000002278755    -0.000005334442     0.000009588961
      13       -0.000003318510    -0.000000700095     0.000002067431
      14        0.000015999456     0.000007117499    -0.000005490463
      15       -0.000004631815    -0.000016743391     0.000007228364

  **** Optimization is complete! (in 6 steps) ****
    Final optimized geometry and variables:
    Molecular point group: c1

    Geometry (in Angstrom), charge = 0, multiplicity = 1:

    H            2.353914856491    -0.242083786644     1.619163401682
    O            1.601478733591     0.267945889789     1.354483321977
    C            1.191220444989    -0.130749031787     0.069693534848
    C            0.030745029410     0.765113613725    -0.375420136457
    H            0.880938202216    -1.173002243683     0.090287460847
    H            2.016220883113    -0.057889677515    -0.635646900279
    C           -1.093864186485     0.009394182535    -1.096289509444
    H            0.407700770734     1.532993055923    -1.044220931957
    H           -0.363327649053     1.264616539275     0.502841977178
    C           -1.955935118947    -0.852444659101    -0.172167341023
    H           -0.669511773546    -0.609895550535    -1.884988596048
    H           -1.734017360121     0.731662950980    -1.595628555881
    H           -2.730783400698    -1.366663111665    -0.732581461553
    H           -1.371889713942    -1.606628367133     0.345567249581
    H           -2.442170193381    -0.240818327460     0.582105792896

  Mulliken Charges: (a.u.)
   Center  Symbol    Alpha    Beta     Spin     Total
       1     H     0.28205  0.28205  0.00000  0.43590
       2     O     4.37109  4.37109  0.00000 -0.74219
       3     C     2.99489  2.99489  0.00000  0.01022
       4     C     3.16495  3.16495  0.00000 -0.32990
       5     H     0.43010  0.43010  0.00000  0.13979
       6     H     0.43044  0.43044  0.00000  0.13911
       7     C     3.16100  3.16100  0.00000 -0.32199
       8     H     0.41785  0.41785  0.00000  0.16429
       9     H     0.40513  0.40513  0.00000  0.18974
      10     C     3.23930  3.23930  0.00000 -0.47860
      11     H     0.42463  0.42463  0.00000  0.15073
      12     H     0.41934  0.41934  0.00000  0.16132
      13     H     0.41977  0.41977  0.00000  0.16046
      14     H     0.42026  0.42026  0.00000  0.15948
      15     H     0.41918  0.41918  0.00000  0.16163

   Total alpha = 21.00000, Total beta = 21.00000, Total charge = -0.00000
