                              Psi4 1.0.54 Driver

  ==> Input File <==

--------------------------------------------------------------------------
set {
	reference rhf
	basis cc-pvtz
}

set_num_threads( 4 )
memory 2 gb

molecule MOL {
0 1

H	 3.273419	 0.176595	 -0.102789
N	 2.433987	 -0.362316	 -0.080024
C	 1.263552	 0.494993	 0.021953
H	 2.497638	 -0.973615	 0.707122
C	 -0.016533	 -0.325589	 -0.026925
H	 1.280915	 1.180773	 -0.818522
H	 1.263064	 1.106893	 0.925038
C	 -1.280353	 0.525521	 0.047747
H	 -0.016686	 -0.912532	 -0.939714
H	 -0.014099	 -1.037598	 0.796369
C	 -1.700533	 1.089769	 -1.305421
H	 -1.120703	 1.344676	 0.743781
H	 -2.093639	 -0.067443	 0.457421
H	 -0.921098	 1.715569	 -1.726829
H	 -2.597720	 1.691847	 -1.218772
H	 -1.903309	 0.294384	 -2.014945

	symmetry c1
}
set optking {
	frozen_dihedral = ("
		12 8 5 9
	")
}

ee,wfn = optimize('scf', return_wfn=True)
oeprop( wfn, 'DIPOLE', 'QUADRUPOLE', 'MULLIKEN_CHARGES')
f=open( 'psi4out.xyz', 'w' )
f.write( "16  " )
f.write( str(ee) + "\n" )
f.write( MOL.save_string_xyz() )
f.close()
--------------------------------------------------------------------------

    Molecular point group: c1
  Charge       = 0
  Multiplicity = 1
  Basis Set: CC-PVTZ
  Basis Set:
  @DF-RHF Final Energy:  -212.39764426614735
    Total Energy =                       -212.3976442661470969
    Molecular point group: c1
  Basis Set: CC-PVTZ
  Basis Set:
  Basis Set: CC-PVTZ
  Basis Set:
  @DF-RHF Final Energy:  -212.39779759174786
    Total Energy =                       -212.3977975917478034
  Basis Set: CC-PVTZ
  Basis Set:
  Basis Set: CC-PVTZ
  Basis Set:
  @DF-RHF Final Energy:  -212.39782299071655
    Total Energy =                       -212.3978229907164632
  Basis Set: CC-PVTZ
  Basis Set:
  Charge       = 0
  Multiplicity = 1
  Basis Set: CC-PVTZ
  Basis Set:

    Orbital Energies (a.u.)
    -----------------------

    Doubly Occupied:

       1A    -15.526544     2A    -11.237947     3A    -11.213077
       4A    -11.208042     5A    -11.205297     6A     -1.178375
       7A     -1.059385     8A     -0.956489     9A     -0.853713
      10A     -0.784759    11A     -0.664374    12A     -0.627784
      13A     -0.615898    14A     -0.592141    15A     -0.548062
      16A     -0.522380    17A     -0.514259    18A     -0.468867
      19A     -0.465839    20A     -0.455059    21A     -0.384179

  @DF-RHF Final Energy:  -212.39782339627672

   => Energetics <=

    Nuclear Repulsion Energy =            188.4843342503843644
    One-Electron Energy =                -659.5993719465731147
    Two-Electron Energy =                 258.7172142999121434
    DFT Exchange-Correlation Energy =       0.0000000000000000
    Empirical Dispersion Energy =           0.0000000000000000
    PCM Polarization Energy =               0.0000000000000000
    EFP Energy =                            0.0000000000000000
    Total Energy =                       -212.3978233962766353
    Molecular point group: c1
  Basis Set: CC-PVTZ
  Basis Set:

  -Total Gradient:
     Atom            X                  Y                   Z
    ------   -----------------  -----------------  -----------------
       1        0.000014765605    -0.000008387648    -0.000001807493
       2        0.000033378465     0.000000811000    -0.000010636339
       3       -0.000021656250    -0.000039479437     0.000000641424
       4        0.000000281554     0.000006935577    -0.000002871178
       5       -0.001128869446    -0.001793378795     0.001011753335
       6        0.000003070195     0.000001005656     0.000000245199
       7       -0.000020338055     0.000015187970     0.000002408181
       8       -0.000764956840    -0.001212487585     0.001835830371
       9        0.001061971403     0.001727121103    -0.001125609900
      10        0.000001740593     0.000008633958     0.000002391497
      11        0.000026495726    -0.000000410717     0.000027364785
      12        0.000799126165     0.001280476915    -0.001747963546
      13       -0.000008657678     0.000003169534    -0.000000543796
      14        0.000005906375     0.000002734027    -0.000009761462
      15       -0.000007335904     0.000010829394     0.000005134476
      16        0.000005078092    -0.000002760952     0.000013424446

  **** Optimization is complete! (in 4 steps) ****
    Final optimized geometry and variables:
    Molecular point group: c1

    Geometry (in Angstrom), charge = 0, multiplicity = 1:

    H            3.100744317609    -0.081552773129     0.142136883649
    N            2.264547814216    -0.625256303437     0.170359074739
    C            1.090321927267     0.223592447741     0.294067855848
    H            2.341292367677    -1.243507923636     0.950949453822
    C           -0.184658540758    -0.610963943836     0.265692347466
    H            1.095023423391     0.914614035950    -0.541231060204
    H            1.097657522490     0.828804301373     1.201590477856
    C           -1.465962114731     0.228032957987     0.312699371952
    H           -0.167047493477    -1.214296744049    -0.635765420813
    H           -0.165630808494    -1.297296137040     1.107954166697
    C           -1.889013731544     0.775980849372    -1.049276153499
    H           -1.326609476055     1.062401632244     0.994843842312
    H           -2.275853832738    -0.370310798850     0.715353600904
    H           -1.117941782504     1.398459671012    -1.489058218955
    H           -2.786281832196     1.378627318410    -0.964326528391
    H           -2.096229084555    -0.030666854177    -1.744151147236

  Mulliken Charges: (a.u.)
   Center  Symbol    Alpha    Beta     Spin     Total
       1     H     0.43014  0.43014  0.00000  0.13973
       2     N     3.68920  3.68920  0.00000 -0.37840
       3     C     3.02487  3.02487  0.00000 -0.04975
       4     H     0.43100  0.43100  0.00000  0.13800
       5     C     3.08718  3.08718  0.00000 -0.17435
       6     H     0.45684  0.45684  0.00000  0.08632
       7     H     0.46863  0.46863  0.00000  0.06275
       8     C     3.09460  3.09460  0.00000 -0.18920
       9     H     0.45120  0.45120  0.00000  0.09759
      10     H     0.45448  0.45448  0.00000  0.09103
      11     C     3.14758  3.14758  0.00000 -0.29517
      12     H     0.45762  0.45762  0.00000  0.08477
      13     H     0.44808  0.44808  0.00000  0.10385
      14     H     0.45555  0.45555  0.00000  0.08890
      15     H     0.44883  0.44883  0.00000  0.10234
      16     H     0.45420  0.45420  0.00000  0.09160

   Total alpha = 21.00000, Total beta = 21.00000, Total charge =  0.00000

*** Psi4 exiting successfully. Buy a developer a beer!
