                              Psi4 1.0.54 Driver

  ==> Input File <==

--------------------------------------------------------------------------
set {
	reference rhf
	basis cc-pvtz
}

set_num_threads( 4 )
memory 2 gb

molecule MOL {
0 1

H	 -2.842260	 2.178746	 0.887048
C	 -2.196523	 1.825681	 1.687831
O	 -0.885058	 1.679542	 1.256273
H	 -2.202847	 2.553618	 2.485926
H	 -2.599811	 0.888284	 2.066686
C	 -0.718530	 0.758693	 0.228682
C	 0.718529	 0.758687	 -0.228709
H	 -0.979341	 -0.242055	 0.572851
H	 -1.361995	 1.001812	 -0.614097
O	 1.401606	 -0.295166	 0.366636
H	 0.748705	 0.673477	 -1.312803
H	 1.176496	 1.708671	 0.046552
C	 2.714315	 -0.441627	 -0.061017
H	 2.765292	 -0.641548	 -1.128869
H	 3.305661	 0.447341	 0.150952
H	 3.143725	 -1.278506	 0.470147

	symmetry c1
}
set optking {
	frozen_dihedral = ("
		3 6 7 11
	")
}

ee,wfn = optimize('scf', return_wfn=True)
oeprop( wfn, 'DIPOLE', 'QUADRUPOLE', 'MULLIKEN_CHARGES')
f=open( 'psi4out.xyz', 'w' )
f.write( "16  " )
f.write( str(ee) + "\n" )
f.write( MOL.save_string_xyz() )
f.close()
--------------------------------------------------------------------------

    Molecular point group: c1
  Charge       = 0
  Multiplicity = 1
  Basis Set: CC-PVTZ
  Basis Set:
  @DF-RHF Final Energy:  -307.09512639738716
    Total Energy =                       -307.0951263973868777
    Molecular point group: c1
  Basis Set: CC-PVTZ
  Basis Set:
  Basis Set: CC-PVTZ
  Basis Set:
  @DF-RHF Final Energy:  -307.09566026331009
    Total Energy =                       -307.0956602633100943
  Basis Set: CC-PVTZ
  Basis Set:
  Basis Set: CC-PVTZ
  Basis Set:
  @DF-RHF Final Energy:  -307.09572939094437
    Total Energy =                       -307.0957293909443706
  Basis Set: CC-PVTZ
  Basis Set:
  Charge       = 0
  Multiplicity = 1
  Basis Set: CC-PVTZ
  Basis Set:

    Orbital Energies (a.u.)
    -----------------------

    Doubly Occupied:

       1A    -20.549984     2A    -20.549476     3A    -11.266944
       4A    -11.266240     5A    -11.262587     6A    -11.262407
       7A     -1.390962     8A     -1.376868     9A     -1.030174
      10A     -0.939035    11A     -0.888972    12A     -0.829004
      13A     -0.685510    14A     -0.682811    15A     -0.659152
      16A     -0.639787    17A     -0.633729    18A     -0.599965
      19A     -0.547040    20A     -0.537317    21A     -0.509717
      22A     -0.481953    23A     -0.466081    24A     -0.425320
      25A     -0.412968

  @DF-RHF Final Energy:  -307.09573257324422

   => Energetics <=

    Nuclear Repulsion Energy =            256.9856305407000150
    One-Electron Energy =                -928.3747091225701524
    Two-Electron Energy =                 364.2933460086260311
    DFT Exchange-Correlation Energy =       0.0000000000000000
    Empirical Dispersion Energy =           0.0000000000000000
    PCM Polarization Energy =               0.0000000000000000
    EFP Energy =                            0.0000000000000000
    Total Energy =                       -307.0957325732440495
    Molecular point group: c1
  Basis Set: CC-PVTZ
  Basis Set:

  -Total Gradient:
     Atom            X                  Y                   Z
    ------   -----------------  -----------------  -----------------
       1       -0.000005979669    -0.000014714470     0.000019498343
       2       -0.000066085703     0.000127382005     0.000057706434
       3       -0.000455024506     0.001718860523    -0.002038469092
       4       -0.000053644790    -0.000010820322     0.000028406781
       5        0.000012800229    -0.000000598097    -0.000001307763
       6        0.000721859357    -0.001553087097     0.002440127812
       7       -0.000378410548    -0.003792497143    -0.000138476908
       8       -0.000002290733     0.000054339276     0.000056020159
       9       -0.000011546128    -0.000020727935    -0.000044204474
      10        0.000036826812     0.000046975021     0.000003352853
      11        0.000123443116     0.003549305899    -0.000437196050
      12        0.000038242481    -0.000054654834     0.000031674799
      13       -0.000041748829    -0.000060871281     0.000013498429
      14        0.000013385393     0.000006718219     0.000005858766
      15        0.000015193232     0.000009646192     0.000004254857
      16        0.000052980290    -0.000005255956    -0.000000744945

  **** Optimization is complete! (in 4 steps) ****
    Final optimized geometry and variables:
    Molecular point group: c1

    Geometry (in Angstrom), charge = 0, multiplicity = 1:

    H           -3.020059579170     1.438707779053     0.448062663833
    C           -2.271699025910     1.179842473941     1.194723598010
    O           -1.009353475773     1.056632061913     0.628880800444
    H           -2.229013199433     1.968974659476     1.931230044958
    H           -2.580185983705     0.259429275380     1.685009207870
    C           -0.917121002396     0.076557336574    -0.357335118677
    C            0.518615248026    -0.031140859555    -0.835260617998
    H           -1.237179130937    -0.889386091998     0.022313812833
    H           -1.564973597443     0.340921902827    -1.191718814777
    O            1.157940898441    -1.082397581113    -0.184834758714
    H            0.546960119916    -0.169998524333    -1.914726901461
    H            1.018733858336     0.910079039731    -0.622475121334
    C            2.509028341511    -1.201651338739    -0.483598510189
    H            2.669062398727    -1.373798261087    -1.546186519812
    H            3.060950676676    -0.310725938488    -0.193088579305
    H            2.896614456323    -2.046378147619     0.067035820801

  Mulliken Charges: (a.u.)
   Center  Symbol    Alpha    Beta     Spin     Total
       1     H     0.47325  0.47325  0.00000  0.05351
       2     C     3.03017  3.03017  0.00000 -0.06035
       3     O     4.17283  4.17283  0.00000 -0.34567
       4     H     0.44650  0.44650  0.00000  0.10700
       5     H     0.47000  0.47000  0.00000  0.06000
       6     C     2.96267  2.96267  0.00000  0.07466
       7     C     2.96223  2.96223  0.00000  0.07554
       8     H     0.46807  0.46807  0.00000  0.06386
       9     H     0.47656  0.47656  0.00000  0.04689
      10     O     4.17267  4.17267  0.00000 -0.34534
      11     H     0.47643  0.47643  0.00000  0.04714
      12     H     0.46886  0.46886  0.00000  0.06227
      13     C     3.03048  3.03048  0.00000 -0.06096
      14     H     0.47285  0.47285  0.00000  0.05431
      15     H     0.46997  0.46997  0.00000  0.06006
      16     H     0.44647  0.44647  0.00000  0.10707

   Total alpha = 25.00000, Total beta = 25.00000, Total charge = -0.00000

*** Psi4 exiting successfully. Buy a developer a beer!
