  ==> Input File <==

--------------------------------------------------------------------------
set {
	reference rhf
	basis 6-31G*
}

set_num_threads( 1 )
memory 2 gb

molecule MOL {
0 1

H	 -2.694352	 -1.761941	 2.998776
C	 -2.573133	 -1.352857	 2.014592
C	 -1.389745	 -1.356421	 1.445750
H	 -3.434218	 -0.947485	 1.517483
O	 -1.180634	 -0.819263	 0.215062
H	 -0.516438	 -1.764004	 1.923670
C	 0.051604	 -1.018856	 -0.387932
C	 1.043764	 0.054862	 -0.001873
H	 -0.017620	 -1.041351	 -1.469781
H	 0.437898	 -1.966374	 -0.042284
F	 2.212596	 -0.199467	 -0.571921
F	 0.652529	 1.252447	 -0.405055
F	 1.230877	 0.110694	 1.300533

	symmetry c1
}
set optking {
	frozen_dihedral = ("
		11 8 7 9,
		6 3 2 1,
		6 3 5 7
	")
}

ee = energy('scf')
oeprop('DIPOLE', 'QUADRUPOLE', 'MULLIKEN_CHARGES')
f=open( 'psi4out.xyz', 'w' )
f.write( "13  " )
f.write( str(ee) + "\n" )
f.write( MOL.save_string_xyz() )
f.close()
--------------------------------------------------------------------------

    Molecular point group: c1

    Geometry (in Angstrom), charge = 0, multiplicity = 1:

       Center              X                  Y                   Z               Mass
    ------------   -----------------  -----------------  -----------------  -----------------
           H         -2.839158058457    -1.423804786972     2.590935489982     1.007825032070
           C         -2.717939058457    -1.014720786972     1.606751489982    12.000000000000
           C         -1.534551058457    -1.018284786972     1.037909489982    12.000000000000
           H         -3.579024058457    -0.609348786972     1.109642489982     1.007825032070
           O         -1.325440058457    -0.481126786972    -0.192778510018    15.994914619560
           H         -0.661244058457    -1.425867786972     1.515829489982     1.007825032070
           C         -0.093202058457    -0.680719786972    -0.795772510018    12.000000000000
           C          0.898957941543     0.392998213028    -0.409713510018    12.000000000000
           H         -0.162426058457    -0.703214786972    -1.877621510018     1.007825032070
           H          0.293091941543    -1.628237786972    -0.450124510018     1.007825032070
           F          2.067789941543     0.138669213028    -0.979761510018    18.998403224000
           F          0.507722941543     1.590583213028    -0.812895510018    18.998403224000
           F          1.086070941543     0.448830213028     0.892692489982    18.998403224000

  Charge       = 0
  Multiplicity = 1
  Basis Set: 6-31G*
  Basis Set:

    Orbital Energies (a.u.)
    -----------------------

    Doubly Occupied:

       1A    -26.347496     2A    -26.345272     3A    -26.338841
       4A    -20.606749     5A    -11.503894     6A    -11.319411
       7A    -11.299844     8A    -11.216756     9A     -1.742815
      10A     -1.643075    11A     -1.636695    12A     -1.437691
      13A     -1.084240    14A     -1.016903    15A     -0.925987
      16A     -0.836382    17A     -0.832487    18A     -0.822771
      19A     -0.790746    20A     -0.725251    21A     -0.711601
      22A     -0.698596    23A     -0.676590    24A     -0.660178
      25A     -0.655460    26A     -0.643728    27A     -0.630543
      28A     -0.591958    29A     -0.561481    30A     -0.525453
      31A     -0.508700    32A     -0.352191

  @DF-RHF Final Energy:  -527.53408153766941

   => Energetics <=

    Nuclear Repulsion Energy =            412.6909745366895663
    One-Electron Energy =               -1549.0704340292663801
    Two-Electron Energy =                 608.8453779549075762
    DFT Exchange-Correlation Energy =       0.0000000000000000
    Empirical Dispersion Energy =           0.0000000000000000
    PCM Polarization Energy =               0.0000000000000000
    EFP Energy =                            0.0000000000000000
    Total Energy =                       -527.5340815376692944

  Mulliken Charges: (a.u.)
   Center  Symbol    Alpha    Beta     Spin     Total
       1     H     0.40678  0.40678  0.00000  0.18644
       2     C     3.23542  3.23542  0.00000 -0.47084
       3     C     2.89685  2.89685  0.00000  0.20630
       4     H     0.40179  0.40179  0.00000  0.19643
       5     O     4.30293  4.30293  0.00000 -0.60586
       6     H     0.40459  0.40459  0.00000  0.19082
       7     C     3.06401  3.06401  0.00000 -0.12802
       8     C     2.45528  2.45528  0.00000  1.08943
       9     H     0.38824  0.38824  0.00000  0.22351
      10     H     0.40717  0.40717  0.00000  0.18567
      11     F     4.68276  4.68276  0.00000 -0.36553
      12     F     4.67717  4.67717  0.00000 -0.35433
      13     F     4.67701  4.67701  0.00000 -0.35402

   Total alpha = 32.00000, Total beta = 32.00000, Total charge =  0.00000
