                              Psi4 1.0.54 Driver

  ==> Input File <==

--------------------------------------------------------------------------
set {
	reference rhf
	basis cc-pvtz
}

set_num_threads( 4 )
memory 2 gb

molecule MOL {
0 1

O	 0.749630	 1.305591	 -0.000460
C	 0.576499	 0.134701	 -0.003900
C	 -0.765656	 -0.550508	 -0.002152
O	 1.564816	 -0.744612	 -0.000631
C	 -1.945526	 0.411052	 0.000603
H	 -0.794329	 -1.203792	 -0.868145
H	 -0.791555	 -1.205429	 0.862701
C	 -3.282915	 -0.321280	 0.002596
H	 -1.880300	 1.059126	 -0.864925
H	 -1.877207	 1.057892	 0.866807
H	 -3.388495	 -0.952755	 -0.873419
H	 -4.107811	 0.380864	 0.004116
H	 -3.385717	 -0.953283	 0.878571
C	 1.518165	 -1.776931	 -0.965075
H	 0.627968	 -2.375234	 -0.840034
H	 2.397252	 -2.378121	 -0.799349
H	 1.529785	 -1.366343	 -1.963736

	symmetry c1
}
set optking {
	frozen_dihedral = ("
		14 4 2 1
	")
}

ee,wfn = optimize('scf', return_wfn=True)
oeprop( wfn, 'DIPOLE', 'QUADRUPOLE', 'MULLIKEN_CHARGES')
f=open( 'psi4out.xyz', 'w' )
f.write( "17  " )
f.write( str(ee) + "\n" )
f.write( MOL.save_string_xyz() )
f.close()
--------------------------------------------------------------------------

    Molecular point group: c1
  Charge       = 0
  Multiplicity = 1
  Basis Set: CC-PVTZ
  Basis Set:
  @DF-RHF Final Energy:  -345.01083766879088
    Total Energy =                       -345.0108376687912823
    Molecular point group: c1
  Basis Set: CC-PVTZ
  Basis Set:
  Basis Set: CC-PVTZ
  Basis Set:
  @DF-RHF Final Energy:  -344.72786811493188
    Total Energy =                       -344.7278681149319937
  Basis Set: CC-PVTZ
  Basis Set:
  Basis Set: CC-PVTZ
  Basis Set:
  @DF-RHF Final Energy:  -344.87818989458975
    Total Energy =                       -344.8781898945901503
  Basis Set: CC-PVTZ
  Basis Set:
  Basis Set: CC-PVTZ
  Basis Set:
  @DF-RHF Final Energy:  -344.99208108878236
    Total Energy =                       -344.9920810887820721
  Basis Set: CC-PVTZ
  Basis Set:
  @DF-RHF Final Energy:  -345.01376034934526
    Total Energy =                       -345.0137603493453753
  @DF-RHF Final Energy:  -345.01572583863617
    Total Energy =                       -345.0157258386356034
  @DF-RHF Final Energy:  -345.01545155390374
    Total Energy =                       -345.0154515539038584
  Basis Set: CC-PVTZ
  Basis Set:
  @DF-RHF Final Energy:  -345.01695376132284
    Total Energy =                       -345.0169537613226112
  Basis Set: CC-PVTZ
  Basis Set:
  Basis Set: CC-PVTZ
  Basis Set:
  @DF-RHF Final Energy:  -345.01699821858296
    Total Energy =                       -345.0169982185827848
  Basis Set: CC-PVTZ
  Basis Set:
  Basis Set: CC-PVTZ
  Basis Set:
  @DF-RHF Final Energy:  -345.01700055206788
    Total Energy =                       -345.0170005520679979
  Basis Set: CC-PVTZ
  Basis Set:
  Charge       = 0
  Multiplicity = 1
  Basis Set: CC-PVTZ
  Basis Set:

    Orbital Energies (a.u.)
    -----------------------

    Doubly Occupied:

       1A    -20.585146     2A    -20.538772     3A    -11.367358
       4A    -11.292451     5A    -11.241772     6A    -11.224347
       7A    -11.216565     8A     -1.463125     9A     -1.370290
      10A     -1.083292    11A     -0.988939    12A     -0.964322
      13A     -0.838354    14A     -0.767022    15A     -0.703425
      16A     -0.685092    17A     -0.677088    18A     -0.641075
      19A     -0.613448    20A     -0.581591    21A     -0.568057
      22A     -0.547859    23A     -0.521606    24A     -0.497279
      25A     -0.491883    26A     -0.483848    27A     -0.456679
      28A     -0.437006

  @DF-RHF Final Energy:  -345.01700122519810

   => Energetics <=

    Nuclear Repulsion Energy =            313.9478545886092888
    One-Electron Energy =               -1092.2343283977836563
    Two-Electron Energy =                 433.2694725839763805
    DFT Exchange-Correlation Energy =       0.0000000000000000
    Empirical Dispersion Energy =           0.0000000000000000
    PCM Polarization Energy =               0.0000000000000000
    EFP Energy =                            0.0000000000000000
    Total Energy =                       -345.0170012251979870
    Molecular point group: c1
  Basis Set: CC-PVTZ
  Basis Set:

  -Total Gradient:
     Atom            X                  Y                   Z
    ------   -----------------  -----------------  -----------------
       1       -0.001752326790    -0.001045357974    -0.003320344372
       2        0.002524247079     0.002296232585     0.003278942749
       3       -0.000058020288     0.000059086311     0.000009661379
       4       -0.000747178542    -0.002828016755     0.002949724973
       5        0.000015230212    -0.000037330055    -0.000014341493
       6       -0.000005275934    -0.000013996367     0.000021986705
       7        0.000022402799    -0.000005742280     0.000004186608
       8        0.000016582557    -0.000004183384    -0.000018388665
       9       -0.000017336246     0.000006338483    -0.000003260305
      10        0.000014407125    -0.000005119081    -0.000003356514
      11       -0.000008610592    -0.000003862300    -0.000001771012
      12       -0.000001816064     0.000008410813    -0.000000391950
      13        0.000006613431     0.000003434149    -0.000002121151
      14       -0.000053221038     0.001523544277    -0.002934508320
      15        0.000017464868     0.000031622496    -0.000009295725
      16       -0.000012394712     0.000025540727     0.000007613387
      17        0.000039232137    -0.000010601642     0.000035663701

  **** Optimization is complete! (in 11 steps) ****
    Final optimized geometry and variables:
    Molecular point group: c1

    Geometry (in Angstrom), charge = 0, multiplicity = 1:

    O            0.507363956932     1.552139842564    -0.662982909573
    C            0.603997978940     0.414809766498    -0.377721202240
    C           -0.425225761139    -0.344609090352     0.428690485781
    O            1.691497380656    -0.279525017377    -0.747483836228
    C           -1.503343416197     0.547270747928     1.030221230359
    H           -0.877743890998    -1.090300472507    -0.218522374755
    H            0.100517051508    -0.897252387904     1.201029202130
    C           -2.524768793957    -0.249057640102     1.834737170675
    H           -1.998466498997     1.091508275862     0.236208463860
    H           -1.036243761553     1.293502607944     1.661533538587
    H           -3.032007990415    -0.981573387740     1.215118310147
    H           -3.279078600663     0.405092625055     2.254786875083
    H           -2.054760619169    -0.780298945035     2.655898537423
    C            1.553215375217    -1.520345722976    -1.396094460706
    H            1.184658515835    -2.288653467022    -0.728295154636
    H            2.538626450593    -1.794929363916    -1.735301533570
    H            0.896536694622    -1.438560021292    -2.253718882306

  Mulliken Charges: (a.u.)
   Center  Symbol    Alpha    Beta     Spin     Total
       1     O     4.17007  4.17007  0.00000 -0.34014
       2     C     2.79986  2.79986  0.00000  0.40028
       3     C     3.12405  3.12405  0.00000 -0.24809
       4     O     4.14687  4.14687  0.00000 -0.29374
       5     C     3.08101  3.08101  0.00000 -0.16203
       6     H     0.44506  0.44506  0.00000  0.10989
       7     H     0.43728  0.43728  0.00000  0.12545
       8     C     3.15011  3.15011  0.00000 -0.30021
       9     H     0.44349  0.44349  0.00000  0.11302
      10     H     0.44520  0.44520  0.00000  0.10960
      11     H     0.45662  0.45662  0.00000  0.08676
      12     H     0.44443  0.44443  0.00000  0.11114
      13     H     0.45582  0.45582  0.00000  0.08836
      14     C     3.04613  3.04613  0.00000 -0.09226
      15     H     0.46078  0.46078  0.00000  0.07844
      16     H     0.43556  0.43556  0.00000  0.12888
      17     H     0.45767  0.45767  0.00000  0.08466

   Total alpha = 28.00000, Total beta = 28.00000, Total charge = -0.00000

*** Psi4 exiting successfully. Buy a developer a beer!
