  ==> Input File <==

--------------------------------------------------------------------------
set {
	reference rhf
	basis 6-31G*
}

set_num_threads( 4 )
memory 2 gb

molecule MOL {
0 1

H	 3.276176	 0.174363	 -0.109463
N	 2.434251	 -0.367735	 -0.081097
C	 1.267428	 0.496480	 0.024474
H	 2.501951	 -0.965776	 0.720575
C	 -0.016086	 -0.325158	 -0.029487
H	 1.288818	 1.183521	 -0.816092
H	 1.267576	 1.109062	 0.929528
C	 -1.282277	 0.529072	 0.046735
H	 -0.012495	 -0.908639	 -0.945788
H	 -0.015903	 -1.041248	 0.791956
C	 -2.494184	 -0.248786	 0.558516
H	 -1.504606	 0.932566	 -0.939039
H	 -1.105293	 1.385613	 0.694014
H	 -2.718949	 -1.092414	 -0.087621
H	 -3.377373	 0.381106	 0.600161
H	 -2.317171	 -0.636932	 1.557630

	symmetry c1
}
set optking {
	frozen_dihedral = ("
		12 8 5 9
	")
}

ee = optimize('scf')
oeprop('DIPOLE', 'QUADRUPOLE', 'MULLIKEN_CHARGES')
f=open( 'psi4out.xyz', 'w' )
f.write( "16  " )
f.write( str(ee) + "\n" )
f.write( MOL.save_string_xyz() )
f.close()
--------------------------------------------------------------------------

    Molecular point group: c1
  Charge       = 0
  Multiplicity = 1
  Basis Set: 6-31G*
  Basis Set:
  @DF-RHF Final Energy:  -212.31520823853430
    Total Energy =                       -212.3152082385344670
    Molecular point group: c1
  Basis Set: 6-31G*
  Basis Set:
  Basis Set: 6-31G*
  Basis Set:
  @DF-RHF Final Energy:  -212.31539766719641
    Total Energy =                       -212.3153976671965211
  Basis Set: 6-31G*
  Basis Set:
  Basis Set: 6-31G*
  Basis Set:
  @DF-RHF Final Energy:  -212.31544953991914
    Total Energy =                       -212.3154495399190296
  Basis Set: 6-31G*
  Basis Set:
  Charge       = 0
  Multiplicity = 1
  Basis Set: 6-31G*
  Basis Set:

    Orbital Energies (a.u.)
    -----------------------

    Doubly Occupied:

       1A    -15.532507     2A    -11.239766     3A    -11.215027
       4A    -11.209562     5A    -11.207937     6A     -1.176644
       7A     -1.058733     8A     -0.958503     9A     -0.843152
      10A     -0.791899    11A     -0.663139    12A     -0.639452
      13A     -0.599938    14A     -0.581739    15A     -0.564684
      16A     -0.519640    17A     -0.505078    18A     -0.469225
      19A     -0.464538    20A     -0.459733    21A     -0.381188

  @DF-RHF Final Energy:  -212.31545025141870

   => Energetics <=

    Nuclear Repulsion Energy =            186.2717972994366562
    One-Electron Energy =                -655.0103235479130035
    Two-Electron Energy =                 256.4230759970575377
    DFT Exchange-Correlation Energy =       0.0000000000000000
    Empirical Dispersion Energy =           0.0000000000000000
    PCM Polarization Energy =               0.0000000000000000
    EFP Energy =                            0.0000000000000000
    Total Energy =                       -212.3154502514187811
    Molecular point group: c1
  Basis Set: 6-31G*
  Basis Set:

  -Total Gradient:
     Atom            X                  Y                   Z
    ------   -----------------  -----------------  -----------------
       1       -0.000003265634    -0.000002746632     0.000003922763
       2        0.000013106427    -0.000009150575    -0.000000705409
       3       -0.000016464069     0.000038830802     0.000063411957
       4        0.000007932056     0.000003550172    -0.000002547581
       5       -0.002742574361    -0.004039819804     0.001819585771
       6        0.000000271698    -0.000016008988     0.000006886741
       7        0.000037376947     0.000055439601     0.000009612478
       8        0.002959982373     0.004221946634     0.000519979474
       9        0.001716988297     0.002660438163    -0.001734087520
      10       -0.000015707785     0.000077292607    -0.000016082116
      11        0.000008210174    -0.000027450144     0.000037872357
      12       -0.001961922399    -0.002897335088    -0.000744968471
      13        0.000038086241    -0.000052446062     0.000025816798
      14        0.000017698718    -0.000020899076     0.000023376393
      15       -0.000007330621    -0.000002263946    -0.000036573093
      16       -0.000052388064     0.000010622335     0.000024499455

  **** Optimization is complete! (in 4 steps) ****
    Final optimized geometry and variables:
    Molecular point group: c1

    Geometry (in Angstrom), charge = 0, multiplicity = 1:

    H            3.260999821531     0.169595327560    -0.286808693901
    N            2.421868744780    -0.375666015817    -0.241226109329
    C            1.256660171828     0.481921074879    -0.081445925872
    H            2.517413449112    -0.988586899839     0.546289547370
    C           -0.027313782819    -0.343733536644    -0.100540475149
    H            1.244840954564     1.181149493515    -0.912434636192
    H            1.286992089487     1.081871284038     0.831511458018
    C           -1.291324492846     0.522571570785    -0.047337754334
    H           -0.018062952596    -0.933983118767    -1.011563090898
    H           -0.015717776481    -1.038775730944     0.737410538750
    C           -2.523233629674    -0.255407971266     0.419293596421
    H           -1.494115457231     0.916485719323    -1.040115452057
    H           -1.135681085707     1.374714146939     0.610018727617
    H           -2.704465619780    -1.117328207340    -0.216806621954
    H           -3.413719624113     0.365347025470     0.396446917067
    H           -2.397103220691    -0.617300386275     1.435797773159

  Mulliken Charges: (a.u.)
   Center  Symbol    Alpha    Beta     Spin     Total
       1     H     0.33248  0.33248  0.00000  0.33503
       2     N     3.92184  3.92184  0.00000 -0.84369
       3     C     3.06141  3.06141  0.00000 -0.12282
       4     H     0.33538  0.33538  0.00000  0.32925
       5     C     3.15187  3.15187  0.00000 -0.30374
       6     H     0.42096  0.42096  0.00000  0.15807
       7     H     0.43480  0.43480  0.00000  0.13040
       8     C     3.15619  3.15619  0.00000 -0.31238
       9     H     0.41171  0.41171  0.00000  0.17659
      10     H     0.42712  0.42712  0.00000  0.14576
      11     C     3.23921  3.23921  0.00000 -0.47843
      12     H     0.42051  0.42051  0.00000  0.15898
      13     H     0.42323  0.42323  0.00000  0.15354
      14     H     0.42076  0.42076  0.00000  0.15848
      15     H     0.42013  0.42013  0.00000  0.15974
      16     H     0.42240  0.42240  0.00000  0.15521

   Total alpha = 21.00000, Total beta = 21.00000, Total charge =  0.00000
