                              Psi4 1.0.54 Driver

  ==> Input File <==

--------------------------------------------------------------------------
set {
	reference rhf
	basis cc-pvtz
}

set_num_threads( 4 )
memory 2 gb

molecule MOL {
0 1

H	 -0.939693	 0.000281	 1.681345
O	 -0.046262	 -0.000157	 1.387678
C	 -0.000837	 0.000006	 -0.025491
C	 -1.401269	 -0.249109	 -0.582159
C	 0.548069	 1.337164	 -0.519309
C	 0.937955	 -1.138862	 -0.399440
H	 -1.392058	 -0.290446	 -1.665210
H	 -2.079780	 0.545575	 -0.286912
H	 -1.793998	 -1.184944	 -0.204747
H	 0.628694	 1.353866	 -1.600053
H	 -0.103635	 2.153689	 -0.223266
H	 1.528669	 1.518927	 -0.097584
H	 1.038338	 -1.219532	 -1.475406
H	 0.558854	 -2.077926	 -0.016488
H	 1.918744	 -0.971358	 0.027422

	symmetry c1
}
set optking {
	frozen_dihedral = ("
		4 3 2 1
	")
}

ee,wfn = optimize('scf', return_wfn=True)
oeprop( wfn, 'DIPOLE', 'QUADRUPOLE', 'MULLIKEN_CHARGES')
f=open( 'psi4out.xyz', 'w' )
f.write( "15  " )
f.write( str(ee) + "\n" )
f.write( MOL.save_string_xyz() )
f.close()
--------------------------------------------------------------------------

    Molecular point group: c1
  Charge       = 0
  Multiplicity = 1
  Basis Set: CC-PVTZ
  Basis Set:
  @DF-RHF Final Energy:  -232.24443833704674
    Total Energy =                       -232.2444383370465175
    Molecular point group: c1
  Basis Set: CC-PVTZ
  Basis Set:
  Basis Set: CC-PVTZ
  Basis Set:
  @DF-RHF Final Energy:  -232.24473129080263
    Total Energy =                       -232.2447312908026902
  Basis Set: CC-PVTZ
  Basis Set:
  Basis Set: CC-PVTZ
  Basis Set:
  @DF-RHF Final Energy:  -232.24485856335372
    Total Energy =                       -232.2448585633537732
  Basis Set: CC-PVTZ
  Basis Set:
  Charge       = 0
  Multiplicity = 1
  Basis Set: CC-PVTZ
  Basis Set:

    Orbital Energies (a.u.)
    -----------------------

    Doubly Occupied:

       1A    -20.540321     2A    -11.281130     3A    -11.216109
       4A    -11.203567     5A    -11.203395     6A     -1.362827
       7A     -1.065784     8A     -0.946281     9A     -0.936701
      10A     -0.778611    11A     -0.671869    12A     -0.624604
      13A     -0.622782    14A     -0.576565    15A     -0.557391
      16A     -0.534727    17A     -0.517052    18A     -0.511316
      19A     -0.503202    20A     -0.458364    21A     -0.426571

  @DF-RHF Final Energy:  -232.24485870066547

   => Energetics <=

    Nuclear Repulsion Energy =            200.5790418717289185
    One-Electron Energy =                -712.5694666503197823
    Two-Electron Energy =                 279.7455660779253321
    DFT Exchange-Correlation Energy =       0.0000000000000000
    Empirical Dispersion Energy =           0.0000000000000000
    PCM Polarization Energy =               0.0000000000000000
    EFP Energy =                            0.0000000000000000
    Total Energy =                       -232.2448587006655316
    Molecular point group: c1
  Basis Set: CC-PVTZ
  Basis Set:

  -Total Gradient:
     Atom            X                  Y                   Z
    ------   -----------------  -----------------  -----------------
       1        0.000040983087    -0.000925306104     0.000044005906
       2       -0.000243754235     0.001422949642     0.000033538294
       3        0.000297451844    -0.001012324533     0.000016719833
       4       -0.000082547615     0.000664253298     0.000017138780
       5       -0.000097990790    -0.000027057075    -0.000020637697
       6        0.000019887753    -0.000062413151    -0.000099245482
       7        0.000026691675     0.000004412779     0.000014558750
       8       -0.000006721572    -0.000013428748     0.000021276146
       9        0.000054537019    -0.000025314409    -0.000031791501
      10       -0.000028109242     0.000038807230    -0.000038460372
      11        0.000048704630     0.000026364705     0.000028701324
      12       -0.000024577172    -0.000081554363    -0.000016315551
      13       -0.000006994552    -0.000027216620     0.000018735196
      14        0.000028585453    -0.000017039104     0.000008811064
      15       -0.000026146285     0.000034866453     0.000002965312

  **** Optimization is complete! (in 4 steps) ****
    Final optimized geometry and variables:
    Molecular point group: c1

    Geometry (in Angstrom), charge = 0, multiplicity = 1:

    H           -0.930167503642     0.026549310168     1.697687583378
    O           -0.043179089292     0.014682631487     1.392079410745
    C            0.003177912104    -0.000237049805    -0.024956669916
    C           -1.393396609952    -0.241232992696    -0.590261385268
    C            0.543580323652     1.349521374771    -0.490155494397
    C            0.951115061920    -1.125166231926    -0.425825612505
    H           -1.376149231679    -0.261106066870    -1.672802419766
    H           -2.073313137046     0.547649074555    -0.283847560335
    H           -1.788401079037    -1.190018683397    -0.243339619626
    H            0.640507451941     1.384972686943    -1.569655546932
    H           -0.117386125050     2.150034039156    -0.178942849776
    H            1.516961108424     1.529728618060    -0.051618965351
    H            1.079047173725    -1.165250477943    -1.501640422736
    H            0.568857497503    -2.080362249761    -0.087068566320
    H            1.921341304054    -0.971436089388     0.029644015382

  Mulliken Charges: (a.u.)
   Center  Symbol    Alpha    Beta     Spin     Total
       1     H     0.39195  0.39195  0.00000  0.21609
       2     O     4.21525  4.21525  0.00000 -0.43050
       3     C     2.88032  2.88032  0.00000  0.23936
       4     C     3.16273  3.16273  0.00000 -0.32545
       5     C     3.14036  3.14036  0.00000 -0.28073
       6     C     3.13952  3.13952  0.00000 -0.27904
       7     H     0.45050  0.45050  0.00000  0.09901
       8     H     0.45057  0.45057  0.00000  0.09886
       9     H     0.44700  0.44700  0.00000  0.10601
      10     H     0.45933  0.45933  0.00000  0.08133
      11     H     0.45423  0.45423  0.00000  0.09154
      12     H     0.44829  0.44829  0.00000  0.10343
      13     H     0.45952  0.45952  0.00000  0.08095
      14     H     0.45279  0.45279  0.00000  0.09442
      15     H     0.44764  0.44764  0.00000  0.10473

   Total alpha = 21.00000, Total beta = 21.00000, Total charge = -0.00000

*** Psi4 exiting successfully. Buy a developer a beer!
