                              Psi4 1.0.54 Driver

  ==> Input File <==

--------------------------------------------------------------------------
set {
	reference rhf
	basis cc-pvtz
}

set_num_threads( 4 )
memory 2 gb

molecule MOL {
0 1

H	 -2.290159	 1.196317	 -1.153029
C	 -1.441098	 1.858806	 -1.050925
C	 -0.134428	 1.081896	 -1.093802
H	 -1.549374	 2.384756	 -0.111847
H	 -1.473722	 2.583885	 -1.855350
C	 0.000000	 0.039916	 0.000014
H	 0.716730	 1.752958	 -1.015671
H	 -0.017573	 0.574859	 -2.047820
C	 1.286532	 -0.763243	 0.000268
O	 -0.851764	 -0.136620	 0.808539
C	 2.547023	 0.087626	 -0.000114
H	 1.264245	 -1.421103	 -0.864380
H	 1.264290	 -1.420353	 0.865489
H	 2.584452	 0.725630	 -0.872909
H	 3.427035	 -0.544422	 0.000125
H	 2.584484	 0.726356	 0.872143

	symmetry c1
}
set optking {
	frozen_dihedral = ("
		3 6 9 12
	")
}

ee,wfn = optimize('scf', return_wfn=True)
oeprop( wfn, 'DIPOLE', 'QUADRUPOLE', 'MULLIKEN_CHARGES')
f=open( 'psi4out.xyz', 'w' )
f.write( "16  " )
f.write( str(ee) + "\n" )
f.write( MOL.save_string_xyz() )
f.close()
--------------------------------------------------------------------------

    Molecular point group: c1
  Charge       = 0
  Multiplicity = 1
  Basis Set: CC-PVTZ
  Basis Set:
  @DF-RHF Final Energy:  -270.12796948667716
    Total Energy =                       -270.1279694866770456
    Molecular point group: c1
  Basis Set: CC-PVTZ
  Basis Set:
  Basis Set: CC-PVTZ
  Basis Set:
  @DF-RHF Final Energy:  -269.99019505678541
    Total Energy =                       -269.9901950567853532
  Basis Set: CC-PVTZ
  Basis Set:
  Basis Set: CC-PVTZ
  Basis Set:
  @DF-RHF Final Energy:  -270.09786292409149
    Total Energy =                       -270.0978629240914870
  Basis Set: CC-PVTZ
  Basis Set:
  Basis Set: CC-PVTZ
  Basis Set:
  @DF-RHF Final Energy:  -270.12613205992915
    Total Energy =                       -270.1261320599292048
  Basis Set: CC-PVTZ
  Basis Set:
  @DF-RHF Final Energy:  -270.12790548987243
    Total Energy =                       -270.1279054898724326
  @DF-RHF Final Energy:  -270.12767385224629
    Total Energy =                       -270.1276738522464029
  Basis Set: CC-PVTZ
  Basis Set:
  @DF-RHF Final Energy:  -270.12903679479200
    Total Energy =                       -270.1290367947918867
  Basis Set: CC-PVTZ
  Basis Set:
  Basis Set: CC-PVTZ
  Basis Set:
  @DF-RHF Final Energy:  -270.12907412607490
    Total Energy =                       -270.1290741260750110
  Basis Set: CC-PVTZ
  Basis Set:
  Basis Set: CC-PVTZ
  Basis Set:
  @DF-RHF Final Energy:  -270.12907827473430
    Total Energy =                       -270.1290782747344110
  Basis Set: CC-PVTZ
  Basis Set:
  Charge       = 0
  Multiplicity = 1
  Basis Set: CC-PVTZ
  Basis Set:

    Orbital Energies (a.u.)
    -----------------------

    Doubly Occupied:

       1A    -20.537781     2A    -11.317258     3A    -11.232016
       4A    -11.231190     5A    -11.227318     6A    -11.211604
       7A     -1.397718     8A     -1.074003     9A     -1.036157
      10A     -0.909780    11A     -0.864286    12A     -0.725177
      13A     -0.662678    14A     -0.640923    15A     -0.633991
      16A     -0.608994    17A     -0.558277    18A     -0.544619
      19A     -0.535328    20A     -0.511513    21A     -0.506564
      22A     -0.495774    23A     -0.483472    24A     -0.398642

  @DF-RHF Final Energy:  -270.12907870785284

   => Energetics <=

    Nuclear Repulsion Energy =            240.9077344649858219
    One-Electron Energy =                -843.3835016167874983
    Two-Electron Energy =                 332.3466884439486080
    DFT Exchange-Correlation Energy =       0.0000000000000000
    Empirical Dispersion Energy =           0.0000000000000000
    PCM Polarization Energy =               0.0000000000000000
    EFP Energy =                            0.0000000000000000
    Total Energy =                       -270.1290787078530116
    Molecular point group: c1
  Basis Set: CC-PVTZ
  Basis Set:

  -Total Gradient:
     Atom            X                  Y                   Z
    ------   -----------------  -----------------  -----------------
       1        0.000013015152     0.000003147967    -0.000008170941
       2       -0.000019411354     0.000009507588    -0.000008796312
       3        0.000118095813     0.000263087112     0.000187197949
       4        0.000001585129     0.000008003723     0.000005207630
       5       -0.000001869259    -0.000000720341     0.000004387441
       6       -0.000207447211    -0.000450989436    -0.000144800566
       7       -0.000011079393    -0.000006266865    -0.000000332612
       8        0.000001558008    -0.000018162326    -0.000005204069
       9        0.000033048241     0.000528055323    -0.000219759666
      10        0.000043508777     0.000017579571    -0.000063428379
      11       -0.000035267475    -0.000009205710     0.000007439444
      12        0.000047386274    -0.000329945710     0.000240535914
      13        0.000011327274    -0.000015626178     0.000014109815
      14        0.000006492273     0.000001729403    -0.000006232878
      15       -0.000011582360     0.000011895141     0.000006864414
      16        0.000010640110    -0.000012089260    -0.000009017180

  **** Optimization is complete! (in 10 steps) ****
    Final optimized geometry and variables:
    Molecular point group: c1

    Geometry (in Angstrom), charge = 0, multiplicity = 1:

    H           -2.728191504353    -0.659938403894    -0.150392802937
    C           -2.382920930965     0.360717768068    -0.048186963054
    C           -0.945742050023     0.502276786263    -0.526311650594
    H           -2.472326720353     0.632087088860     0.994478153742
    H           -3.036350096209     1.001675098376    -0.627977171622
    C            0.041290411817    -0.355769165452     0.241902798799
    H           -0.617611499678     1.533877127789    -0.437341217788
    H           -0.859672318048     0.258601859838    -1.581645560843
    C            1.450042201460    -0.476494592227    -0.310384998987
    O           -0.272708108628    -0.928296040995     1.234630302632
    C            2.143389836296     0.852943981688    -0.610414659851
    H            1.390474595670    -1.068814799557    -1.220064396269
    H            2.019472088829    -1.047975328041     0.409048885776
    H            1.644850856347     1.405074037441    -1.396967509301
    H            3.161796812224     0.673995358486    -0.931091507308
    H            2.181435709426     1.482385581336     0.271439452751

  Mulliken Charges: (a.u.)
   Center  Symbol    Alpha    Beta     Spin     Total
       1     H     0.44964  0.44964  0.00000  0.10072
       2     C     3.14168  3.14168  0.00000 -0.28336
       3     C     3.10870  3.10870  0.00000 -0.21739
       4     H     0.44545  0.44545  0.00000  0.10911
       5     H     0.45088  0.45088  0.00000  0.09825
       6     C     2.86377  2.86377  0.00000  0.27245
       7     H     0.44372  0.44372  0.00000  0.11256
       8     H     0.44429  0.44429  0.00000  0.11143
       9     C     3.09507  3.09507  0.00000 -0.19014
      10     O     4.17246  4.17246  0.00000 -0.34491
      11     C     3.15757  3.15757  0.00000 -0.31514
      12     H     0.44929  0.44929  0.00000  0.10143
      13     H     0.43652  0.43652  0.00000  0.12695
      14     H     0.45177  0.45177  0.00000  0.09645
      15     H     0.44176  0.44176  0.00000  0.11648
      16     H     0.44745  0.44745  0.00000  0.10511

   Total alpha = 24.00000, Total beta = 24.00000, Total charge = -0.00000

*** Psi4 exiting successfully. Buy a developer a beer!
