  ==> Input File <==

--------------------------------------------------------------------------
set {
	reference rhf
	basis cc-pvtz
}

set_num_threads( 4 )
memory 2 gb

molecule MOL {
0 1

H	 2.161291	 0.157160	 0.812913
O	 1.396062	 -0.396330	 0.852153
C	 0.489979	 0.078084	 0.002623
C	 -0.763662	 -0.754014	 0.000816
O	 0.687468	 1.037222	 -0.659919
C	 -2.038001	 0.074705	 -0.000833
H	 -0.712945	 -1.405886	 -0.864342
H	 -0.715137	 -1.405770	 0.866182
H	 -2.087267	 0.710831	 -0.874232
H	 -2.903419	 -0.576199	 -0.001922
H	 -2.089467	 0.710909	 0.872389

	symmetry c1
}
set optking {
	frozen_dihedral = ("
		2 3 4 7
	")
}

ee = optimize('scf')
oeprop('DIPOLE', 'QUADRUPOLE', 'MULLIKEN_CHARGES')
f=open( 'psi4out.xyz', 'w' )
f.write( "11  " )
f.write( str(ee) + "\n" )
f.write( MOL.save_string_xyz() )
f.close()
--------------------------------------------------------------------------

    Molecular point group: c1
  Charge       = 0
  Multiplicity = 1
  Basis Set: CC-PVTZ
  Basis Set:
  @DF-RHF Final Energy:  -266.95141504129151
    Total Energy =                       -266.9514150412916251
    Molecular point group: c1
  Basis Set: CC-PVTZ
  Basis Set:
  Basis Set: CC-PVTZ
  Basis Set:
  @DF-RHF Final Energy:  -266.95191605258105
    Total Energy =                       -266.9519160525810548
  Basis Set: CC-PVTZ
  Basis Set:
  Basis Set: CC-PVTZ
  Basis Set:
  @DF-RHF Final Energy:  -266.95193240841155
    Total Energy =                       -266.9519324084117216
  Basis Set: CC-PVTZ
  Basis Set:
  Basis Set: CC-PVTZ
  Basis Set:
  @DF-RHF Final Energy:  -266.95189320319321
    Total Energy =                       -266.9518932031932650
  Basis Set: CC-PVTZ
  Basis Set:
  Charge       = 0
  Multiplicity = 1
  Basis Set: CC-PVTZ
  Basis Set:

    Orbital Energies (a.u.)
    -----------------------

    Doubly Occupied:

       1A    -20.607012     2A    -20.539662     3A    -11.374602
       4A    -11.242274     5A    -11.222163     6A     -1.479281
       7A     -1.369832     8A     -1.066356     9A     -0.917274
      10A     -0.808794    11A     -0.706976    12A     -0.692563
      13A     -0.657178    14A     -0.606581    15A     -0.596664
      16A     -0.535705    17A     -0.526710    18A     -0.509639
      19A     -0.481183    20A     -0.447295

  @DF-RHF Final Energy:  -266.95193861977026

   => Energetics <=

    Nuclear Repulsion Energy =            180.0851969239333812
    One-Electron Energy =                -721.2987831662965164
    Two-Electron Energy =                 274.2616476225929318
    DFT Exchange-Correlation Energy =       0.0000000000000000
    Empirical Dispersion Energy =           0.0000000000000000
    PCM Polarization Energy =               0.0000000000000000
    EFP Energy =                            0.0000000000000000
    Total Energy =                       -266.9519386197702033
    Molecular point group: c1
  Basis Set: CC-PVTZ
  Basis Set:

  -Total Gradient:
     Atom            X                  Y                   Z
    ------   -----------------  -----------------  -----------------
       1       -0.000014212431     0.000014298309    -0.000005702194
       2       -0.000215559859     0.000454791821     0.000880263023
       3        0.000292789667    -0.000345080486    -0.001302491859
       4        0.000547267106    -0.000826196628     0.001061212351
       5       -0.000040534397    -0.000172515844     0.000064912122
       6        0.000058825818    -0.000062519668     0.000019990247
       7       -0.000552129075     0.000824265507    -0.000696812230
       8       -0.000001800343     0.000066076455    -0.000040138481
       9       -0.000000291242    -0.000009511621     0.000006280842
      10       -0.000032168265     0.000022608678    -0.000003986485
      11       -0.000042186978     0.000033783478     0.000016472664

  **** Optimization is complete! (in 5 steps) ****
    Final optimized geometry and variables:
    Molecular point group: c1

    Geometry (in Angstrom), charge = 0, multiplicity = 1:

    H            2.203496920156     0.147696480628     0.693684569831
    O            1.442133783498    -0.407860745840     0.772614638967
    C            0.498422258121     0.058150100938    -0.037831809243
    C           -0.751150447977    -0.784327679090    -0.024478506769
    O            0.657100886769     1.026911227771    -0.697641432326
    C           -2.020501915350     0.059977286435    -0.069750273365
    H           -0.699031300839    -1.411034837955    -0.909433508587
    H           -0.734038113088    -1.435739684363     0.836968506558
    H           -2.019801200945     0.706760253094    -0.935364151994
    H           -2.891617541167    -0.581196984782    -0.116963073347
    H           -2.108424937021     0.681067133764     0.813651275016

  Mulliken Charges: (a.u.)
   Center  Symbol    Alpha    Beta     Spin     Total
       1     H     0.38039  0.38039  0.00000  0.23922
       2     O     4.15866  4.15866  0.00000 -0.31732
       3     C     2.80455  2.80455  0.00000  0.39090
       4     C     3.09336  3.09336  0.00000 -0.18673
       5     O     4.19589  4.19589  0.00000 -0.39179
       6     C     3.14268  3.14268  0.00000 -0.28536
       7     H     0.44445  0.44445  0.00000  0.11110
       8     H     0.43695  0.43695  0.00000  0.12610
       9     H     0.44157  0.44157  0.00000  0.11685
      10     H     0.44906  0.44906  0.00000  0.10189
      11     H     0.45243  0.45243  0.00000  0.09514

   Total alpha = 20.00000, Total beta = 20.00000, Total charge = -0.00000
