                              Psi4 1.0.54 Driver

  ==> Input File <==

--------------------------------------------------------------------------
set {
	reference rhf
	basis cc-pvtz
}

set_num_threads( 4 )
memory 2 gb

molecule MOL {
0 1

H	 -2.937048	 -0.199851	 1.956171
C	 -3.151497	 -0.342970	 0.888270
C	 -2.689943	 0.775471	 -0.006129
O	 -3.714746	 -1.316064	 0.523376
C	 -1.216901	 1.136108	 0.207794
H	 -2.887944	 0.498911	 -1.033575
H	 -3.307425	 1.638600	 0.232678
C	 -0.247837	 0.040196	 -0.230469
H	 -1.003582	 2.046629	 -0.341557
H	 -1.052605	 1.371090	 1.256596
C	 1.181757	 0.280428	 0.247371
H	 -0.259600	 -0.030819	 -1.314870
H	 -0.591284	 -0.923375	 0.136958
C	 2.151032	 -0.811012	 -0.202643
H	 1.515939	 1.247397	 -0.115449
H	 1.191514	 0.341223	 1.333422
C	 3.580021	 -0.656538	 0.320835
H	 2.170545	 -0.847575	 -1.289412
H	 1.766632	 -1.772905	 0.124928
C	 4.327657	 0.562694	 -0.213579
H	 4.138806	 -1.549270	 0.057813
H	 3.561991	 -0.620783	 1.406976
H	 4.355973	 0.557257	 -1.298551
H	 3.867136	 1.491650	 0.100501
H	 5.351524	 0.571613	 0.142204

	symmetry c1
}
set optking {
	frozen_dihedral = ("
		3 5 8 12
	")
}

ee,wfn = optimize('scf', return_wfn=True)
oeprop( wfn, 'DIPOLE', 'QUADRUPOLE', 'MULLIKEN_CHARGES')
f=open( 'psi4out.xyz', 'w' )
f.write( "25  " )
f.write( str(ee) + "\n" )
f.write( MOL.save_string_xyz() )
f.close()
--------------------------------------------------------------------------

    Molecular point group: c1
  Charge       = 0
  Multiplicity = 1
  Basis Set: CC-PVTZ
  Basis Set:
  @DF-RHF Final Energy:  -387.25983985029660
    Total Energy =                       -387.2598398502966575
    Molecular point group: c1
  Basis Set: CC-PVTZ
  Basis Set:
  Basis Set: CC-PVTZ
  Basis Set:
  @DF-RHF Final Energy:  -387.25979348928553
    Total Energy =                       -387.2597934892855847
  Basis Set: CC-PVTZ
  Basis Set:
  Basis Set: CC-PVTZ
  Basis Set:
  @DF-RHF Final Energy:  -387.25986103974975
    Total Energy =                       -387.2598610397496941
  Basis Set: CC-PVTZ
  Basis Set:
  Basis Set: CC-PVTZ
  Basis Set:
  @DF-RHF Final Energy:  -387.25982364563839
    Total Energy =                       -387.2598236456383347
  Basis Set: CC-PVTZ
  Basis Set:
  Basis Set: CC-PVTZ
  Basis Set:
  @DF-RHF Final Energy:  -387.25991590055736
    Total Energy =                       -387.2599159005575302
  Basis Set: CC-PVTZ
  Basis Set:
  Basis Set: CC-PVTZ
  Basis Set:
  @DF-RHF Final Energy:  -387.25991878398423
    Total Energy =                       -387.2599187839847446
  Basis Set: CC-PVTZ
  Basis Set:
  Charge       = 0
  Multiplicity = 1
  Basis Set: CC-PVTZ
  Basis Set:

    Orbital Energies (a.u.)
    -----------------------

    Doubly Occupied:

       1A    -20.551741     2A    -11.321207     3A    -11.233815
       4A    -11.232852     5A    -11.221553     6A    -11.217557
       7A    -11.216146     8A    -11.214894     9A    -11.208809
      10A     -1.406735    11A     -1.105151    12A     -1.070892
      13A     -1.014593    14A     -0.943467    15A     -0.875934
      16A     -0.820277    17A     -0.789547    18A     -0.781458
      19A     -0.668150    20A     -0.663709    21A     -0.636025
      22A     -0.626384    23A     -0.605723    24A     -0.593345
      25A     -0.576236    26A     -0.552683    27A     -0.535188
      28A     -0.528020    29A     -0.509506    30A     -0.498039
      31A     -0.491031    32A     -0.479643    33A     -0.465112
      34A     -0.459042    35A     -0.442433    36A     -0.412386

  @DF-RHF Final Energy:  -387.25991893731231

   => Energetics <=

    Nuclear Repulsion Energy =            440.1877429231012115
    One-Electron Energy =               -1396.9567592087835237
    Two-Electron Energy =                 569.5090973483696644
    DFT Exchange-Correlation Energy =       0.0000000000000000
    Empirical Dispersion Energy =           0.0000000000000000
    PCM Polarization Energy =               0.0000000000000000
    EFP Energy =                            0.0000000000000000
    Total Energy =                       -387.2599189373125910
    Molecular point group: c1
  Basis Set: CC-PVTZ
  Basis Set:

  -Total Gradient:
     Atom            X                  Y                   Z
    ------   -----------------  -----------------  -----------------
       1        0.000012147918    -0.000007197312     0.000011711444
       2       -0.000018495735     0.000037651023    -0.000010745827
       3       -0.000051081262    -0.000661458743     0.001541633525
       4       -0.000002336921    -0.000018650951    -0.000006389661
       5        0.000499784893     0.001273798833    -0.002188746275
       6       -0.000004627103    -0.000007850598     0.000000287108
       7       -0.000007562775     0.000000875978    -0.000000513481
       8       -0.002129880538    -0.002136965259     0.000757741180
       9        0.000001481947    -0.000002149143     0.000005549198
      10       -0.000001515480    -0.000002456819     0.000000571087
      11       -0.000000279889    -0.000008253927    -0.000002579027
      12        0.001700560337     0.001518309741    -0.000111091834
      13       -0.000001674639     0.000003950933     0.000003677960
      14       -0.000002660858     0.000010990511    -0.000005624359
      15       -0.000000080904    -0.000004450617    -0.000000024045
      16        0.000004013560    -0.000003852788    -0.000001023726
      17       -0.000000608216     0.000002813572     0.000000976739
      18       -0.000003041040     0.000001413350    -0.000002306621
      19       -0.000004857836     0.000004217890     0.000000938320
      20        0.000004517828    -0.000001539995     0.000004202939
      21        0.000000400935     0.000003211888    -0.000000004095
      22        0.000005386873     0.000003222645     0.000001025566
      23       -0.000000739020    -0.000002587332     0.000000777474
      24        0.000000894022    -0.000004164345    -0.000000294697
      25        0.000000253902     0.000001121466     0.000000251107

  **** Optimization is complete! (in 7 steps) ****
    Final optimized geometry and variables:
    Molecular point group: c1

    Geometry (in Angstrom), charge = 0, multiplicity = 1:

    H           -3.002000148708    -0.097085688832     1.792353787038
    C           -3.200373334488    -0.271377455996     0.725988772813
    C           -2.713995822203     0.814767500753    -0.194680708715
    O           -3.766293194717    -1.250520198965     0.382048439011
    C           -1.239813314869     1.162907751935     0.031905437673
    H           -2.902309564880     0.510156220271    -1.216234102163
    H           -3.324797486161     1.691335367329     0.010080735732
    C           -0.275315576426     0.054588390172    -0.389789233303
    H           -1.005980429972     2.072667262814    -0.509272611436
    H           -1.091280926275     1.392544645046     1.084516042718
    C            1.156502909708     0.303615924675     0.079805683780
    H           -0.278383298006    -0.021222278700    -1.473816277453
    H           -0.616424861383    -0.904380529376    -0.010676129180
    C            2.132731230808    -0.772388634645    -0.391552803615
    H            1.478326015575     1.278556731520    -0.273402643905
    H            1.174289541467     0.350939061863     1.166322515945
    C            3.561618243007    -0.616884132848     0.131795016572
    H            2.150409452826    -0.789500329835    -1.478847704213
    H            1.755841287188    -1.742720667966    -0.080385026027
    C            4.298049501241     0.618685397177    -0.380151752002
    H            4.126933245452    -1.499766799583    -0.149861077597
    H            3.545742538708    -0.602563190244     1.218438975314
    H            4.323350944138     0.635084500760    -1.465100146495
    H            3.830972451640     1.537459554165    -0.046388131732
    H            5.322813080179     0.628738023446    -0.026986583909

  Mulliken Charges: (a.u.)
   Center  Symbol    Alpha    Beta     Spin     Total
       1     H     0.46433  0.46433  0.00000  0.07134
       2     C     2.90536  2.90536  0.00000  0.18928
       3     C     3.08802  3.08802  0.00000 -0.17603
       4     O     4.16576  4.16576  0.00000 -0.33152
       5     C     3.11642  3.11642  0.00000 -0.23283
       6     H     0.44299  0.44299  0.00000  0.11402
       7     H     0.44081  0.44081  0.00000  0.11839
       8     C     3.09049  3.09049  0.00000 -0.18099
       9     H     0.44206  0.44206  0.00000  0.11588
      10     H     0.45103  0.45103  0.00000  0.09793
      11     C     3.09301  3.09301  0.00000 -0.18601
      12     H     0.44996  0.44996  0.00000  0.10008
      13     H     0.44652  0.44652  0.00000  0.10696
      14     C     3.09593  3.09593  0.00000 -0.19185
      15     H     0.45194  0.45194  0.00000  0.09613
      16     H     0.45437  0.45437  0.00000  0.09126
      17     C     3.09062  3.09062  0.00000 -0.18124
      18     H     0.45313  0.45313  0.00000  0.09375
      19     H     0.44751  0.44751  0.00000  0.10499
      20     C     3.15262  3.15262  0.00000 -0.30523
      21     H     0.44764  0.44764  0.00000  0.10472
      22     H     0.45460  0.45460  0.00000  0.09080
      23     H     0.45464  0.45464  0.00000  0.09071
      24     H     0.45435  0.45435  0.00000  0.09129
      25     H     0.44591  0.44591  0.00000  0.10819

   Total alpha = 36.00000, Total beta = 36.00000, Total charge = -0.00000

*** Psi4 exiting successfully. Buy a developer a beer!
