                              Psi4 1.0.54 Driver

  ==> Input File <==

--------------------------------------------------------------------------
set {
	reference rhf
	basis cc-pvtz
}

set_num_threads( 4 )
memory 2 gb

molecule MOL {
0 1

O	 -2.081319	 -0.951530	 -0.502732
N	 -1.613558	 0.006676	 0.014756
C	 -0.329345	 -0.171618	 0.743966
O	 -2.068523	 1.100482	 -0.024385
C	 0.835904	 0.041968	 -0.213982
H	 -0.346048	 -1.174374	 1.137184
H	 -0.333613	 0.555559	 1.538590
C	 2.177039	 -0.130175	 0.494460
H	 0.754456	 -0.665923	 -1.030569
H	 0.765464	 1.037260	 -0.637266
C	 3.271973	 -0.623983	 -0.444557
H	 2.063518	 -0.830036	 1.317105
H	 2.477394	 0.816562	 0.933644
H	 3.014374	 -1.585939	 -0.873487
H	 3.429703	 0.071849	 -1.261047
H	 4.211830	 -0.736355	 0.081944

	symmetry c1
}
set optking {
	frozen_dihedral = ("
		11 8 5 9
	")
}

ee,wfn = optimize('scf', return_wfn=True)
oeprop( wfn, 'DIPOLE', 'QUADRUPOLE', 'MULLIKEN_CHARGES')
f=open( 'psi4out.xyz', 'w' )
f.write( "16  " )
f.write( str(ee) + "\n" )
f.write( MOL.save_string_xyz() )
f.close()
--------------------------------------------------------------------------

    Molecular point group: c1
  Charge       = 0
  Multiplicity = 1
  Basis Set: CC-PVTZ
  Basis Set:
  @DF-RHF Final Energy:  -360.90684214195045
    Total Energy =                       -360.9068421419502783
    Molecular point group: c1
  Basis Set: CC-PVTZ
  Basis Set:
  Basis Set: CC-PVTZ
  Basis Set:
  @DF-RHF Final Energy:  -360.90706153590492
    Total Energy =                       -360.9070615359046315
  Basis Set: CC-PVTZ
  Basis Set:
  Basis Set: CC-PVTZ
  Basis Set:
  @DF-RHF Final Energy:  -360.90710649630063
    Total Energy =                       -360.9071064963005711
  Basis Set: CC-PVTZ
  Basis Set:
  Basis Set: CC-PVTZ
  Basis Set:
  @DF-RHF Final Energy:  -360.90655375256307
    Total Energy =                       -360.9065537525630134
  Basis Set: CC-PVTZ
  Basis Set:
  Basis Set: CC-PVTZ
  Basis Set:
  @DF-RHF Final Energy:  -360.90711201309193
    Total Energy =                       -360.9071120130922736
  Basis Set: CC-PVTZ
  Basis Set:
  Charge       = 0
  Multiplicity = 1
  Basis Set: CC-PVTZ
  Basis Set:

    Orbital Energies (a.u.)
    -----------------------

    Doubly Occupied:

       1A    -20.589808     2A    -20.589694     3A    -15.836227
       4A    -11.296770     5A    -11.250366     6A    -11.241907
       7A    -11.226154     8A     -1.635217     9A     -1.419596
      10A     -1.136164    11A     -1.059520    12A     -0.948737
      13A     -0.844129    14A     -0.829588    15A     -0.758595
      16A     -0.737750    17A     -0.728360    18A     -0.675171
      19A     -0.619164    20A     -0.607534    21A     -0.566386
      22A     -0.544229    23A     -0.516934    24A     -0.504755
      25A     -0.493719    26A     -0.486028    27A     -0.469640
      28A     -0.452090

  @DF-RHF Final Energy:  -360.90711427729565

   => Energetics <=

    Nuclear Repulsion Energy =            312.9810873223336216
    One-Electron Energy =               -1111.6479413850975106
    Two-Electron Energy =                 437.7597397854684118
    DFT Exchange-Correlation Energy =       0.0000000000000000
    Empirical Dispersion Energy =           0.0000000000000000
    PCM Polarization Energy =               0.0000000000000000
    EFP Energy =                            0.0000000000000000
    Total Energy =                       -360.9071142772954204
    Molecular point group: c1
  Basis Set: CC-PVTZ
  Basis Set:

  -Total Gradient:
     Atom            X                  Y                   Z
    ------   -----------------  -----------------  -----------------
       1        0.000003480168    -0.000175666769    -0.000035781564
       2        0.000014555012     0.000085391389     0.000039161006
       3       -0.000046294802     0.000001070199    -0.000040665782
       4        0.000049193876     0.000082979391     0.000042060680
       5       -0.002349853757    -0.004645679552     0.003520601648
       6       -0.000002585380     0.000012692075    -0.000016225870
       7       -0.000005476462     0.000000776905    -0.000017096765
       8        0.001321915559     0.004688177870    -0.001580126759
       9        0.001664536645     0.002851829315    -0.002610331274
      10       -0.000023968924    -0.000007085408     0.000001142811
      11       -0.000632759876    -0.002884109888     0.000689555505
      12        0.000022507222    -0.000003653170     0.000006866753
      13        0.000001528528    -0.000021290427    -0.000014247541
      14       -0.000008748258     0.000028312616     0.000016899569
      15       -0.000001669315    -0.000010823994     0.000013114883
      16       -0.000006360243    -0.000002920552    -0.000014927304

  **** Optimization is complete! (in 6 steps) ****
    Final optimized geometry and variables:
    Molecular point group: c1

    Geometry (in Angstrom), charge = 0, multiplicity = 1:

    O           -2.102187372821    -0.812858855985    -0.511190790693
    N           -1.605516181874     0.126239368458     0.014688067223
    C           -0.324079515426    -0.096967539896     0.736405803951
    O           -2.029515582329     1.232845255955    -0.010027569582
    C            0.843612301266     0.093964893942    -0.220724367018
    H           -0.367532515224    -1.102753535679     1.119164625585
    H           -0.303771733114     0.621713327051     1.538901336820
    C            2.192741585466    -0.043229867625     0.495031923680
    H            0.774371388112    -0.614735108567    -1.036955211068
    H            0.767899162062     1.077887561595    -0.669374149736
    C            3.307406359693    -0.511901789594    -0.433892372424
    H            2.101614602505    -0.760240630422     1.306521428274
    H            2.457890942762     0.902260554145     0.954685644216
    H            3.087157751681    -1.494737957909    -0.834298892440
    H            3.435305354829     0.166084186640    -1.271012021687
    H            4.252486245460    -0.569371813633     0.092291018148

  Mulliken Charges: (a.u.)
   Center  Symbol    Alpha    Beta     Spin     Total
       1     O     4.17408  4.17408  0.00000 -0.34817
       2     N     3.27629  3.27629  0.00000  0.44743
       3     C     3.03946  3.03946  0.00000 -0.07893
       4     O     4.17388  4.17388  0.00000 -0.34777
       5     C     3.10325  3.10325  0.00000 -0.20650
       6     H     0.43402  0.43402  0.00000  0.13196
       7     H     0.43378  0.43378  0.00000  0.13245
       8     C     3.09315  3.09315  0.00000 -0.18630
       9     H     0.43821  0.43821  0.00000  0.12359
      10     H     0.43693  0.43693  0.00000  0.12614
      11     C     3.14734  3.14734  0.00000 -0.29468
      12     H     0.45431  0.45431  0.00000  0.09138
      13     H     0.44623  0.44623  0.00000  0.10753
      14     H     0.45201  0.45201  0.00000  0.09598
      15     H     0.45117  0.45117  0.00000  0.09765
      16     H     0.44588  0.44588  0.00000  0.10824

   Total alpha = 28.00000, Total beta = 28.00000, Total charge = -0.00000

*** Psi4 exiting successfully. Buy a developer a beer!
