                              Psi4 1.0.54 Driver

  ==> Input File <==

--------------------------------------------------------------------------
set {
	reference rhf
	basis cc-pvtz
}

set_num_threads( 4 )
memory 2 gb

molecule MOL {
0 1

O	 -1.794688	 -0.348151	 -1.568726
C	 -1.581120	 0.373675	 -0.655239
C	 -2.339380	 1.638849	 -0.367444
O	 -0.637375	 0.157174	 0.243149
H	 -1.657426	 2.479478	 -0.368327
H	 -3.103206	 1.780112	 -1.114608
H	 -2.786252	 1.579293	 0.616592
C	 0.162530	 -1.009518	 0.097799
C	 1.587210	 -0.664190	 0.477086
H	 0.096803	 -1.356267	 -0.924704
H	 -0.233803	 -1.785900	 0.736810
C	 2.256770	 0.342732	 -0.454344
H	 2.154716	 -1.590834	 0.479041
H	 1.598751	 -0.289614	 1.496104
C	 3.698146	 0.643205	 -0.057145
H	 2.235038	 -0.042575	 -1.470299
H	 1.683491	 1.262594	 -0.461300
H	 4.150202	 1.356548	 -0.736242
H	 4.305463	 -0.255904	 -0.069842
H	 3.749130	 1.061068	 0.942759

	symmetry c1
}
set optking {
	frozen_dihedral = ("
		2 4 8 10
	")
}

ee,wfn = optimize('scf', return_wfn=True)
oeprop( wfn, 'DIPOLE', 'QUADRUPOLE', 'MULLIKEN_CHARGES')
f=open( 'psi4out.xyz', 'w' )
f.write( "20  " )
f.write( str(ee) + "\n" )
f.write( MOL.save_string_xyz() )
f.close()
--------------------------------------------------------------------------

    Molecular point group: c1
  Charge       = 0
  Multiplicity = 1
  Basis Set: CC-PVTZ
  Basis Set:
  @DF-RHF Final Energy:  -384.08557558006623
    Total Energy =                       -384.0855755800664610
    Molecular point group: c1
  Basis Set: CC-PVTZ
  Basis Set:
  Basis Set: CC-PVTZ
  Basis Set:
  @DF-RHF Final Energy:  -384.08084253591863
    Total Energy =                       -384.0808425359182365
  Basis Set: CC-PVTZ
  Basis Set:
  Basis Set: CC-PVTZ
  Basis Set:
  @DF-RHF Final Energy:  -384.08592013916387
    Total Energy =                       -384.0859201391637043
  Basis Set: CC-PVTZ
  Basis Set:
  Basis Set: CC-PVTZ
  Basis Set:
  @DF-RHF Final Energy:  -384.08604379589298
    Total Energy =                       -384.0860437958926923
  Basis Set: CC-PVTZ
  Basis Set:
  Basis Set: CC-PVTZ
  Basis Set:
  @DF-RHF Final Energy:  -384.08582156107173
    Total Energy =                       -384.0858215610713842
  Basis Set: CC-PVTZ
  Basis Set:
  Basis Set: CC-PVTZ
  Basis Set:
  @DF-RHF Final Energy:  -384.08604896571308
    Total Energy =                       -384.0860489657134167
  Basis Set: CC-PVTZ
  Basis Set:
  Charge       = 0
  Multiplicity = 1
  Basis Set: CC-PVTZ
  Basis Set:

    Orbital Energies (a.u.)
    -----------------------

    Doubly Occupied:

       1A    -20.593451     2A    -20.532097     3A    -11.367566
       4A    -11.279082     5A    -11.231190     6A    -11.223492
       7A    -11.219260     8A    -11.211763     9A     -1.468919
      10A     -1.365493    11A     -1.086888    12A     -1.029512
      13A     -0.982122    14A     -0.883977    15A     -0.810473
      16A     -0.776407    17A     -0.694812    18A     -0.682953
      19A     -0.668673    20A     -0.633393    21A     -0.603213
      22A     -0.595183    23A     -0.573832    24A     -0.549763
      25A     -0.540567    26A     -0.538590    27A     -0.509009
      28A     -0.487117    29A     -0.480043    30A     -0.474822
      31A     -0.447118    32A     -0.440370

  @DF-RHF Final Energy:  -384.08604919721108

   => Energetics <=

    Nuclear Repulsion Energy =            388.0433343832162336
    One-Electron Energy =               -1292.2964712423890887
    Two-Electron Energy =                 520.1670876619620003
    DFT Exchange-Correlation Energy =       0.0000000000000000
    Empirical Dispersion Energy =           0.0000000000000000
    PCM Polarization Energy =               0.0000000000000000
    EFP Energy =                            0.0000000000000000
    Total Energy =                       -384.0860491972108548
    Molecular point group: c1
  Basis Set: CC-PVTZ
  Basis Set:

  -Total Gradient:
     Atom            X                  Y                   Z
    ------   -----------------  -----------------  -----------------
       1       -0.000028761969    -0.000005733583     0.000028559621
       2        0.000835989887     0.000573567384    -0.000908026887
       3       -0.000011326747    -0.000007372729     0.000011861427
       4       -0.001437354611    -0.000966125772     0.001368600386
       5       -0.000003225893    -0.000007632552     0.000004775194
       6        0.000010109139    -0.000007851777     0.000007998873
       7       -0.000005502941     0.000003181559    -0.000002664567
       8        0.001682040643     0.001227726371    -0.001061346756
       9        0.000009758947    -0.000024803959    -0.000008511039
      10       -0.001058121426    -0.000766862718     0.000564824934
      11        0.000007916067    -0.000005866305    -0.000001327537
      12        0.000005472257    -0.000022676609    -0.000005084558
      13        0.000010483651     0.000002864137    -0.000003907594
      14       -0.000003161429    -0.000008865518    -0.000007470842
      15       -0.000005469103     0.000016538094     0.000011081535
      16        0.000000754618    -0.000001039647     0.000005767501
      17       -0.000003830328     0.000000540753    -0.000005047751
      18       -0.000004528533     0.000002938710     0.000005096141
      19       -0.000006038211     0.000000957049    -0.000005882721
      20        0.000004795980    -0.000003482891     0.000000704643

  **** Optimization is complete! (in 7 steps) ****
    Final optimized geometry and variables:
    Molecular point group: c1

    Geometry (in Angstrom), charge = 0, multiplicity = 1:

    O           -2.055001591749    -0.756041188273    -1.081935767626
    C           -1.784305405560     0.117315358029    -0.330653968056
    C           -2.534273752164     1.415795856545    -0.228779166482
    O           -0.783204895678     0.074091768252     0.531232975608
    H           -1.863119893615     2.240295774035    -0.432063329989
    H           -3.349751412806     1.418399474816    -0.933470595421
    H           -2.910500134178     1.539292158653     0.778472072056
    C            0.066041417448    -1.067675674385     0.568983977681
    C            1.488272415477    -0.622551979488     0.842235728321
    H           -0.019742286836    -1.607859889032    -0.360001557338
    H           -0.289893049642    -1.711187923874     1.363361627503
    C            2.114594693485     0.191947026274    -0.286039011081
    H            2.079355619858    -1.517722907604     1.016233327830
    H            1.508313822442    -0.051809110356     1.765560439065
    C            3.549646451813     0.609929988196     0.016237191597
    H            2.092778724832    -0.391147481019    -1.202474686928
    H            1.513382708833     1.075757455616    -0.468322904643
    H            3.969376661148     1.185373496649    -0.800453944837
    H            4.185996276610    -0.254813032950     0.172582487027
    H            3.598684272995     1.221400448728     0.911037271820

  Mulliken Charges: (a.u.)
   Center  Symbol    Alpha    Beta     Spin     Total
       1     O     4.19742  4.19742  0.00000 -0.39484
       2     C     2.80233  2.80233  0.00000  0.39535
       3     C     3.13988  3.13988  0.00000 -0.27977
       4     O     4.16005  4.16005  0.00000 -0.32011
       5     H     0.44670  0.44670  0.00000  0.10660
       6     H     0.43802  0.43802  0.00000  0.12396
       7     H     0.44564  0.44564  0.00000  0.10872
       8     C     2.99941  2.99941  0.00000  0.00119
       9     C     3.08256  3.08256  0.00000 -0.16512
      10     H     0.44036  0.44036  0.00000  0.11928
      11     H     0.44649  0.44649  0.00000  0.10701
      12     C     3.08863  3.08863  0.00000 -0.17727
      13     H     0.45180  0.45180  0.00000  0.09639
      14     H     0.45224  0.45224  0.00000  0.09551
      15     C     3.14979  3.14979  0.00000 -0.29958
      16     H     0.45204  0.45204  0.00000  0.09593
      17     H     0.45000  0.45000  0.00000  0.09999
      18     H     0.44712  0.44712  0.00000  0.10576
      19     H     0.45511  0.45511  0.00000  0.08978
      20     H     0.45439  0.45439  0.00000  0.09121

   Total alpha = 32.00000, Total beta = 32.00000, Total charge = -0.00000

*** Psi4 exiting successfully. Buy a developer a beer!
