  ==> Input File <==

--------------------------------------------------------------------------
set {
	reference rhf
	basis cc-pvtz
}

set_num_threads( 4 )
memory 2 gb

molecule MOL {
0 1

O	 0.712424	 2.100784	 0.222809
C	 -0.342784	 2.439417	 0.638652
C	 -1.598817	 1.606626	 0.621242
O	 -0.559170	 3.624106	 1.186434
C	 -1.413045	 0.229353	 0.001137
H	 -1.948650	 1.532464	 1.645741
H	 -2.354749	 2.177338	 0.091792
C	 -2.702562	 -0.586401	 0.000228
H	 -0.640439	 -0.305623	 0.541897
H	 -1.047575	 0.339771	 -1.013646
C	 -3.953810	 0.284959	 -0.000782
H	 -2.717793	 -1.238567	 -0.869075
H	 -2.719108	 -1.238472	 0.869576
H	 -3.983727	 0.924403	 -0.876454
H	 -4.852989	 -0.320147	 -0.001515
H	 -3.985140	 0.924399	 0.874841
C	 0.537799	 4.511419	 1.268015
H	 1.331146	 4.083333	 1.862633
H	 0.162475	 5.406313	 1.737231
H	 0.918707	 4.738425	 0.283332

	symmetry c1
}
set optking {
	frozen_dihedral = ("
		9 5 8 12
	")
}

ee = optimize('scf')
oeprop('DIPOLE', 'QUADRUPOLE', 'MULLIKEN_CHARGES')
f=open( 'psi4out.xyz', 'w' )
f.write( "20  " )
f.write( str(ee) + "\n" )
f.write( MOL.save_string_xyz() )
f.close()
--------------------------------------------------------------------------

    Molecular point group: c1
  Charge       = 0
  Multiplicity = 1
  Basis Set: CC-PVTZ
  Basis Set:
  @DF-RHF Final Energy:  -384.07328637469470
    Total Energy =                       -384.0732863746944759
    Molecular point group: c1
  Basis Set: CC-PVTZ
  Basis Set:
  Basis Set: CC-PVTZ
  Basis Set:
  @DF-RHF Final Energy:  -384.07411262362450
    Total Energy =                       -384.0741126236246146
  Basis Set: CC-PVTZ
  Basis Set:
  Basis Set: CC-PVTZ
  Basis Set:
  @DF-RHF Final Energy:  -384.07627499643661
    Total Energy =                       -384.0762749964367231
  Basis Set: CC-PVTZ
  Basis Set:
  Basis Set: CC-PVTZ
  Basis Set:
  @DF-RHF Final Energy:  -384.07629760225819
    Total Energy =                       -384.0762976022585917
  Basis Set: CC-PVTZ
  Basis Set:
  Basis Set: CC-PVTZ
  Basis Set:
  @DF-RHF Final Energy:  -384.07644514888989
    Total Energy =                       -384.0764451488893201
  Basis Set: CC-PVTZ
  Basis Set:
  Basis Set: CC-PVTZ
  Basis Set:
  @DF-RHF Final Energy:  -384.07653507973225
    Total Energy =                       -384.0765350797325937
  Basis Set: CC-PVTZ
  Basis Set:
  Basis Set: CC-PVTZ
  Basis Set:
  @DF-RHF Final Energy:  -384.07653664312119
    Total Energy =                       -384.0765366431203347
  Basis Set: CC-PVTZ
  Basis Set:
  Charge       = 0
  Multiplicity = 1
  Basis Set: CC-PVTZ
  Basis Set:

    Orbital Energies (a.u.)
    -----------------------

    Doubly Occupied:

       1A    -20.595959     2A    -20.533940     3A    -11.364231
       4A    -11.278271     5A    -11.232980     6A    -11.218929
       7A    -11.217769     8A    -11.211234     9A     -1.471919
      10A     -1.365514    11A     -1.087992    12A     -1.022310
      13A     -0.968084    14A     -0.897959    15A     -0.799143
      16A     -0.762787    17A     -0.703227    18A     -0.686378
      19A     -0.674777    20A     -0.643901    21A     -0.607823
      22A     -0.593715    23A     -0.566944    24A     -0.548240
      25A     -0.541034    26A     -0.523628    27A     -0.514260
      28A     -0.473773    29A     -0.468605    30A     -0.466321
      31A     -0.457712    32A     -0.440890

  @DF-RHF Final Energy:  -384.07653806059710

   => Energetics <=

    Nuclear Repulsion Energy =            386.3090129062846358
    One-Electron Energy =               -1288.8906050183859406
    Two-Electron Energy =                 518.5050540515043167
    DFT Exchange-Correlation Energy =       0.0000000000000000
    Empirical Dispersion Energy =           0.0000000000000000
    PCM Polarization Energy =               0.0000000000000000
    EFP Energy =                            0.0000000000000000
    Total Energy =                       -384.0765380605970449
    Molecular point group: c1
  Basis Set: CC-PVTZ
  Basis Set:

  -Total Gradient:
     Atom            X                  Y                   Z
    ------   -----------------  -----------------  -----------------
       1       -0.000006189823     0.000009496739    -0.000003741029
       2       -0.000007507813    -0.000005307381    -0.000004427463
       3       -0.000020847335     0.000001725202     0.000015128175
       4        0.000008171923     0.000002882228    -0.000002488118
       5        0.001578064364    -0.002696181083    -0.007399475176
       6       -0.000011293285     0.000002896942     0.000005595863
       7        0.000014956341     0.000010754686     0.000002280199
       8        0.003432042878    -0.004625132041     0.005456330874
       9       -0.001866191630     0.002939350766     0.005400215680
      10        0.000009079899    -0.000015182336    -0.000000139100
      11        0.000004941458     0.000029609826    -0.000014675006
      12       -0.003138429482     0.004355837090    -0.003455021965
      13        0.000012498048    -0.000021588077    -0.000004379427
      14       -0.000017724632    -0.000001367041    -0.000008248488
      15        0.000007192458     0.000001343936     0.000004988456
      16       -0.000000623700     0.000008792207     0.000002959450
      17        0.000001060214     0.000000895757     0.000005525292
      18        0.000003292170     0.000002695484     0.000000568976
      19        0.000000841002     0.000000820300    -0.000000401111
      20       -0.000003333061    -0.000002343201    -0.000000596083

  **** Optimization is complete! (in 8 steps) ****
    Final optimized geometry and variables:
    Molecular point group: c1

    Geometry (in Angstrom), charge = 0, multiplicity = 1:

    O            1.863143024593     0.283678293494    -0.289061310884
    C            0.821409363776     0.647491322684     0.139348079673
    C           -0.461316630253    -0.145049953797     0.123915671632
    O            0.644821065694     1.832362583351     0.701786831941
    C           -0.305090568179    -1.522730047662    -0.514644756599
    H           -0.798521238756    -0.220455781556     1.152569547777
    H           -1.198478957992     0.463151595767    -0.385503903968
    C           -1.569167701273    -2.403601137741    -0.466255034145
    H            0.487208506041    -2.020656657343     0.029559378217
    H            0.031964842415    -1.400181258626    -1.535547545500
    C           -2.906536285250    -1.663702368914    -0.540409888234
    H           -1.543097068255    -3.067467689469    -1.323393999667
    H           -1.555783259751    -3.019763972810     0.425678005343
    H           -2.968698191897    -1.044710835077    -1.429654437573
    H           -3.723121288257    -2.375099301526    -0.582249285889
    H           -3.075648890381    -1.026884919733     0.319449997062
    C            1.768144402183     2.685802174570     0.783430438549
    H            2.553542692425     2.228024952346     1.366411618577
    H            1.423542929381     3.586198694657     1.265573852782
    H            2.147426589116     2.912443078325    -0.201981434242

  Mulliken Charges: (a.u.)
   Center  Symbol    Alpha    Beta     Spin     Total
       1     O     4.19656  4.19656  0.00000 -0.39312
       2     C     2.81157  2.81157  0.00000  0.37685
       3     C     3.09960  3.09960  0.00000 -0.19920
       4     O     4.14659  4.14659  0.00000 -0.29318
       5     C     3.09003  3.09003  0.00000 -0.18006
       6     H     0.43926  0.43926  0.00000  0.12148
       7     H     0.43748  0.43748  0.00000  0.12504
       8     C     3.09062  3.09062  0.00000 -0.18124
       9     H     0.44346  0.44346  0.00000  0.11308
      10     H     0.44406  0.44406  0.00000  0.11188
      11     C     3.15931  3.15931  0.00000 -0.31863
      12     H     0.44900  0.44900  0.00000  0.10201
      13     H     0.45027  0.45027  0.00000  0.09947
      14     H     0.45326  0.45326  0.00000  0.09347
      15     H     0.44369  0.44369  0.00000  0.11262
      16     H     0.45310  0.45310  0.00000  0.09379
      17     C     3.03819  3.03819  0.00000 -0.07638
      18     H     0.45433  0.45433  0.00000  0.09133
      19     H     0.44520  0.44520  0.00000  0.10960
      20     H     0.45441  0.45441  0.00000  0.09118

   Total alpha = 32.00000, Total beta = 32.00000, Total charge = -0.00000
