  ==> Input File <==

--------------------------------------------------------------------------
set {
	reference rhf
	basis 6-31G*
}

set_num_threads( 4 )
memory 2 gb

molecule MOL {
0 1

H	 2.140556	 1.137100	 -1.052874
O	 1.266027	 0.764136	 -1.106570
C	 1.050492	 0.053836	 0.000068
C	 -0.318135	 -0.576402	 0.000164
O	 1.866583	 -0.043976	 0.857637
C	 -1.454360	 0.441875	 -0.000474
H	 -0.374042	 -1.230163	 -0.866135
H	 -0.374274	 -1.229227	 0.867154
C	 -2.826123	 -0.230780	 0.000056
H	 -1.357605	 1.085198	 -0.868380
H	 -1.357504	 1.086451	 0.866496
H	 -2.959731	 -0.858053	 -0.876869
H	 -3.619374	 0.509403	 -0.000080
H	 -2.959371	 -0.857318	 0.877556

	symmetry c1
}
set optking {
	frozen_dihedral = ("
		2 3 4 7
	")
}

ee = optimize('scf')
oeprop('DIPOLE', 'QUADRUPOLE', 'MULLIKEN_CHARGES')
f=open( 'psi4out.xyz', 'w' )
f.write( "14  " )
f.write( str(ee) + "\n" )
f.write( MOL.save_string_xyz() )
f.close()
--------------------------------------------------------------------------

    Molecular point group: c1
  Charge       = 0
  Multiplicity = 1
  Basis Set: 6-31G*
  Basis Set:
  @DF-RHF Final Energy:  -305.87913708133738
    Total Energy =                       -305.8791370813376602
    Molecular point group: c1
  Basis Set: 6-31G*
  Basis Set:
  Basis Set: 6-31G*
  Basis Set:
  @DF-RHF Final Energy:  -305.87943343140705
    Total Energy =                       -305.8794334314069374
  Basis Set: 6-31G*
  Basis Set:
  Basis Set: 6-31G*
  Basis Set:
  @DF-RHF Final Energy:  -305.87936052686177
    Total Energy =                       -305.8793605268616034
  Basis Set: 6-31G*
  Basis Set:
  Basis Set: 6-31G*
  Basis Set:
  @DF-RHF Final Energy:  -305.87944082191859
    Total Energy =                       -305.8794408219187630
  Basis Set: 6-31G*
  Basis Set:
  Basis Set: 6-31G*
  Basis Set:
  @DF-RHF Final Energy:  -305.87945160111951
    Total Energy =                       -305.8794516011195128
  Basis Set: 6-31G*
  Basis Set:
  Charge       = 0
  Multiplicity = 1
  Basis Set: 6-31G*
  Basis Set:

    Orbital Energies (a.u.)
    -----------------------

    Doubly Occupied:

       1A    -20.613320     2A    -20.550374     3A    -11.380372
       4A    -11.240015     5A    -11.234601     6A    -11.220908
       7A     -1.474374     8A     -1.364712     9A     -1.086376
      10A     -0.979531    11A     -0.848847    12A     -0.813040
      13A     -0.701221    14A     -0.684952    15A     -0.647637
      16A     -0.629602    17A     -0.593032    18A     -0.565190
      19A     -0.552959    20A     -0.519514    21A     -0.499638
      22A     -0.488171    23A     -0.473397    24A     -0.437819

  @DF-RHF Final Energy:  -305.87945170467049

   => Energetics <=

    Nuclear Repulsion Energy =            240.4247820445109198
    One-Electron Energy =                -893.4092613687162157
    Two-Electron Energy =                 347.1050276195345532
    DFT Exchange-Correlation Energy =       0.0000000000000000
    Empirical Dispersion Energy =           0.0000000000000000
    PCM Polarization Energy =               0.0000000000000000
    EFP Energy =                            0.0000000000000000
    Total Energy =                       -305.8794517046707142
    Molecular point group: c1
  Basis Set: 6-31G*
  Basis Set:

  -Total Gradient:
     Atom            X                  Y                   Z
    ------   -----------------  -----------------  -----------------
       1        0.000014677751     0.000049941980    -0.000018069872
       2       -0.000028681802     0.000142558079     0.000117602631
       3        0.000092099673    -0.000342909783    -0.000046127494
       4       -0.000200343171     0.000383823701    -0.000093171683
       5        0.000003695625     0.000039383318    -0.000067556076
       6        0.000019139921    -0.000097847052    -0.000037892598
       7        0.000091573606    -0.000205334577     0.000124837202
       8        0.000011528037    -0.000050260667     0.000021999719
       9        0.000018512706     0.000053987216    -0.000000535689
      10       -0.000041214325     0.000045378303    -0.000018847207
      11       -0.000011502275    -0.000042462189     0.000003744480
      12        0.000038782684     0.000007643040     0.000012930303
      13       -0.000016072308     0.000005239557    -0.000008995029
      14        0.000007803878     0.000010859073     0.000010081312

  **** Optimization is complete! (in 6 steps) ****
    Final optimized geometry and variables:
    Molecular point group: c1

    Geometry (in Angstrom), charge = 0, multiplicity = 1:

    H            2.180528749746     1.084381292890    -0.957336563075
    O            1.307639651056     0.710326588389    -1.028132399794
    C            1.088385658661    -0.035171896362     0.055267909991
    C           -0.277590555259    -0.669765832647     0.047482232806
    O            1.904148654830    -0.158774570495     0.910022685946
    C           -1.415905638475     0.360028718682     0.036257868503
    H           -0.346658518700    -1.301655780504    -0.833516165137
    H           -0.338954031034    -1.303460747873     0.922575732453
    C           -2.788360085141    -0.309598314789     0.068161645352
    H           -1.329744007017     0.982652999705    -0.847123076803
    H           -1.312732588633     1.016597857427     0.896085697792
    H           -2.929309399280    -0.955705154801    -0.793435686801
    H           -3.580457881303     0.431843293638     0.059260537669
    H           -2.910610157493    -0.915077943517     0.961242782558

  Mulliken Charges: (a.u.)
   Center  Symbol    Alpha    Beta     Spin     Total
       1     H     0.26747  0.26747  0.00000  0.46506
       2     O     4.34747  4.34747  0.00000 -0.69493
       3     C     2.63113  2.63113  0.00000  0.73774
       4     C     3.19999  3.19999  0.00000 -0.39999
       5     O     4.27865  4.27865  0.00000 -0.55730
       6     C     3.16404  3.16404  0.00000 -0.32807
       7     H     0.40241  0.40241  0.00000  0.19517
       8     H     0.39709  0.39709  0.00000  0.20582
       9     C     3.24150  3.24150  0.00000 -0.48300
      10     H     0.40560  0.40560  0.00000  0.18880
      11     H     0.41310  0.41310  0.00000  0.17381
      12     H     0.41903  0.41903  0.00000  0.16194
      13     H     0.41446  0.41446  0.00000  0.17108
      14     H     0.41807  0.41807  0.00000  0.16386

   Total alpha = 24.00000, Total beta = 24.00000, Total charge =  0.00000
