  ==> Input File <==

--------------------------------------------------------------------------
set {
	reference rhf
	basis cc-pvtz
}

set_num_threads( 4 )
memory 2 gb

molecule MOL {
0 1

H	 -1.268085	 -1.568714	 -4.113245
C	 -0.632639	 -1.359045	 -3.275175
C	 -0.781999	 -2.057743	 -2.085492
C	 0.343432	 -0.393775	 -3.361283
H	 -1.538388	 -2.814732	 -1.999609
C	 0.029978	 -1.792327	 -1.009263
H	 0.474108	 0.157236	 -4.273424
C	 1.172176	 -0.113014	 -2.283895
H	 -0.077154	 -2.326380	 -0.085693
C	 1.015139	 -0.814918	 -1.102900
H	 1.922164	 0.644068	 -2.382929
O	 1.760432	 -0.625184	 0.000000
C	 2.773565	 0.334879	 0.000000
H	 2.728295	 0.960928	 -0.884150
H	 3.706387	 -0.206610	 0.000000
H	 2.728295	 0.960928	 0.884150

	symmetry c1
}
set optking {
	frozen_dihedral = ("
		10 12 13 14
	")
}

ee = optimize('scf')
oeprop('DIPOLE', 'QUADRUPOLE', 'MULLIKEN_CHARGES')
f=open( 'psi4out.xyz', 'w' )
f.write( "16  " )
f.write( str(ee) + "\n" )
f.write( MOL.save_string_xyz() )
f.close()
--------------------------------------------------------------------------

    Molecular point group: c1
  Charge       = 0
  Multiplicity = 1
  Basis Set: CC-PVTZ
  Basis Set:
  @DF-RHF Final Energy:  -344.69556959021037
    Total Energy =                       -344.6955695902106527
    Molecular point group: c1
  Basis Set: CC-PVTZ
  Basis Set:
  Basis Set: CC-PVTZ
  Basis Set:
  @DF-RHF Final Energy:  -344.69485916981557
    Total Energy =                       -344.6948591698156292
  Basis Set: CC-PVTZ
  Basis Set:
  Basis Set: CC-PVTZ
  Basis Set:
  @DF-RHF Final Energy:  -344.69832411567688
    Total Energy =                       -344.6983241156769964
  Basis Set: CC-PVTZ
  Basis Set:
  Basis Set: CC-PVTZ
  Basis Set:
  @DF-RHF Final Energy:  -344.69879539623821
    Total Energy =                       -344.6987953962382676
  Basis Set: CC-PVTZ
  Basis Set:
  @DF-RHF Final Energy:  -344.69960605369459
    Total Energy =                       -344.6996060536944242
  @DF-RHF Final Energy:  -344.69981094124591
    Total Energy =                       -344.6998109412457438
  Basis Set: CC-PVTZ
  Basis Set:
  @DF-RHF Final Energy:  -344.69983674474565
    Total Energy =                       -344.6998367447455394
  Basis Set: CC-PVTZ
  Basis Set:
  Basis Set: CC-PVTZ
  Basis Set:
  @DF-RHF Final Energy:  -344.69984894584530
    Total Energy =                       -344.6998489458451331
  Basis Set: CC-PVTZ
  Basis Set:
  Basis Set: CC-PVTZ
  Basis Set:
  @DF-RHF Final Energy:  -344.69985042200557
    Total Energy =                       -344.6998504220056816
  Basis Set: CC-PVTZ
  Basis Set:
  Charge       = 0
  Multiplicity = 1
  Basis Set: CC-PVTZ
  Basis Set:

    Orbital Energies (a.u.)
    -----------------------

    Doubly Occupied:

       1A    -20.573522     2A    -11.291867     3A    -11.277036
       4A    -11.231542     5A    -11.230126     6A    -11.222702
       7A    -11.218675     8A    -11.218579     9A     -1.412180
      10A     -1.151271    11A     -1.024005    12A     -1.017254
      13A     -0.941664    14A     -0.835893    15A     -0.808745
      16A     -0.723081    17A     -0.667335    18A     -0.666871
      19A     -0.652511    20A     -0.617700    21A     -0.593356
      22A     -0.584140    23A     -0.528250    24A     -0.518135
      25A     -0.511472    26A     -0.484029    27A     -0.455676
      28A     -0.339536    29A     -0.313172

  @DF-RHF Final Energy:  -344.69985070340692

   => Energetics <=

    Nuclear Repulsion Energy =            348.3805489601439831
    One-Electron Energy =               -1157.9401531704452282
    Two-Electron Energy =                 464.8597535068942079
    DFT Exchange-Correlation Energy =       0.0000000000000000
    Empirical Dispersion Energy =           0.0000000000000000
    PCM Polarization Energy =               0.0000000000000000
    EFP Energy =                            0.0000000000000000
    Total Energy =                       -344.6998507034070371
    Molecular point group: c1
  Basis Set: CC-PVTZ
  Basis Set:

  -Total Gradient:
     Atom            X                  Y                   Z
    ------   -----------------  -----------------  -----------------
       1       -0.000008623832    -0.000001464312     0.000005889125
       2        0.000011459723     0.000010086061     0.000004314096
       3        0.000009689658    -0.000011310015    -0.000013625432
       4       -0.000008626676    -0.000018047353    -0.000022765498
       5       -0.000006271460     0.000002974294    -0.000010420730
       6        0.000012078461    -0.000008633347     0.000040318449
       7       -0.000008160558     0.000000773422     0.000003969964
       8        0.000025966188     0.000012940206     0.000020277272
       9        0.000000168222     0.000004032997    -0.000008880623
      10       -0.001570970289     0.000584523075     0.001186840036
      11       -0.000010318787    -0.000015643614     0.000008636949
      12        0.002710122341    -0.000941277496    -0.002337108773
      13       -0.002665086185     0.000798449069     0.002868696325
      14        0.001514734666    -0.000451708416    -0.001745502735
      15        0.000007032789     0.000017891896    -0.000001475912
      16       -0.000013194257     0.000016413535     0.000000837492

  **** Optimization is complete! (in 10 steps) ****
    Final optimized geometry and variables:
    Molecular point group: c1

    Geometry (in Angstrom), charge = 0, multiplicity = 1:

    H           -2.248815107829    -0.577364108952    -2.405933257077
    C           -1.530620332218    -0.437012599951    -1.621796725770
    C           -1.676504281524    -1.091933518988    -0.410790674609
    C           -0.445925306773     0.393991183224    -1.807556024526
    H           -2.514065813943    -1.744278573232    -0.251305626564
    C           -0.758770067442    -0.910512336265     0.601141152906
    H           -0.312433476989     0.900657322195    -2.744603060065
    C            0.488007110242     0.578554438763    -0.802591044734
    H           -0.863617517934    -1.411026390141     1.543529128908
    C            0.326710910700    -0.069299424608     0.409960299123
    H            1.337594443009     1.209153011367    -0.974273553567
    O            1.209095747262     0.028437385107     1.424778229618
    C            1.858894507500     1.242475110268     1.691761285664
    H            1.437038447796     2.059896713578     1.124301180624
    H            2.910640313132     1.159325925606     1.445665986756
    H            1.760970221706     1.449792055430     2.748075141488

  Mulliken Charges: (a.u.)
   Center  Symbol    Alpha    Beta     Spin     Total
       1     H     0.42421  0.42421  0.00000  0.15158
       2     C     3.09721  3.09721  0.00000 -0.19441
       3     C     3.06026  3.06026  0.00000 -0.12051
       4     C     3.06474  3.06474  0.00000 -0.12948
       5     H     0.42278  0.42278  0.00000  0.15443
       6     C     3.11083  3.11083  0.00000 -0.22165
       7     H     0.42285  0.42285  0.00000  0.15429
       8     C     3.12908  3.12908  0.00000 -0.25817
       9     H     0.41923  0.41923  0.00000  0.16153
      10     C     2.85665  2.85665  0.00000  0.28671
      11     H     0.42347  0.42347  0.00000  0.15306
      12     O     4.16385  4.16385  0.00000 -0.32770
      13     C     3.03914  3.03914  0.00000 -0.07829
      14     H     0.46426  0.46426  0.00000  0.07147
      15     H     0.45459  0.45459  0.00000  0.09082
      16     H     0.44685  0.44685  0.00000  0.10630

   Total alpha = 29.00000, Total beta = 29.00000, Total charge = -0.00000
