                              Psi4 1.0.54 Driver

  ==> Input File <==

--------------------------------------------------------------------------
set {
	reference rhf
	basis cc-pvtz
}

set_num_threads( 4 )
memory 2 gb

molecule MOL {
0 1

O	 2.868453	 1.353349	 -0.000734
C	 2.841259	 0.166180	 -0.000295
C	 1.542794	 -0.614730	 -0.000853
C	 4.113372	 -0.651103	 0.000743
C	 0.288398	 0.247429	 0.000314
H	 1.557171	 -1.273139	 -0.866508
H	 1.557484	 -1.274998	 0.863344
C	 0.533635	 1.640710	 -0.572171
H	 -0.087650	 0.326511	 1.013945
H	 -0.487440	 -0.253036	 -0.567793
C	 -0.716504	 2.515618	 -0.576452
H	 1.314514	 2.135713	 0.000955
H	 0.912498	 1.553541	 -1.588107
C	 -0.479318	 3.910874	 -1.147188
H	 -1.095821	 2.603544	 0.438684
H	 -1.497400	 2.022021	 -1.149767
C	 -1.733033	 4.779198	 -1.148063
H	 0.300274	 4.405459	 -0.573986
H	 -0.101358	 3.823986	 -2.162331
H	 -2.116288	 4.913927	 -0.142078
H	 -1.530510	 5.761696	 -1.558798
H	 -2.520782	 4.328301	 -1.742358
H	 4.145311	 -1.294584	 -0.871587
H	 4.970080	 0.004978	 -0.000091
H	 4.145223	 -1.291980	 0.874988

	symmetry c1
}
set optking {
	frozen_dihedral = ("
		9 5 3 6
	")
}

ee,wfn = optimize('scf', return_wfn=True)
oeprop( wfn, 'DIPOLE', 'QUADRUPOLE', 'MULLIKEN_CHARGES')
f=open( 'psi4out.xyz', 'w' )
f.write( "25  " )
f.write( str(ee) + "\n" )
f.write( MOL.save_string_xyz() )
f.close()
--------------------------------------------------------------------------

    Molecular point group: c1
  Charge       = 0
  Multiplicity = 1
  Basis Set: CC-PVTZ
  Basis Set:
  @DF-RHF Final Energy:  -387.24050377959151
    Total Energy =                       -387.2405037795915632
    Molecular point group: c1
  Basis Set: CC-PVTZ
  Basis Set:
  Basis Set: CC-PVTZ
  Basis Set:
  @DF-RHF Final Energy:  -387.25943472556821
    Total Energy =                       -387.2594347255685534
  Basis Set: CC-PVTZ
  Basis Set:
  Basis Set: CC-PVTZ
  Basis Set:
  @DF-RHF Final Energy:  -387.26348570284364
    Total Energy =                       -387.2634857028433544
  Basis Set: CC-PVTZ
  Basis Set:
  Basis Set: CC-PVTZ
  Basis Set:
  @DF-RHF Final Energy:  -387.26402057782491
    Total Energy =                       -387.2640205778251357
  Basis Set: CC-PVTZ
  Basis Set:
  @DF-RHF Final Energy:  -387.26347937705594
    Total Energy =                       -387.2634793770564556
  @DF-RHF Final Energy:  -387.26623797464754
    Total Energy =                       -387.2662379746474244
  @DF-RHF Final Energy:  -387.26633873628271
    Total Energy =                       -387.2663387362829326
  @DF-RHF Final Energy:  -387.26700800830770
    Total Energy =                       -387.2670080083076982
  @DF-RHF Final Energy:  -387.26722600462881
    Total Energy =                       -387.2672260046291512
  Basis Set: CC-PVTZ
  Basis Set:
  @DF-RHF Final Energy:  -387.26728202684035
    Total Energy =                       -387.2672820268405758
  Basis Set: CC-PVTZ
  Basis Set:
  Basis Set: CC-PVTZ
  Basis Set:
  @DF-RHF Final Energy:  -387.26728695252496
    Total Energy =                       -387.2672869525245005
  Basis Set: CC-PVTZ
  Basis Set:
  Basis Set: CC-PVTZ
  Basis Set:
  @DF-RHF Final Energy:  -387.26729208657264
    Total Energy =                       -387.2672920865726383
  Basis Set: CC-PVTZ
  Basis Set:
  Charge       = 0
  Multiplicity = 1
  Basis Set: CC-PVTZ
  Basis Set:

    Orbital Energies (a.u.)
    -----------------------

    Doubly Occupied:

       1A    -20.537173     2A    -11.321818     3A    -11.230880
       4A    -11.227175     5A    -11.220700     6A    -11.209830
       7A    -11.208580     8A    -11.207402     9A    -11.203960
      10A     -1.398496    11A     -1.091064    12A     -1.055213
      13A     -1.014378    14A     -0.968994    15A     -0.891281
      16A     -0.818276    17A     -0.789105    18A     -0.726430
      19A     -0.664920    20A     -0.642265    21A     -0.632462
      22A     -0.622807    23A     -0.598072    24A     -0.585525
      25A     -0.566058    26A     -0.562410    27A     -0.537394
      28A     -0.531158    29A     -0.512774    30A     -0.496539
      31A     -0.485512    32A     -0.470025    33A     -0.461927
      34A     -0.458600    35A     -0.442267    36A     -0.399913

  @DF-RHF Final Energy:  -387.26729221295426

   => Energetics <=

    Nuclear Repulsion Energy =            449.6108690327138788
    One-Electron Energy =               -1416.1735523519992057
    Two-Electron Energy =                 579.2953911063307260
    DFT Exchange-Correlation Energy =       0.0000000000000000
    Empirical Dispersion Energy =           0.0000000000000000
    PCM Polarization Energy =               0.0000000000000000
    EFP Energy =                            0.0000000000000000
    Total Energy =                       -387.2672922129545441
    Molecular point group: c1
  Basis Set: CC-PVTZ
  Basis Set:

  -Total Gradient:
     Atom            X                  Y                   Z
    ------   -----------------  -----------------  -----------------
       1       -0.000001435020     0.000000754506    -0.000017823131
       2        0.000002689195    -0.000021535696     0.000000514666
       3        0.003701027801     0.004325069081    -0.005371840566
       4       -0.000005378340     0.000010372243    -0.000009126121
       5        0.004372870013     0.005979487716     0.001791681291
       6       -0.003791574271    -0.004566045948     0.004159108840
       7       -0.000003446257     0.000008868171     0.000007153432
       8       -0.000020955852    -0.000020544717     0.000019198278
       9       -0.004299649378    -0.005743197531    -0.000617245488
      10       -0.000008565262    -0.000004431306    -0.000000623156
      11        0.000010418876     0.000008351920     0.000010452612
      12        0.000023483482     0.000014570590     0.000013593693
      13        0.000002298107    -0.000008395257     0.000001771603
      14       -0.000001609045    -0.000005272451    -0.000012328089
      15        0.000001034766    -0.000003330457    -0.000000250085
      16        0.000004583604    -0.000003174853     0.000001540531
      17        0.000002779542     0.000002578942     0.000002981553
      18       -0.000002024820    -0.000000377025    -0.000000355664
      19        0.000000006201     0.000003921496    -0.000003694344
      20        0.000000118018    -0.000001560667    -0.000000745488
      21        0.000000060232     0.000001442088     0.000000969582
      22        0.000001532941    -0.000001034559    -0.000000620765
      23       -0.000000191695     0.000000562189     0.000031840147
      24        0.000016828629    -0.000002751027    -0.000004067531
      25       -0.000004901465     0.000025672556    -0.000002085799

  **** Optimization is complete! (in 13 steps) ****
    Final optimized geometry and variables:
    Molecular point group: c1

    Geometry (in Angstrom), charge = 0, multiplicity = 1:

    O            2.068690031815    -0.318794138022     1.371076378847
    C            1.912978207384    -1.330215250249     0.768004176357
    C            0.549314980694    -1.969909194753     0.611986493129
    C            3.079397975920    -2.078746022817     0.168379741691
    C           -0.675112515212    -1.042834686882     0.516314178781
    H            0.544126636312    -2.697032808232    -0.191904424455
    H            0.445105652847    -2.580702049943     1.508406193538
    C           -0.496323438577     0.253820539567    -0.268414285547
    H           -1.070759832277    -0.852543782437     1.507150699565
    H           -1.453142202503    -1.625533509176     0.029328217629
    C           -1.812672497619     1.001114758871    -0.463858336104
    H            0.211997335091     0.895354806109     0.236791106343
    H           -0.069164857734     0.025286656887    -1.243687834037
    C           -1.655249220386     2.308409948347    -1.235226431076
    H           -2.251330726254     1.211832822249     0.508778338951
    H           -2.521836090697     0.361689440210    -0.984914953913
    C           -2.971585930325     3.054547934289    -1.425796189727
    H           -0.950150301968     2.948990222225    -0.713396352979
    H           -1.215627024112     2.100848204028    -2.207208575254
    H           -3.419501608409     3.307652321974    -0.470552263467
    H           -2.824601712162     3.976864307488    -1.976106299194
    H           -3.687492297445     2.452242384645    -1.975517427187
    H            2.997876280973    -2.065111412641    -0.913564589143
    H            4.008363267396    -1.618372957856     0.467794849765
    H            3.062759748706    -3.117947551732     0.478165642516

  Mulliken Charges: (a.u.)
   Center  Symbol    Alpha    Beta     Spin     Total
       1     O     4.17756  4.17756  0.00000 -0.35511
       2     C     2.84986  2.84986  0.00000  0.30029
       3     C     3.12666  3.12666  0.00000 -0.25331
       4     C     3.15285  3.15285  0.00000 -0.30570
       5     C     3.08599  3.08599  0.00000 -0.17199
       6     H     0.44100  0.44100  0.00000  0.11801
       7     H     0.43810  0.43810  0.00000  0.12381
       8     C     3.09784  3.09784  0.00000 -0.19568
       9     H     0.44722  0.44722  0.00000  0.10556
      10     H     0.45184  0.45184  0.00000  0.09632
      11     C     3.08788  3.08788  0.00000 -0.17576
      12     H     0.43417  0.43417  0.00000  0.13166
      13     H     0.45934  0.45934  0.00000  0.08132
      14     C     3.08317  3.08317  0.00000 -0.16634
      15     H     0.45453  0.45453  0.00000  0.09094
      16     H     0.45696  0.45696  0.00000  0.08607
      17     C     3.15102  3.15102  0.00000 -0.30203
      18     H     0.45242  0.45242  0.00000  0.09517
      19     H     0.45592  0.45592  0.00000  0.08816
      20     H     0.45496  0.45496  0.00000  0.09008
      21     H     0.44860  0.44860  0.00000  0.10280
      22     H     0.45616  0.45616  0.00000  0.08768
      23     H     0.44928  0.44928  0.00000  0.10144
      24     H     0.43641  0.43641  0.00000  0.12719
      25     H     0.45028  0.45028  0.00000  0.09944

   Total alpha = 36.00000, Total beta = 36.00000, Total charge = -0.00000

*** Psi4 exiting successfully. Buy a developer a beer!
