  ==> Input File <==

--------------------------------------------------------------------------
set {
	reference rhf
	basis 6-31G*
}

set_num_threads( 4 )
memory 2 gb

molecule MOL {
0 1

H	 2.465338	 -2.224223	 0.000000
O	 2.784187	 -1.332015	 0.000000
C	 1.765313	 -0.449364	 0.000000
C	 1.802880	 0.569371	 0.946949
C	 0.713162	 -0.527731	 -0.891612
H	 2.631324	 0.608720	 1.628850
C	 0.789158	 1.503651	 0.997473
H	 0.658707	 -1.301855	 -1.631404
C	 -0.287960	 0.426929	 -0.812897
H	 0.826147	 2.286793	 1.731760
C	 -0.279081	 1.446429	 0.112354
N	 -1.398703	 0.339431	 -1.758455
H	 -1.072808	 2.163842	 0.139203
O	 -1.382879	 -0.553888	 -2.550771
O	 -2.256178	 1.164934	 -1.683987

	symmetry c1
}
set optking {
	frozen_dihedral = ("
		4 3 2 1
	")
}

ee = optimize('scf')
oeprop('DIPOLE', 'QUADRUPOLE', 'MULLIKEN_CHARGES')
f=open( 'psi4out.xyz', 'w' )
f.write( "15  " )
f.write( str(ee) + "\n" )
f.write( MOL.save_string_xyz() )
f.close()
--------------------------------------------------------------------------

    Molecular point group: c1
  Charge       = 0
  Multiplicity = 1
  Basis Set: 6-31G*
  Basis Set:
  @DF-RHF Final Energy:  -509.02478217741287
    Total Energy =                       -509.0247821774125896
    Molecular point group: c1
  Basis Set: 6-31G*
  Basis Set:
  Basis Set: 6-31G*
  Basis Set:
  @DF-RHF Final Energy:  -509.02483240977284
    Total Energy =                       -509.0248324097726709
  Basis Set: 6-31G*
  Basis Set:
  Basis Set: 6-31G*
  Basis Set:
  @DF-RHF Final Energy:  -509.02450567723429
    Total Energy =                       -509.0245056772344014
  Basis Set: 6-31G*
  Basis Set:
  Basis Set: 6-31G*
  Basis Set:
  @DF-RHF Final Energy:  -509.02502330918043
    Total Energy =                       -509.0250233091805967
  Basis Set: 6-31G*
  Basis Set:
  Basis Set: 6-31G*
  Basis Set:
  @DF-RHF Final Energy:  -509.02497855727114
    Total Energy =                       -509.0249785572714245
  Basis Set: 6-31G*
  Basis Set:
  Basis Set: 6-31G*
  Basis Set:
  @DF-RHF Final Energy:  -509.02506591034899
    Total Energy =                       -509.0250659103487578
  Basis Set: 6-31G*
  Basis Set:
  Charge       = 0
  Multiplicity = 1
  Basis Set: 6-31G*
  Basis Set:

    Orbital Energies (a.u.)
    -----------------------

    Doubly Occupied:

       1A    -20.606647     2A    -20.604693     3A    -20.604362
       4A    -15.859307     5A    -11.324874     6A    -11.310303
       7A    -11.268393     8A    -11.267548     9A    -11.266062
      10A    -11.262894    11A     -1.638020    12A     -1.425278
      13A     -1.421309    14A     -1.200838    15A     -1.094872
      16A     -1.046549    17A     -0.965125    18A     -0.873118
      19A     -0.829673    20A     -0.791339    21A     -0.744859
      22A     -0.736979    23A     -0.723329    24A     -0.708608
      25A     -0.675803    26A     -0.639775    27A     -0.625621
      28A     -0.571736    29A     -0.555326    30A     -0.537832
      31A     -0.513767    32A     -0.491222    33A     -0.488050
      34A     -0.454725    35A     -0.377150    36A     -0.351919

  @DF-RHF Final Energy:  -509.02506672235330

   => Energetics <=

    Nuclear Repulsion Energy =            503.0707470465092115
    One-Electron Energy =               -1692.4758194512469345
    Two-Electron Energy =                 680.3800056823843079
    DFT Exchange-Correlation Energy =       0.0000000000000000
    Empirical Dispersion Energy =           0.0000000000000000
    PCM Polarization Energy =               0.0000000000000000
    EFP Energy =                            0.0000000000000000
    Total Energy =                       -509.0250667223533583
    Molecular point group: c1
  Basis Set: 6-31G*
  Basis Set:

  -Total Gradient:
     Atom            X                  Y                   Z
    ------   -----------------  -----------------  -----------------
       1        0.000052908854    -0.000055892332     0.002445365048
       2       -0.000431097693    -0.000526769994    -0.002471734006
       3        0.001159956661     0.001587709272    -0.001272392057
       4       -0.000933974608    -0.000908106356     0.001209101682
       5        0.000152037254    -0.000097329397     0.000068583259
       6        0.000002784817    -0.000009496715    -0.000006354701
       7        0.000123237897    -0.000082659087     0.000095553849
       8       -0.000001292924     0.000009185420    -0.000015588174
       9       -0.000089973617     0.000133079855     0.000098608140
      10       -0.000015199728     0.000006074674    -0.000006040705
      11       -0.000035183635    -0.000045658597    -0.000189700437
      12       -0.000024758896    -0.000044872757     0.000001728180
      13       -0.000003910881     0.000003080799     0.000019183448
      14        0.000031621501     0.000001370031     0.000003528672
      15        0.000012845008     0.000030285179     0.000020157805

  **** Optimization is complete! (in 7 steps) ****
    Final optimized geometry and variables:
    Molecular point group: c1

    Geometry (in Angstrom), charge = 0, multiplicity = 1:

    H            2.275535255150    -2.445394750554     0.594206684056
    O            2.600317730135    -1.555028840225     0.598845376472
    C            1.574158007104    -0.664320826265     0.628828177165
    C            1.607533572149     0.349552326749     1.575660018232
    C            0.526390817799    -0.743304227788    -0.269302795878
    H            2.431141084138     0.385345669148     2.263769406944
    C            0.598051185257     1.294236639483     1.617138474270
    H            0.490353329472    -1.513046973047    -1.013817178122
    C           -0.476886466692     0.206370016489    -0.192532215779
    H            0.632223591846     2.078935134792     2.349823711758
    C           -0.465025840704     1.231966807348     0.730746198729
    N           -1.588653253946     0.117858183985    -1.135594606635
    H           -1.258948181338     1.949575628414     0.752989770567
    O           -1.591652926637    -0.795226906306    -1.904671208663
    O           -2.429784866952     0.962104288635    -1.080577752039

  Mulliken Charges: (a.u.)
   Center  Symbol    Alpha    Beta     Spin     Total
       1     H     0.26790  0.26790  0.00000  0.46421
       2     O     4.38180  4.38180  0.00000 -0.76360
       3     C     2.80740  2.80740  0.00000  0.38520
       4     C     3.10434  3.10434  0.00000 -0.20868
       5     C     3.12197  3.12197  0.00000 -0.24394
       6     H     0.38133  0.38133  0.00000  0.23733
       7     C     3.10370  3.10370  0.00000 -0.20740
       8     H     0.36365  0.36365  0.00000  0.27270
       9     C     2.91624  2.91624  0.00000  0.16753
      10     H     0.38651  0.38651  0.00000  0.22699
      11     C     3.09318  3.09318  0.00000 -0.18637
      12     N     3.24049  3.24049  0.00000  0.51903
      13     H     0.36453  0.36453  0.00000  0.27093
      14     O     4.23445  4.23445  0.00000 -0.46890
      15     O     4.23252  4.23252  0.00000 -0.46503

   Total alpha = 36.00000, Total beta = 36.00000, Total charge = -0.00000
