  ==> Input File <==

--------------------------------------------------------------------------
set {
	reference rhf
	basis 6-31G*
}

set_num_threads( 4 )
memory 2 gb

molecule MOL {
0 1

O	 -1.276010	 1.052711	 -0.768302
C	 -1.204840	 0.067374	 -0.106123
C	 -2.388195	 -0.672128	 0.458071
O	 -0.067104	 -0.527208	 0.221609
H	 -2.388023	 -1.694060	 0.097175
H	 -3.300579	 -0.174919	 0.164318
H	 -2.315377	 -0.706351	 1.539059
C	 1.170111	 0.034140	 -0.238951
C	 1.633373	 0.977623	 0.856866
C	 0.952867	 0.731479	 -1.572806
H	 1.876391	 -0.773970	 -0.359922
H	 1.760480	 0.444845	 1.792408
H	 2.583291	 1.426874	 0.586383
H	 0.909973	 1.771122	 1.010831
H	 1.880644	 1.178313	 -1.915712
H	 0.619314	 0.027297	 -2.324369
H	 0.211134	 1.517570	 -1.473294

	symmetry c1
}
set optking {
	frozen_dihedral = ("
		11 8 4 2
	")
}

ee = optimize('scf')
oeprop('DIPOLE', 'QUADRUPOLE', 'MULLIKEN_CHARGES')
f=open( 'psi4out.xyz', 'w' )
f.write( "17  " )
f.write( str(ee) + "\n" )
f.write( MOL.save_string_xyz() )
f.close()
--------------------------------------------------------------------------

    Molecular point group: c1
  Charge       = 0
  Multiplicity = 1
  Basis Set: 6-31G*
  Basis Set:
  @DF-RHF Final Energy:  -344.88049468103509
    Total Energy =                       -344.8804946810350884
    Molecular point group: c1
  Basis Set: 6-31G*
  Basis Set:
  Basis Set: 6-31G*
  Basis Set:
  @DF-RHF Final Energy:  -344.90083100111167
    Total Energy =                       -344.9008310011120102
  Basis Set: 6-31G*
  Basis Set:
  Basis Set: 6-31G*
  Basis Set:
  @DF-RHF Final Energy:  -344.90536854877314
    Total Energy =                       -344.9053685487727989
  Basis Set: 6-31G*
  Basis Set:
  Basis Set: 6-31G*
  Basis Set:
  @DF-RHF Final Energy:  -344.90376255832012
    Total Energy =                       -344.9037625583204090
  Basis Set: 6-31G*
  Basis Set:
  @DF-RHF Final Energy:  -344.90657567389383
    Total Energy =                       -344.9065756738939967
  Basis Set: 6-31G*
  Basis Set:
  @DF-RHF Final Energy:  -344.90677925347717
    Total Energy =                       -344.9067792534772821
  Basis Set: 6-31G*
  Basis Set:
  Basis Set: 6-31G*
  Basis Set:
  @DF-RHF Final Energy:  -344.90679914768435
    Total Energy =                       -344.9067991476840689
  Basis Set: 6-31G*
  Basis Set:
  Basis Set: 6-31G*
  Basis Set:
  @DF-RHF Final Energy:  -344.90680191895291
    Total Energy =                       -344.9068019189526240
  Basis Set: 6-31G*
  Basis Set:
  Charge       = 0
  Multiplicity = 1
  Basis Set: 6-31G*
  Basis Set:

    Orbital Energies (a.u.)
    -----------------------

    Doubly Occupied:

       1A    -20.596192     2A    -20.540540     3A    -11.374499
       4A    -11.295414     5A    -11.230369     6A    -11.217800
       7A    -11.213298     8A     -1.460504     9A     -1.360509
      10A     -1.077423    11A     -1.002768    12A     -0.946364
      13A     -0.866782    14A     -0.733239    15A     -0.692450
      16A     -0.670908    17A     -0.658575    18A     -0.616436
      19A     -0.583900    20A     -0.580064    21A     -0.568081
      22A     -0.551348    23A     -0.529621    24A     -0.517882
      25A     -0.501804    26A     -0.481246    27A     -0.443076
      28A     -0.427974

  @DF-RHF Final Energy:  -344.90680279216662

   => Energetics <=

    Nuclear Repulsion Energy =            325.7064760558247940
    One-Electron Energy =               -1115.7484237075314013
    Two-Electron Energy =                 445.1351448595399347
    DFT Exchange-Correlation Energy =       0.0000000000000000
    Empirical Dispersion Energy =           0.0000000000000000
    PCM Polarization Energy =               0.0000000000000000
    EFP Energy =                            0.0000000000000000
    Total Energy =                       -344.9068027921666157
    Molecular point group: c1
  Basis Set: 6-31G*
  Basis Set:

  -Total Gradient:
     Atom            X                  Y                   Z
    ------   -----------------  -----------------  -----------------
       1        0.000001903799    -0.000007970632     0.000008120531
       2       -0.000409639531    -0.002960072286    -0.004323878292
       3       -0.000005336632    -0.000047202319    -0.000090134223
       4        0.000335676727     0.004444661163     0.005803280273
       5       -0.000001923293    -0.000010239743     0.000033680120
       6        0.000001938128    -0.000001653723     0.000009343386
       7       -0.000004232680     0.000021148445     0.000027467149
       8        0.001764833166    -0.000781561632     0.003760673646
       9        0.000040017262     0.000001901390    -0.000013937941
      10       -0.000053534861    -0.000011416382    -0.000021942918
      11       -0.001703540631    -0.000673748942    -0.005197436514
      12        0.000000718379    -0.000005510110    -0.000000420657
      13       -0.000015269917    -0.000003941055     0.000007705863
      14       -0.000016647744     0.000012660961    -0.000004724061
      15        0.000027433923    -0.000012096205    -0.000007554829
      16        0.000021635994     0.000024092595     0.000019213719
      17        0.000015967910     0.000010948472    -0.000009455256

  **** Optimization is complete! (in 9 steps) ****
    Final optimized geometry and variables:
    Molecular point group: c1

    Geometry (in Angstrom), charge = 0, multiplicity = 1:

    O           -1.278774196318     0.893373181893    -0.384277699019
    C           -1.101369766327    -0.171570717615     0.113110481259
    C           -2.207196065984    -1.090285275818     0.564235881276
    O            0.082179986741    -0.704017761746     0.373063091709
    H           -2.140299776527    -2.032714244357     0.032925236263
    H           -3.163625413537    -0.625744018808     0.375845037393
    H           -2.098505607392    -1.302119446445     1.621598071138
    C            1.332797754608    -0.172761191244    -0.101677780130
    C            1.903604306705     0.766826337798     0.946209040788
    C            1.284637120289     0.439464376139    -1.498972487948
    H            1.934758358519    -1.067626341811    -0.185507922118
    H            1.957537003461     0.275207017263     1.910880949388
    H            2.903726225099     1.080874768487     0.665137945789
    H            1.281295304868     1.649792851931     1.040244052173
    H            2.307285439342     0.539602342701    -1.851131260018
    H            0.760249861191    -0.212419705655    -2.188993009481
    H            0.811684604429     1.408583018169    -1.515742665616

  Mulliken Charges: (a.u.)
   Center  Symbol    Alpha    Beta     Spin     Total
       1     O     4.28529  4.28529  0.00000 -0.57059
       2     C     2.61595  2.61595  0.00000  0.76809
       3     C     3.28056  3.28056  0.00000 -0.56112
       4     O     4.32183  4.32183  0.00000 -0.64365
       5     H     0.40231  0.40231  0.00000  0.19537
       6     H     0.39816  0.39816  0.00000  0.20369
       7     H     0.40090  0.40090  0.00000  0.19820
       8     C     2.91396  2.91396  0.00000  0.17207
       9     C     3.24790  3.24790  0.00000 -0.49581
      10     C     3.25570  3.25570  0.00000 -0.51141
      11     H     0.41040  0.41040  0.00000  0.17920
      12     H     0.41223  0.41223  0.00000  0.17555
      13     H     0.41862  0.41862  0.00000  0.16277
      14     H     0.40643  0.40643  0.00000  0.18713
      15     H     0.42054  0.42054  0.00000  0.15892
      16     H     0.41496  0.41496  0.00000  0.17007
      17     H     0.39425  0.39425  0.00000  0.21151

   Total alpha = 28.00000, Total beta = 28.00000, Total charge =  0.00000
