  ==> Input File <==

--------------------------------------------------------------------------
set {
	reference rhf
	basis cc-pvtz
}

set_num_threads( 4 )
memory 2 gb

molecule MOL {
0 1

O	 -1.502539	 -1.636016	 1.658529
C	 -0.641195	 -1.408661	 0.878629
C	 0.643623	 -2.187664	 0.751131
O	 -0.695554	 -0.422406	 0.000602
C	 0.755123	 -3.336113	 1.740880
H	 1.459281	 -1.483066	 0.870268
H	 0.704512	 -2.541008	 -0.272283
H	 0.710505	 -2.977335	 2.760441
H	 1.694855	 -3.856684	 1.602107
H	 -0.051134	 -4.044910	 1.607520
C	 -1.852370	 0.402254	 0.000718
C	 -3.063338	 -0.501097	 -0.000437
H	 -1.831732	 1.039442	 -0.872158
H	 -1.832493	 1.038301	 0.874430
H	 -3.071944	 -1.133732	 -0.879113
H	 -3.966302	 0.097976	 -0.000483
H	 -3.072764	 -1.134834	 0.877435

	symmetry c1
}
set optking {
	frozen_dihedral = ("
		2 4 11 13
	")
}

ee = optimize('scf')
oeprop('DIPOLE', 'QUADRUPOLE', 'MULLIKEN_CHARGES')
f=open( 'psi4out.xyz', 'w' )
f.write( "17  " )
f.write( str(ee) + "\n" )
f.write( MOL.save_string_xyz() )
f.close()
--------------------------------------------------------------------------

    Molecular point group: c1
  Charge       = 0
  Multiplicity = 1
  Basis Set: CC-PVTZ
  Basis Set:
  @DF-RHF Final Energy:  -345.01915414478884
    Total Energy =                       -345.0191541447889563
    Molecular point group: c1
  Basis Set: CC-PVTZ
  Basis Set:
  Basis Set: CC-PVTZ
  Basis Set:
  @DF-RHF Final Energy:  -345.03286639726974
    Total Energy =                       -345.0328663972690606
  Basis Set: CC-PVTZ
  Basis Set:
  Basis Set: CC-PVTZ
  Basis Set:
  @DF-RHF Final Energy:  -345.03494278022282
    Total Energy =                       -345.0349427802225364
  Basis Set: CC-PVTZ
  Basis Set:
  Basis Set: CC-PVTZ
  Basis Set:
  @DF-RHF Final Energy:  -345.03164244246079
    Total Energy =                       -345.0316424424614752
  Basis Set: CC-PVTZ
  Basis Set:
  @DF-RHF Final Energy:  -345.03537422107894
    Total Energy =                       -345.0353742210791097
  Basis Set: CC-PVTZ
  Basis Set:
  @DF-RHF Final Energy:  -345.03545393050763
    Total Energy =                       -345.0354539305080834
  Basis Set: CC-PVTZ
  Basis Set:
  Basis Set: CC-PVTZ
  Basis Set:
  @DF-RHF Final Energy:  -345.03546242893231
    Total Energy =                       -345.0354624289325329
  Basis Set: CC-PVTZ
  Basis Set:
  Basis Set: CC-PVTZ
  Basis Set:
  @DF-RHF Final Energy:  -345.03546437893891
    Total Energy =                       -345.0354643789390252
  Basis Set: CC-PVTZ
  Basis Set:
  Charge       = 0
  Multiplicity = 1
  Basis Set: CC-PVTZ
  Basis Set:

    Orbital Energies (a.u.)
    -----------------------

    Doubly Occupied:

       1A    -20.591844     2A    -20.532028     3A    -11.364226
       4A    -11.286193     5A    -11.234964     6A    -11.213841
       7A    -11.213269     8A     -1.467526     9A     -1.364827
      10A     -1.069032    11A     -1.028467    12A     -0.918675
      13A     -0.856774    14A     -0.751028    15A     -0.703048
      16A     -0.682794    17A     -0.665472    18A     -0.628159
      19A     -0.610234    20A     -0.568349    21A     -0.545916
      22A     -0.529801    23A     -0.522017    24A     -0.518057
      25A     -0.495564    26A     -0.492333    27A     -0.454027
      28A     -0.434496

  @DF-RHF Final Energy:  -345.03546508208478

   => Energetics <=

    Nuclear Repulsion Energy =            319.9909627478023140
    One-Electron Energy =               -1104.5669288377434896
    Two-Electron Energy =                 439.5405010078563919
    DFT Exchange-Correlation Energy =       0.0000000000000000
    Empirical Dispersion Energy =           0.0000000000000000
    PCM Polarization Energy =               0.0000000000000000
    EFP Energy =                            0.0000000000000000
    Total Energy =                       -345.0354650820847837
    Molecular point group: c1
  Basis Set: CC-PVTZ
  Basis Set:

  -Total Gradient:
     Atom            X                  Y                   Z
    ------   -----------------  -----------------  -----------------
       1        0.000016869349    -0.000010385938     0.000040501190
       2       -0.002084102873    -0.003532108441    -0.003990976354
       3       -0.000009647827    -0.000061260762    -0.000041579593
       4        0.002671377592     0.004512968339     0.005332678691
       5        0.000002192478     0.000021287732     0.000013069568
       6        0.000004153034     0.000015828433     0.000016285082
       7        0.000013927681     0.000015315265     0.000005092871
       8       -0.000001423904    -0.000005669576     0.000001052134
       9       -0.000004983731     0.000004209801    -0.000005622725
      10       -0.000005588332    -0.000009300386     0.000000508508
      11        0.002190031489     0.003341473849     0.002132997680
      12       -0.000019894101     0.000024813202    -0.000014804266
      13       -0.002739496778    -0.004353795034    -0.003454761902
      14        0.000005462715     0.000006915412    -0.000012332840
      15        0.000004157862     0.000014747414    -0.000001425285
      16       -0.000024543982     0.000011859664    -0.000010276861
      17       -0.000018490675     0.000003101030    -0.000010405898

  **** Optimization is complete! (in 9 steps) ****
    Final optimized geometry and variables:
    Molecular point group: c1

    Geometry (in Angstrom), charge = 0, multiplicity = 1:

    O           -0.473721216832    -0.353120802300     1.083269192179
    C            0.304641073904    -0.125032979706     0.220769336948
    C            1.557194951855    -0.923594963264    -0.043710663603
    O            0.199807631486     0.884003541229    -0.625074176087
    C            1.778929820185    -2.049617408332     0.953147275984
    H            2.388534938482    -0.227828344877    -0.046828384792
    H            1.485316078268    -1.303471653136    -1.057148400999
    H            1.866710896806    -1.666126957897     1.960971420925
    H            2.688194235157    -2.586459322538     0.711381486520
    H            0.954596869410    -2.749862594314     0.939859480291
    C           -0.985977592527     1.669748606941    -0.694866836114
    C           -2.267170744078     0.877898140739    -0.896525892081
    H           -0.832797719862     2.271541835018    -1.577654358460
    H           -1.045081942843     2.302498861161     0.179566605349
    H           -2.162127782014     0.196710073414    -1.733640498383
    H           -3.061737928075     1.576437405297    -1.135413886863
    H           -2.549695550191     0.316949625756    -0.021708905761

  Mulliken Charges: (a.u.)
   Center  Symbol    Alpha    Beta     Spin     Total
       1     O     4.19977  4.19977  0.00000 -0.39955
       2     C     2.80055  2.80055  0.00000  0.39890
       3     C     3.09400  3.09400  0.00000 -0.18801
       4     O     4.15589  4.15589  0.00000 -0.31177
       5     C     3.13988  3.13988  0.00000 -0.27976
       6     H     0.44024  0.44024  0.00000  0.11952
       7     H     0.44324  0.44324  0.00000  0.11351
       8     H     0.44884  0.44884  0.00000  0.10231
       9     H     0.45062  0.45062  0.00000  0.09876
      10     H     0.44850  0.44850  0.00000  0.10299
      11     C     2.98276  2.98276  0.00000  0.03448
      12     C     3.15819  3.15819  0.00000 -0.31638
      13     H     0.44664  0.44664  0.00000  0.10672
      14     H     0.45359  0.45359  0.00000  0.09282
      15     H     0.45407  0.45407  0.00000  0.09186
      16     H     0.45018  0.45018  0.00000  0.09964
      17     H     0.43303  0.43303  0.00000  0.13394

   Total alpha = 28.00000, Total beta = 28.00000, Total charge = -0.00000
