  ==> Input File <==

--------------------------------------------------------------------------
set {
	reference rhf
	basis cc-pvtz
}

set_num_threads( 4 )
memory 2 gb

molecule MOL {
0 1

H	 2.646708	 0.758099	 0.000000
O	 2.258158	 -0.097743	 0.000000
C	 0.911162	 -0.015915	 0.000000
C	 0.214821	 -0.916245	 0.789506
C	 0.226383	 0.921439	 -0.750244
H	 0.762549	 -1.636358	 1.364772
C	 -1.162118	 -0.870214	 0.821011
H	 0.766654	 1.620217	 -1.362999
C	 -1.156205	 0.956018	 -0.708860
H	 -1.696495	 -1.570414	 1.434657
C	 -1.859503	 0.064428	 0.073680
H	 -1.680186	 1.687219	 -1.294621
H	 -2.931013	 0.094114	 0.103335

	symmetry c1
}
set optking {
	frozen_dihedral = ("
		4 3 2 1
	")
}

ee = optimize('scf')
oeprop('DIPOLE', 'QUADRUPOLE', 'MULLIKEN_CHARGES')
f=open( 'psi4out.xyz', 'w' )
f.write( "13  " )
f.write( str(ee) + "\n" )
f.write( MOL.save_string_xyz() )
f.close()
--------------------------------------------------------------------------

    Molecular point group: c1
  Charge       = 0
  Multiplicity = 1
  Basis Set: CC-PVTZ
  Basis Set:
  @DF-RHF Final Energy:  -305.66849067355565
    Total Energy =                       -305.6684906735561071
    Molecular point group: c1
  Basis Set: CC-PVTZ
  Basis Set:
  Basis Set: CC-PVTZ
  Basis Set:
  @DF-RHF Final Energy:  -305.66859797218586
    Total Energy =                       -305.6685979721855233
  Basis Set: CC-PVTZ
  Basis Set:
  Basis Set: CC-PVTZ
  Basis Set:
  @DF-RHF Final Energy:  -305.66861432065036
    Total Energy =                       -305.6686143206501356
  Basis Set: CC-PVTZ
  Basis Set:
  Charge       = 0
  Multiplicity = 1
  Basis Set: CC-PVTZ
  Basis Set:

    Orbital Energies (a.u.)
    -----------------------

    Doubly Occupied:

       1A    -20.578862     2A    -11.293916     3A    -11.234723
       4A    -11.233264     5A    -11.226294     6A    -11.222164
       7A    -11.222057     8A     -1.407928     9A     -1.152998
      10A     -1.022632    11A     -1.008396    12A     -0.846487
      13A     -0.827244    14A     -0.740371    15A     -0.686844
      16A     -0.653202    17A     -0.622741    18A     -0.598858
      19A     -0.591881    20A     -0.545750    21A     -0.517413
      22A     -0.495960    23A     -0.480135    24A     -0.342677
      25A     -0.320537

  @DF-RHF Final Energy:  -305.66861609679091

   => Energetics <=

    Nuclear Repulsion Energy =            273.6184284990444553
    One-Electron Energy =                -956.8274237032530891
    Two-Electron Energy =                 377.5403791074177775
    DFT Exchange-Correlation Energy =       0.0000000000000000
    Empirical Dispersion Energy =           0.0000000000000000
    PCM Polarization Energy =               0.0000000000000000
    EFP Energy =                            0.0000000000000000
    Total Energy =                       -305.6686160967907995
    Molecular point group: c1
  Basis Set: CC-PVTZ
  Basis Set:

  -Total Gradient:
     Atom            X                  Y                   Z
    ------   -----------------  -----------------  -----------------
       1       -0.000044825657    -0.000005327735     0.002640264270
       2        0.000159869631     0.000502799383    -0.002567681589
       3       -0.000316504464    -0.001592896006    -0.001564403626
       4       -0.000047728842     0.001199481577     0.001473227746
       5        0.000179020013    -0.000137835185     0.000013184649
       6        0.000033553409    -0.000014105005     0.000026764383
       7        0.000210160126    -0.000153532781     0.000046931896
       8       -0.000006081112     0.000003392085     0.000003313623
       9       -0.000249813768    -0.000062392548     0.000074868121
      10        0.000015822806     0.000020190913    -0.000011909883
      11        0.000063440383     0.000244971031    -0.000136972234
      12        0.000016304684     0.000010604691     0.000008093984
      13       -0.000013217211    -0.000015350421    -0.000005681338

  **** Optimization is complete! (in 4 steps) ****
    Final optimized geometry and variables:
    Molecular point group: c1

    Geometry (in Angstrom), charge = 0, multiplicity = 1:

    H            2.646791888779     0.750629732635    -0.044239189766
    O            2.263012519647    -0.107661365082    -0.042944294298
    C            0.907906407123    -0.027813305924    -0.025180300583
    C            0.212295369543    -0.925173133219     0.763752333903
    C            0.225726466094     0.910764444910    -0.776746181186
    H            0.759851878376    -1.641235251496     1.344406299774
    C           -1.167252148966    -0.887318928630     0.785985948014
    H            0.771805276686     1.598971197812    -1.394931569751
    C           -1.155725690259     0.948749359377    -0.735775741751
    H           -1.703493812744    -1.588580081743     1.396635819667
    C           -1.859880779283     0.050418558255     0.041140583985
    H           -1.679988240140     1.680897162652    -1.320031342906
    H           -2.931773933884     0.078944533430     0.066551926577

  Mulliken Charges: (a.u.)
   Center  Symbol    Alpha    Beta     Spin     Total
       1     H     0.38560  0.38560  0.00000  0.22881
       2     O     4.18352  4.18352  0.00000 -0.36705
       3     C     2.86274  2.86274  0.00000  0.27453
       4     C     3.10898  3.10898  0.00000 -0.21796
       5     C     3.12540  3.12540  0.00000 -0.25080
       6     H     0.41751  0.41751  0.00000  0.16499
       7     C     3.06117  3.06117  0.00000 -0.12234
       8     H     0.42701  0.42701  0.00000  0.14599
       9     C     3.06682  3.06682  0.00000 -0.13364
      10     H     0.42208  0.42208  0.00000  0.15584
      11     C     3.09341  3.09341  0.00000 -0.18681
      12     H     0.42221  0.42221  0.00000  0.15559
      13     H     0.42358  0.42358  0.00000  0.15285

   Total alpha = 25.00000, Total beta = 25.00000, Total charge = -0.00000
