  ==> Input File <==

--------------------------------------------------------------------------
set {
	reference rhf
	basis cc-pvtz
}

set_num_threads( 4 )
memory 2 gb

molecule MOL {
0 1

H	 -1.445274	 1.949393	 -0.603649
C	 -1.779176	 0.924883	 -0.475078
O	 -0.775228	 0.000056	 -0.739966
H	 -2.570856	 0.737573	 -1.186632
H	 -2.190430	 0.817511	 0.523408
C	 0.406133	 -0.000384	 0.036994
C	 1.526415	 -0.003194	 -0.997339
C	 0.498772	 1.259027	 0.900673
C	 0.495883	 -1.257378	 0.904465
H	 1.452279	 0.872071	 -1.630204
H	 1.451276	 -0.881020	 -1.626529
H	 2.497919	 -0.002741	 -0.517601
H	 0.368981	 2.144239	 0.289753
H	 1.470064	 1.313479	 1.377660
H	 -0.248448	 1.271586	 1.684297
H	 0.363971	 -2.144195	 0.296316
H	 1.467114	 -1.312636	 1.381470
H	 -0.251246	 -1.265768	 1.688235

	symmetry c1
}
set optking {
	frozen_dihedral = ("
		2 3 6 7
	")
}

ee = optimize('scf')
oeprop('DIPOLE', 'QUADRUPOLE', 'MULLIKEN_CHARGES')
f=open( 'psi4out.xyz', 'w' )
f.write( "18  " )
f.write( str(ee) + "\n" )
f.write( MOL.save_string_xyz() )
f.close()
--------------------------------------------------------------------------

    Molecular point group: c1
  Charge       = 0
  Multiplicity = 1
  Basis Set: CC-PVTZ
  Basis Set:
  @DF-RHF Final Energy:  -271.26966370391790
    Total Energy =                       -271.2696637039180132
    Molecular point group: c1
  Basis Set: CC-PVTZ
  Basis Set:
  Basis Set: CC-PVTZ
  Basis Set:
  @DF-RHF Final Energy:  -271.27020264818742
    Total Energy =                       -271.2702026481872508
  Basis Set: CC-PVTZ
  Basis Set:
  Basis Set: CC-PVTZ
  Basis Set:
  @DF-RHF Final Energy:  -271.27242278301776
    Total Energy =                       -271.2724227830178734
  Basis Set: CC-PVTZ
  Basis Set:
  Basis Set: CC-PVTZ
  Basis Set:
  @DF-RHF Final Energy:  -271.27249031805530
    Total Energy =                       -271.2724903180553042
  Basis Set: CC-PVTZ
  Basis Set:
  @DF-RHF Final Energy:  -271.27260022063200
    Total Energy =                       -271.2726002206319436
  Basis Set: CC-PVTZ
  Basis Set:
  @DF-RHF Final Energy:  -271.27262894852373
    Total Energy =                       -271.2726289485237885
  Basis Set: CC-PVTZ
  Basis Set:
  Basis Set: CC-PVTZ
  Basis Set:
  @DF-RHF Final Energy:  -271.27262813090880
    Total Energy =                       -271.2726281309086858
  Basis Set: CC-PVTZ
  Basis Set:
  Basis Set: CC-PVTZ
  Basis Set:
  @DF-RHF Final Energy:  -271.27263207961056
    Total Energy =                       -271.2726320796107302
  Basis Set: CC-PVTZ
  Basis Set:
  Charge       = 0
  Multiplicity = 1
  Basis Set: CC-PVTZ
  Basis Set:

    Orbital Energies (a.u.)
    -----------------------

    Doubly Occupied:

       1A    -20.537202     2A    -11.280709     3A    -11.259477
       4A    -11.211463     5A    -11.202683     6A    -11.201958
       7A     -1.369486     8A     -1.075523     9A     -0.951171
      10A     -0.936141    11A     -0.912142    12A     -0.752212
      13A     -0.657636    14A     -0.648162    15A     -0.638415
      16A     -0.583118    17A     -0.577791    18A     -0.548746
      19A     -0.543080    20A     -0.526740    21A     -0.515335
      22A     -0.491915    23A     -0.483986    24A     -0.442814
      25A     -0.399297

  @DF-RHF Final Energy:  -271.27263213654157

   => Energetics <=

    Nuclear Repulsion Energy =            272.0623351848729499
    One-Electron Energy =                -907.1755309577570188
    Two-Electron Energy =                 363.8405636363422673
    DFT Exchange-Correlation Energy =       0.0000000000000000
    Empirical Dispersion Energy =           0.0000000000000000
    PCM Polarization Energy =               0.0000000000000000
    EFP Energy =                            0.0000000000000000
    Total Energy =                       -271.2726321365418016
    Molecular point group: c1
  Basis Set: CC-PVTZ
  Basis Set:

  -Total Gradient:
     Atom            X                  Y                   Z
    ------   -----------------  -----------------  -----------------
       1        0.000007300684     0.000007999496     0.000001633403
       2        0.000732723790     0.001187444012    -0.001271676431
       3       -0.001114928109    -0.001370257199     0.001934398130
       4        0.000000119157     0.000000188701     0.000002481736
       5       -0.000001535118     0.000002914721    -0.000005846081
       6        0.000401136564    -0.001356329227    -0.000612731876
       7       -0.000031591108     0.001530361985    -0.000043149474
       8       -0.000000365209     0.000000926496    -0.000006898330
       9        0.000010258190    -0.000008409755     0.000004933596
      10        0.000003151136     0.000002151192    -0.000008237935
      11       -0.000005662137    -0.000000817812     0.000011161913
      12        0.000000527876     0.000004988336     0.000001202639
      13       -0.000003300899     0.000005226321    -0.000000569350
      14        0.000001798975     0.000000486423     0.000001393134
      15        0.000003599071    -0.000003360338    -0.000006621105
      16       -0.000001520215    -0.000001096980     0.000000892281
      17        0.000001410115    -0.000004126643     0.000004254583
      18       -0.000003122761     0.000001710273    -0.000006620834

  **** Optimization is complete! (in 9 steps) ****
    Final optimized geometry and variables:
    Molecular point group: c1

    Geometry (in Angstrom), charge = 0, multiplicity = 1:

    H           -1.593508455924     1.736921581337    -0.603261085143
    C           -1.872747081056     0.705876660646    -0.413667611975
    O           -0.831254577350    -0.183789309212    -0.646310333759
    H           -2.663459786455     0.439653584455    -1.100928474978
    H           -2.267184843440     0.634019680138     0.596022108209
    C            0.381067053235    -0.137573323441     0.092722186200
    C            1.499258104455    -0.149306116262    -0.946060525800
    C            0.522674193164     1.103249118042     0.976201135009
    C            0.425224591691    -1.398522196322     0.952930516717
    H            1.455254377062     0.744855958278    -1.556099112944
    H            1.391365130406    -1.006511226813    -1.598457216901
    H            2.473848832382    -0.196287151893    -0.473239289149
    H            0.500780931382     2.015736960602     0.394117726473
    H            1.476741990736     1.062781735986     1.486587267801
    H           -0.250139913782     1.157782837200     1.731994254751
    H            0.319716057374    -2.276588654308     0.328669776082
    H            1.359872644440    -1.471781884135     1.497677582537
    H           -0.387372896039    -1.396875881765     1.670513197109

  Mulliken Charges: (a.u.)
   Center  Symbol    Alpha    Beta     Spin     Total
       1     H     0.46877  0.46877  0.00000  0.06246
       2     C     3.04092  3.04092  0.00000 -0.08184
       3     O     4.19966  4.19966  0.00000 -0.39932
       4     H     0.44259  0.44259  0.00000  0.11481
       5     H     0.46992  0.46992  0.00000  0.06015
       6     C     2.87072  2.87072  0.00000  0.25855
       7     C     3.14042  3.14042  0.00000 -0.28083
       8     C     3.17699  3.17699  0.00000 -0.35398
       9     C     3.14267  3.14267  0.00000 -0.28534
      10     H     0.45224  0.45224  0.00000  0.09552
      11     H     0.44775  0.44775  0.00000  0.10450
      12     H     0.45866  0.45866  0.00000  0.08268
      13     H     0.44506  0.44506  0.00000  0.10989
      14     H     0.44245  0.44245  0.00000  0.11510
      15     H     0.44447  0.44447  0.00000  0.11107
      16     H     0.44796  0.44796  0.00000  0.10408
      17     H     0.45694  0.45694  0.00000  0.08612
      18     H     0.45181  0.45181  0.00000  0.09638

   Total alpha = 25.00000, Total beta = 25.00000, Total charge = -0.00000
