  ==> Input File <==

--------------------------------------------------------------------------
set {
	reference rhf
	basis 6-31G*
}

set_num_threads( 4 )
memory 2 gb

molecule MOL {
0 1

H	 -0.821032	 -1.655889	 0.000000
O	 -1.037828	 -0.728600	 0.000000
C	 0.100509	 -0.036935	 0.000000
C	 -0.048632	 1.285115	 -0.697025
O	 1.094550	 -0.448980	 0.501321
H	 -0.362447	 1.123510	 -1.721778
H	 0.892377	 1.813504	 -0.675622
H	 -0.816829	 1.871328	 -0.206165

	symmetry c1
}
set optking {
	frozen_dihedral = ("
		4 3 2 1
	")
}

ee = optimize('scf')
oeprop('DIPOLE', 'QUADRUPOLE', 'MULLIKEN_CHARGES')
f=open( 'psi4out.xyz', 'w' )
f.write( "8  " )
f.write( str(ee) + "\n" )
f.write( MOL.save_string_xyz() )
f.close()
--------------------------------------------------------------------------

    Molecular point group: c1
  Charge       = 0
  Multiplicity = 1
  Basis Set: 6-31G*
  Basis Set:
  @DF-RHF Final Energy:  -227.80477122499047
    Total Energy =                       -227.8047712249904180
    Molecular point group: c1
  Basis Set: 6-31G*
  Basis Set:
  Basis Set: 6-31G*
  Basis Set:
  @DF-RHF Final Energy:  -227.80150521416232
    Total Energy =                       -227.8015052141623187
  Basis Set: 6-31G*
  Basis Set:
  Basis Set: 6-31G*
  Basis Set:
  @DF-RHF Final Energy:  -227.80521087572839
    Total Energy =                       -227.8052108757283918
  Basis Set: 6-31G*
  Basis Set:
  Basis Set: 6-31G*
  Basis Set:
  @DF-RHF Final Energy:  -227.80532592104066
    Total Energy =                       -227.8053259210406054
  Basis Set: 6-31G*
  Basis Set:
  @DF-RHF Final Energy:  -227.80540510321947
    Total Energy =                       -227.8054051032193570
  @DF-RHF Final Energy:  -227.80543179635609
    Total Energy =                       -227.8054317963561175
  @DF-RHF Final Energy:  -227.80543319270583
    Total Energy =                       -227.8054331927057774
  Basis Set: 6-31G*
  Basis Set:
  @DF-RHF Final Energy:  -227.80517324358919
    Total Energy =                       -227.8051732435892518
  Basis Set: 6-31G*
  Basis Set:
  Basis Set: 6-31G*
  Basis Set:
  @DF-RHF Final Energy:  -227.80543295924934
    Total Energy =                       -227.8054329592492024
  Basis Set: 6-31G*
  Basis Set:
  Basis Set: 6-31G*
  Basis Set:
  @DF-RHF Final Energy:  -227.80543259720798
    Total Energy =                       -227.8054325972080107
  Basis Set: 6-31G*
  Basis Set:
  Charge       = 0
  Multiplicity = 1
  Basis Set: 6-31G*
  Basis Set:

    Orbital Energies (a.u.)
    -----------------------

    Doubly Occupied:

       1A    -20.611495     2A    -20.554974     3A    -11.386336
       4A    -11.240813     5A     -1.473795     6A     -1.368558
       7A     -1.026176     8A     -0.830645     9A     -0.702998
      10A     -0.681384    11A     -0.654996    12A     -0.581602
      13A     -0.577250    14A     -0.550325    15A     -0.482150
      16A     -0.449081

  @DF-RHF Final Energy:  -227.80543311015475

   => Energetics <=

    Nuclear Repulsion Energy =            122.3171415933896782
    One-Electron Energy =                -553.8999936088681579
    Two-Electron Energy =                 203.7774189053237137
    DFT Exchange-Correlation Energy =       0.0000000000000000
    Empirical Dispersion Energy =           0.0000000000000000
    PCM Polarization Energy =               0.0000000000000000
    EFP Energy =                            0.0000000000000000
    Total Energy =                       -227.8054331101547518
    Molecular point group: c1
  Basis Set: 6-31G*
  Basis Set:

  -Total Gradient:
     Atom            X                  Y                   Z
    ------   -----------------  -----------------  -----------------
       1       -0.000833389999     0.000051885043    -0.010231278354
       2        0.001528389340    -0.001247195793     0.010191164277
       3       -0.001799700445     0.003962024962     0.005734155561
       4        0.001128942855    -0.002796091414    -0.005799587519
       5       -0.000042994619     0.000024825166     0.000118160577
       6        0.000008273636     0.000001054395    -0.000005496401
       7        0.000003497062     0.000002408351    -0.000006001814
       8        0.000006982168     0.000001089293    -0.000001116329

  **** Optimization is complete! (in 11 steps) ****
    Final optimized geometry and variables:
    Molecular point group: c1

    Geometry (in Angstrom), charge = 0, multiplicity = 1:

    H           -0.888994069710    -1.614408565589     0.132308161731
    O           -1.066710662314    -0.679990931163     0.152566919880
    C            0.093462637235    -0.018836940796     0.063192954664
    C           -0.067429498441     1.312323657183    -0.613895421526
    O            1.124446557194    -0.495823892911     0.402574993734
    H           -0.249112237465     1.128950474246    -1.667529279548
    H            0.833466103681     1.895983593623    -0.497648496353
    H           -0.921642469874     1.849184286912    -0.220515482841

  Mulliken Charges: (a.u.)
   Center  Symbol    Alpha    Beta     Spin     Total
       1     H     0.26647  0.26647  0.00000  0.46706
       2     O     4.34896  4.34896  0.00000 -0.69792
       3     C     2.63929  2.63929  0.00000  0.72143
       4     C     3.28368  3.28368  0.00000 -0.56737
       5     O     4.26930  4.26930  0.00000 -0.53859
       6     H     0.39801  0.39801  0.00000  0.20398
       7     H     0.39564  0.39564  0.00000  0.20872
       8     H     0.39865  0.39865  0.00000  0.20269

   Total alpha = 16.00000, Total beta = 16.00000, Total charge =  0.00000
