  ==> Input File <==

--------------------------------------------------------------------------
set {
	reference rhf
	basis 6-31G*
}

set_num_threads( 4 )
memory 2 gb

molecule MOL {
0 1

H	 3.161968	 -0.887734	 0.697539
N	 3.092854	 -0.246221	 -0.068770
C	 1.865559	 0.531981	 0.018834
H	 3.101323	 -0.795224	 -0.907432
C	 0.645745	 -0.382037	 -0.029944
H	 1.841966	 1.207024	 -0.831236
H	 1.815756	 1.155410	 0.915079
C	 -0.679275	 0.379305	 0.025956
H	 0.698998	 -0.976915	 -0.937203
H	 0.693479	 -1.083846	 0.802235
C	 -1.903357	 -0.536963	 -0.023547
H	 -0.726309	 1.082987	 -0.803784
H	 -0.717680	 0.977832	 0.934877
C	 -3.225172	 0.228290	 0.028445
H	 -1.867824	 -1.134999	 -0.931459
H	 -1.860449	 -1.239604	 0.805977
H	 -3.313397	 0.915643	 -0.808262
H	 -4.073500	 -0.448134	 -0.008893
H	 -3.306061	 0.809945	 0.942516

	symmetry c1
}
set optking {
	frozen_dihedral = ("
		1 2 3 6
	")
}

ee = optimize('scf')
oeprop('DIPOLE', 'QUADRUPOLE', 'MULLIKEN_CHARGES')
f=open( 'psi4out.xyz', 'w' )
f.write( "19  " )
f.write( str(ee) + "\n" )
f.write( MOL.save_string_xyz() )
f.close()
--------------------------------------------------------------------------

    Molecular point group: c1
  Charge       = 0
  Multiplicity = 1
  Basis Set: 6-31G*
  Basis Set:
  @DF-RHF Final Energy:  -251.34944615550572
    Total Energy =                       -251.3494461555056887
    Molecular point group: c1
  Basis Set: 6-31G*
  Basis Set:
  Basis Set: 6-31G*
  Basis Set:
  @DF-RHF Final Energy:  -251.35146072198083
    Total Energy =                       -251.3514607219808568
  Basis Set: 6-31G*
  Basis Set:
  Basis Set: 6-31G*
  Basis Set:
  @DF-RHF Final Energy:  -251.35172475233728
    Total Energy =                       -251.3517247523370770
  Basis Set: 6-31G*
  Basis Set:
  Basis Set: 6-31G*
  Basis Set:
  @DF-RHF Final Energy:  -251.35172811826178
    Total Energy =                       -251.3517281182619172
  Basis Set: 6-31G*
  Basis Set:
  Charge       = 0
  Multiplicity = 1
  Basis Set: 6-31G*
  Basis Set:

    Orbital Energies (a.u.)
    -----------------------

    Doubly Occupied:

       1A    -15.532788     2A    -11.239731     3A    -11.217099
       4A    -11.216024     5A    -11.213945     6A    -11.209723
       7A     -1.177445     8A     -1.075709     9A     -1.000010
      10A     -0.901412    11A     -0.819609    12A     -0.792960
      13A     -0.678927    14A     -0.638311    15A     -0.600341
      16A     -0.580551    17A     -0.579190    18A     -0.557530
      19A     -0.518839    20A     -0.506848    21A     -0.477656
      22A     -0.474841    23A     -0.467434    24A     -0.464177
      25A     -0.375404

  @DF-RHF Final Energy:  -251.35172877176109

   => Energetics <=

    Nuclear Repulsion Energy =            245.4063954764166624
    One-Electron Energy =                -824.8832397048722669
    Two-Electron Energy =                 328.1251154566945161
    DFT Exchange-Correlation Energy =       0.0000000000000000
    Empirical Dispersion Energy =           0.0000000000000000
    PCM Polarization Energy =               0.0000000000000000
    EFP Energy =                            0.0000000000000000
    Total Energy =                       -251.3517287717610316
    Molecular point group: c1
  Basis Set: 6-31G*
  Basis Set:

  -Total Gradient:
     Atom            X                  Y                   Z
    ------   -----------------  -----------------  -----------------
       1       -0.000136652378    -0.000229417085    -0.000198767668
       2        0.000055030065     0.000276543802     0.000164556374
       3        0.000137638685     0.000139355176     0.000146397797
       4       -0.000043777181     0.000030181776     0.000035044500
       5        0.000155872237     0.000003927357    -0.000043006992
       6       -0.000095345776    -0.000227297431    -0.000179414886
       7        0.000016098425     0.000008032577     0.000031027197
       8        0.000049692001    -0.000013694458     0.000013184234
       9       -0.000010221287    -0.000016428130     0.000039044762
      10        0.000003278395     0.000015396055    -0.000006511916
      11       -0.000046700289     0.000042925329    -0.000017445389
      12        0.000001287213    -0.000003094188     0.000026674661
      13       -0.000012888094    -0.000013931713     0.000000363678
      14       -0.000054574398    -0.000040976739    -0.000011309137
      15        0.000004963481    -0.000000116570     0.000006777745
      16       -0.000000333449     0.000021547431    -0.000004486353
      17        0.000001130833    -0.000003973898     0.000000317703
      18       -0.000031322446     0.000015106329     0.000000539967
      19        0.000006823967    -0.000004085620    -0.000002986275

  **** Optimization is complete! (in 5 steps) ****
    Final optimized geometry and variables:
    Molecular point group: c1

    Geometry (in Angstrom), charge = 0, multiplicity = 1:

    H            3.236313915214    -0.833765767109     0.712677354977
    N            3.154969089990    -0.176361335969    -0.039734873154
    C            1.871887820984     0.506933440892     0.012972739639
    H            3.240130639332    -0.699889242981    -0.890234425165
    C            0.637828512958    -0.398295574483    -0.025053497524
    H            1.835906665689     1.203607311895    -0.819379092551
    H            1.853934692331     1.108829203846     0.916858586211
    C           -0.679705356620     0.377063858224     0.030261016192
    H            0.667189107578    -1.001884570336    -0.931560004192
    H            0.683595383294    -1.097380012378     0.809375681246
    C           -1.916563960131    -0.522432365999    -0.012271246647
    H           -0.719467359943     1.079435527951    -0.800830064878
    H           -0.705921906280     0.978806709510     0.937359276650
    C           -3.227734273475     0.260977150487     0.040579105319
    H           -1.892363726250    -1.124434978951    -0.918119278691
    H           -1.880841666995    -1.222359563124     0.819810039695
    H           -3.309374126111     0.945705631474    -0.798869199639
    H           -4.085341724302    -0.403974343111     0.009229547132
    H           -3.297354946532     0.847665502048     0.952245779984

  Mulliken Charges: (a.u.)
   Center  Symbol    Alpha    Beta     Spin     Total
       1     H     0.33552  0.33552  0.00000  0.32896
       2     N     3.91708  3.91708  0.00000 -0.83416
       3     C     3.06145  3.06145  0.00000 -0.12290
       4     H     0.33547  0.33547  0.00000  0.32906
       5     C     3.15860  3.15860  0.00000 -0.31720
       6     H     0.41940  0.41940  0.00000  0.16120
       7     H     0.41912  0.41912  0.00000  0.16176
       8     C     3.15490  3.15490  0.00000 -0.30981
       9     H     0.42702  0.42702  0.00000  0.14595
      10     H     0.42703  0.42703  0.00000  0.14594
      11     C     3.15075  3.15075  0.00000 -0.30149
      12     H     0.42311  0.42311  0.00000  0.15378
      13     H     0.42298  0.42298  0.00000  0.15404
      14     C     3.23939  3.23939  0.00000 -0.47879
      15     H     0.42301  0.42301  0.00000  0.15397
      16     H     0.42298  0.42298  0.00000  0.15403
      17     H     0.42153  0.42153  0.00000  0.15694
      18     H     0.41913  0.41913  0.00000  0.16174
      19     H     0.42151  0.42151  0.00000  0.15697

   Total alpha = 25.00000, Total beta = 25.00000, Total charge = -0.00000
