  ==> Input File <==

--------------------------------------------------------------------------
set {
	reference rhf
	basis 6-31G*
}

set_num_threads( 4 )
memory 2 gb

molecule MOL {
0 1

H	 -0.000158	 1.970498	 0.756846
O	 -0.000074	 1.880206	 -0.189275
C	 -0.000015	 0.544847	 -0.545111
C	 -1.278788	 -0.123820	 -0.051541
C	 1.278802	 -0.123718	 -0.051505
H	 -0.000001	 0.490777	 -1.623619
F	 -0.974232	 -1.141916	 0.724520
F	 -2.038934	 0.700635	 0.637525
F	 -1.988825	 -0.588470	 -1.067190
F	 2.323327	 0.466644	 -0.591854
F	 1.326242	 -1.401483	 -0.363667
F	 1.388946	 -0.015632	 1.262939

	symmetry c1
}
set optking {
	frozen_dihedral = ("
		7 4 3 6
	")
}

ee = optimize('scf')
oeprop('DIPOLE', 'QUADRUPOLE', 'MULLIKEN_CHARGES')
f=open( 'psi4out.xyz', 'w' )
f.write( "12  " )
f.write( str(ee) + "\n" )
f.write( MOL.save_string_xyz() )
f.close()
--------------------------------------------------------------------------

    Molecular point group: c1
  Charge       = 0
  Multiplicity = 1
  Basis Set: 6-31G*
  Basis Set:
  @DF-RHF Final Energy:  -786.27030893756512
    Total Energy =                       -786.2703089375648915
    Molecular point group: c1
  Basis Set: 6-31G*
  Basis Set:
  Basis Set: 6-31G*
  Basis Set:
  @DF-RHF Final Energy:  -786.27148923545963
    Total Energy =                       -786.2714892354596259
  Basis Set: 6-31G*
  Basis Set:
  Basis Set: 6-31G*
  Basis Set:
  @DF-RHF Final Energy:  -786.27202278030006
    Total Energy =                       -786.2720227803006310
  Basis Set: 6-31G*
  Basis Set:
  Basis Set: 6-31G*
  Basis Set:
  @DF-RHF Final Energy:  -786.27208465020044
    Total Energy =                       -786.2720846502004406
  Basis Set: 6-31G*
  Basis Set:
  Basis Set: 6-31G*
  Basis Set:
  @DF-RHF Final Energy:  -786.27209850307156
    Total Energy =                       -786.2720985030715610
  Basis Set: 6-31G*
  Basis Set:
  Basis Set: 6-31G*
  Basis Set:
  @DF-RHF Final Energy:  -786.27210031645393
    Total Energy =                       -786.2721003164535887
  Basis Set: 6-31G*
  Basis Set:
  Charge       = 0
  Multiplicity = 1
  Basis Set: 6-31G*
  Basis Set:

    Orbital Energies (a.u.)
    -----------------------

    Doubly Occupied:

       1A    -26.363092     2A    -26.361234     3A    -26.360820
       4A    -26.360126     5A    -26.359934     6A    -26.355890
       7A    -20.615737     8A    -11.528927     9A    -11.523161
      10A    -11.349438    11A     -1.764973    12A     -1.757577
      13A     -1.659920    14A     -1.658654    15A     -1.657607
      16A     -1.652956    17A     -1.434244    18A     -1.098877
      19A     -0.995752    20A     -0.936913    21A     -0.865857
      22A     -0.859296    23A     -0.850450    24A     -0.845692
      25A     -0.833686    26A     -0.813118    27A     -0.732958
      28A     -0.730076    29A     -0.728558    30A     -0.722618
      31A     -0.687485    32A     -0.684872    33A     -0.682172
      34A     -0.677235    35A     -0.667123    36A     -0.662476
      37A     -0.655544    38A     -0.649676    39A     -0.617333
      40A     -0.549641    41A     -0.504789

  @DF-RHF Final Energy:  -786.27210050663291

   => Energetics <=

    Nuclear Repulsion Energy =            669.0407686319034610
    One-Electron Energy =               -2424.9927688571242470
    Two-Electron Energy =                 969.6798997185881035
    DFT Exchange-Correlation Energy =       0.0000000000000000
    Empirical Dispersion Energy =           0.0000000000000000
    PCM Polarization Energy =               0.0000000000000000
    EFP Energy =                            0.0000000000000000
    Total Energy =                       -786.2721005066325688
    Molecular point group: c1
  Basis Set: 6-31G*
  Basis Set:

  -Total Gradient:
     Atom            X                  Y                   Z
    ------   -----------------  -----------------  -----------------
       1       -0.000002706182     0.000004311557    -0.000000069257
       2        0.000005085677    -0.000011397757     0.000020106730
       3        0.000412768583    -0.000655337531     0.000191017773
       4       -0.000017571882    -0.000428773895    -0.000700290733
       5        0.000034508205    -0.000007476000    -0.000001722682
       6       -0.000359842543     0.000659732154    -0.000049944885
       7       -0.000022055374     0.000396252795     0.000505704167
       8       -0.000012700242     0.000043700722     0.000015895307
       9        0.000016394968    -0.000005206461     0.000019835569
      10       -0.000009939385     0.000023996175    -0.000013820593
      11       -0.000013648545    -0.000013899317    -0.000003968874
      12       -0.000030293286    -0.000005902440     0.000017257479

  **** Optimization is complete! (in 7 steps) ****
    Final optimized geometry and variables:
    Molecular point group: c1

    Geometry (in Angstrom), charge = 0, multiplicity = 1:

    H           -0.071380457931     2.032138355128     0.727337005471
    O            0.031425793545     1.907720181060    -0.208184415551
    C            0.005456969179     0.567304575442    -0.534893097312
    C           -1.283302406701    -0.130916593690    -0.036267353851
    C            1.281843576658    -0.110896814571    -0.052929779091
    H            0.002263813629     0.509030239290    -1.612278981569
    F           -1.041678330589    -1.160660542570     0.752053668701
    F           -2.034500765147     0.711481614680     0.645670187199
    F           -1.991207435514    -0.569785529499    -1.058223494758
    F            2.328699994382     0.486303494629    -0.580748831314
    F            1.319507748786    -1.380216420051    -0.405037691620
    F            1.393862288358    -0.033642453850     1.262698038741

  Mulliken Charges: (a.u.)
   Center  Symbol    Alpha    Beta     Spin     Total
       1     H     0.26689  0.26689  0.00000  0.46623
       2     O     4.35951  4.35951  0.00000 -0.71901
       3     C     3.06886  3.06886  0.00000 -0.13772
       4     C     2.43485  2.43485  0.00000  1.13029
       5     C     2.43615  2.43615  0.00000  1.12769
       6     H     0.37094  0.37094  0.00000  0.25811
       7     F     4.67433  4.67433  0.00000 -0.34866
       8     F     4.67710  4.67710  0.00000 -0.35421
       9     F     4.67688  4.67688  0.00000 -0.35376
      10     F     4.67523  4.67523  0.00000 -0.35046
      11     F     4.67715  4.67715  0.00000 -0.35429
      12     F     4.68210  4.68210  0.00000 -0.36420

   Total alpha = 41.00000, Total beta = 41.00000, Total charge =  0.00000
