  ==> Input File <==

--------------------------------------------------------------------------
set {
	reference rhf
	basis 6-31G*
}

set_num_threads( 1 )
memory 2 gb

molecule MOL {
0 1

H	 3.019807	 -0.273865	 0.726260
N	 2.434251	 -0.367735	 -0.081097
C	 1.267428	 0.496480	 0.024474
H	 2.155796	 -1.329672	 -0.126419
C	 -0.016086	 -0.325158	 -0.029487
H	 1.288818	 1.183521	 -0.816092
H	 1.267576	 1.109062	 0.929528
C	 -1.282277	 0.529072	 0.046735
H	 -0.012495	 -0.908639	 -0.945788
H	 -0.015903	 -1.041248	 0.791956
C	 -2.563920	 -0.301775	 -0.006060
H	 -1.284084	 1.244622	 -0.773004
H	 -1.271387	 1.115393	 0.963286
H	 -2.621848	 -0.873522	 -0.927727
H	 -3.445135	 0.329952	 0.047812
H	 -2.609542	 -1.004582	 0.821105

	symmetry c1
}
set optking {
	frozen_dihedral = ("
		6 3 5 9,
		12 8 5 9
	")
}

ee = energy('scf')
oeprop('DIPOLE', 'QUADRUPOLE', 'MULLIKEN_CHARGES')
f=open( 'psi4out.xyz', 'w' )
f.write( "16  " )
f.write( str(ee) + "\n" )
f.write( MOL.save_string_xyz() )
f.close()
--------------------------------------------------------------------------

    Molecular point group: c1

    Geometry (in Angstrom), charge = 0, multiplicity = 1:

       Center              X                  Y                   Z               Mass
    ------------   -----------------  -----------------  -----------------  -----------------
           H          3.028115619348    -0.262666570499     0.726415150867     1.007825032070
           N          2.442559619348    -0.356536570499    -0.080941849133    14.003074004780
           C          1.275736619348     0.507678429501     0.024629150867    12.000000000000
           H          2.164104619348    -1.318473570499    -0.126263849133     1.007825032070
           C         -0.007777380652    -0.313959570499    -0.029331849133    12.000000000000
           H          1.297126619348     1.194719429501    -0.815936849133     1.007825032070
           H          1.275884619348     1.120260429501     0.929683150867     1.007825032070
           C         -1.273968380652     0.540270429501     0.046890150867    12.000000000000
           H         -0.004186380652    -0.897440570499    -0.945632849133     1.007825032070
           H         -0.007594380652    -1.030049570499     0.792111150867     1.007825032070
           C         -2.555611380652    -0.290576570499    -0.005904849133    12.000000000000
           H         -1.275775380652     1.255820429501    -0.772848849133     1.007825032070
           H         -1.263078380652     1.126591429501     0.963441150867     1.007825032070
           H         -2.613539380652    -0.862323570499    -0.927571849133     1.007825032070
           H         -3.436826380652     0.341150429501     0.047967150867     1.007825032070
           H         -2.601233380652    -0.993383570499     0.821260150867     1.007825032070

  Charge       = 0
  Multiplicity = 1
  Basis Set: 6-31G*
  Basis Set:

    Orbital Energies (a.u.)
    -----------------------

    Doubly Occupied:

       1A    -15.529337     2A    -11.238889     3A    -11.218423
       4A    -11.216068     5A    -11.210836     6A     -1.177093
       7A     -1.062241     8A     -0.959897     9A     -0.846632
      10A     -0.799604    11A     -0.664632    12A     -0.637673
      13A     -0.598315    14A     -0.582207    15A     -0.566512
      16A     -0.521721    17A     -0.511685    18A     -0.475125
      19A     -0.472967    20A     -0.463281    21A     -0.375289

  @DF-RHF Final Energy:  -212.31175683933128

   => Energetics <=

    Nuclear Repulsion Energy =            186.6976430276532710
    One-Electron Energy =                -655.7619300114904490
    Two-Electron Energy =                 256.7525301445057266
    DFT Exchange-Correlation Energy =       0.0000000000000000
    Empirical Dispersion Energy =           0.0000000000000000
    PCM Polarization Energy =               0.0000000000000000
    EFP Energy =                            0.0000000000000000
    Total Energy =                       -212.3117568393314514

  Mulliken Charges: (a.u.)
   Center  Symbol    Alpha    Beta     Spin     Total
       1     H     0.33284  0.33284  0.00000  0.33432
       2     N     3.92870  3.92870  0.00000 -0.85740
       3     C     3.04768  3.04768  0.00000 -0.09537
       4     H     0.33147  0.33147  0.00000  0.33705
       5     C     3.16869  3.16869  0.00000 -0.33738
       6     H     0.41969  0.41969  0.00000  0.16062
       7     H     0.42775  0.42775  0.00000  0.14450
       8     C     3.15474  3.15474  0.00000 -0.30947
       9     H     0.41887  0.41887  0.00000  0.16225
      10     H     0.42583  0.42583  0.00000  0.14833
      11     C     3.23912  3.23912  0.00000 -0.47825
      12     H     0.42044  0.42044  0.00000  0.15911
      13     H     0.42258  0.42258  0.00000  0.15484
      14     H     0.42093  0.42093  0.00000  0.15815
      15     H     0.41867  0.41867  0.00000  0.16266
      16     H     0.42199  0.42199  0.00000  0.15603

   Total alpha = 21.00000, Total beta = 21.00000, Total charge = -0.00000
