  ==> Input File <==

--------------------------------------------------------------------------
set {
	reference rhf
	basis 6-31G*
}

set_num_threads( 4 )
memory 2 gb

molecule MOL {
0 1

O	 -0.682937	 1.318834	 -0.186099
C	 -0.860635	 0.152188	 -0.042321
C	 -2.173363	 -0.477127	 0.338347
O	 0.083258	 -0.765189	 -0.202595
H	 -2.477673	 -1.180929	 -0.427595
H	 -2.923125	 0.290956	 0.455536
H	 -2.058825	 -1.029004	 1.264191
C	 1.391937	 -0.334737	 -0.569838
C	 1.553020	 1.164426	 -0.398929
H	 1.592951	 -0.637607	 -1.586206
H	 2.051076	 -0.873426	 0.095631
H	 2.578360	 1.450278	 -0.612693
H	 0.901859	 1.702205	 -1.076537
H	 1.322287	 1.459262	 0.619034

	symmetry c1
}
set optking {
	frozen_dihedral = ("
		10 8 4 2
	")
}

ee = optimize('scf')
oeprop('DIPOLE', 'QUADRUPOLE', 'MULLIKEN_CHARGES')
f=open( 'psi4out.xyz', 'w' )
f.write( "14  " )
f.write( str(ee) + "\n" )
f.write( MOL.save_string_xyz() )
f.close()
--------------------------------------------------------------------------

    Molecular point group: c1
  Charge       = 0
  Multiplicity = 1
  Basis Set: 6-31G*
  Basis Set:
  @DF-RHF Final Energy:  -305.83508297655601
    Total Energy =                       -305.8350829765560661
    Molecular point group: c1
  Basis Set: 6-31G*
  Basis Set:
  Basis Set: 6-31G*
  Basis Set:
  @DF-RHF Final Energy:  -305.85805529238843
    Total Energy =                       -305.8580552923882578
  Basis Set: 6-31G*
  Basis Set:
  Basis Set: 6-31G*
  Basis Set:
  @DF-RHF Final Energy:  -305.86260739321585
    Total Energy =                       -305.8626073932159670
  Basis Set: 6-31G*
  Basis Set:
  Basis Set: 6-31G*
  Basis Set:
  @DF-RHF Final Energy:  -305.85832797701084
    Total Energy =                       -305.8583279770109016
  Basis Set: 6-31G*
  Basis Set:
  @DF-RHF Final Energy:  -305.86453636310853
    Total Energy =                       -305.8645363631085274
  Basis Set: 6-31G*
  Basis Set:
  @DF-RHF Final Energy:  -305.86474502871010
    Total Energy =                       -305.8647450287102743
  Basis Set: 6-31G*
  Basis Set:
  Basis Set: 6-31G*
  Basis Set:
  @DF-RHF Final Energy:  -305.86476301871022
    Total Energy =                       -305.8647630187101072
  Basis Set: 6-31G*
  Basis Set:
  Basis Set: 6-31G*
  Basis Set:
  @DF-RHF Final Energy:  -305.86476617753380
    Total Energy =                       -305.8647661775335109
  Basis Set: 6-31G*
  Basis Set:
  Charge       = 0
  Multiplicity = 1
  Basis Set: 6-31G*
  Basis Set:

    Orbital Energies (a.u.)
    -----------------------

    Doubly Occupied:

       1A    -20.599221     2A    -20.540355     3A    -11.376008
       4A    -11.291922     5A    -11.230394     6A    -11.216520
       7A     -1.460855     8A     -1.361952     9A     -1.055509
      10A     -0.996234    11A     -0.893657    12A     -0.748213
      13A     -0.688294    14A     -0.680352    15A     -0.669407
      16A     -0.610573    17A     -0.587145    18A     -0.568772
      19A     -0.547694    20A     -0.535540    21A     -0.513808
      22A     -0.496099    23A     -0.442831    24A     -0.429880

  @DF-RHF Final Energy:  -305.86476662931028

   => Energetics <=

    Nuclear Repulsion Energy =            248.7861823984011949
    One-Electron Energy =                -910.2194318169554208
    Two-Electron Energy =                 355.5684827892439444
    DFT Exchange-Correlation Energy =       0.0000000000000000
    Empirical Dispersion Energy =           0.0000000000000000
    PCM Polarization Energy =               0.0000000000000000
    EFP Energy =                            0.0000000000000000
    Total Energy =                       -305.8647666293102247
    Molecular point group: c1
  Basis Set: 6-31G*
  Basis Set:

  -Total Gradient:
     Atom            X                  Y                   Z
    ------   -----------------  -----------------  -----------------
       1        0.000002781970     0.000044516115    -0.000030383655
       2        0.000675786419     0.000243189629     0.003325856085
       3        0.000019469709     0.000000526091     0.000060427871
       4       -0.000808031695    -0.001090980840    -0.004895915424
       5       -0.000016797417    -0.000010291200    -0.000020941607
       6        0.000015029903     0.000000669356    -0.000013159047
       7       -0.000006501444    -0.000018662043    -0.000008082848
       8       -0.001017910210     0.003881051466     0.000350987633
       9       -0.000003245229     0.000055561090     0.000028269975
      10        0.001139024677    -0.003090042492     0.001226522129
      11       -0.000045241124    -0.000028895265     0.000009775336
      12        0.000028327685     0.000009818068    -0.000006820631
      13       -0.000002787364     0.000017133243    -0.000004448902
      14        0.000020094118    -0.000013593217    -0.000022086915

  **** Optimization is complete! (in 9 steps) ****
    Final optimized geometry and variables:
    Molecular point group: c1

    Geometry (in Angstrom), charge = 0, multiplicity = 1:

    O           -0.835117582349     1.136640387629    -0.106112563220
    C           -0.838265029717    -0.031177271911     0.110586801728
    C           -2.042297685621    -0.798214630742     0.593882023642
    O            0.190458809799    -0.848853335783    -0.049812859583
    H           -2.283367861072    -1.584707321916    -0.111785831500
    H           -2.880315111523    -0.125489284382     0.699325662236
    H           -1.820383073391    -1.268017757851     1.545119791221
    C            1.531580965656    -0.465575923064    -0.369996944119
    C            1.948765177193     0.983900893048    -0.179867720146
    H            1.708767382171    -0.798465680311    -1.384774384610
    H            2.131824792132    -1.095229600444     0.273195260490
    H            3.023297545333     1.025623927767    -0.337758407200
    H            1.466917356706     1.652949085358    -0.874607770619
    H            1.742942988663     1.329767953521     0.825090032110

  Mulliken Charges: (a.u.)
   Center  Symbol    Alpha    Beta     Spin     Total
       1     O     4.28232  4.28232  0.00000 -0.56463
       2     C     2.61998  2.61998  0.00000  0.76004
       3     C     3.28025  3.28025  0.00000 -0.56051
       4     O     4.31596  4.31596  0.00000 -0.63192
       5     H     0.40098  0.40098  0.00000  0.19804
       6     H     0.39813  0.39813  0.00000  0.20374
       7     H     0.40213  0.40213  0.00000  0.19575
       8     C     2.99174  2.99174  0.00000  0.01651
       9     C     3.25371  3.25371  0.00000 -0.50742
      10     H     0.41368  0.41368  0.00000  0.17264
      11     H     0.41241  0.41241  0.00000  0.17519
      12     H     0.42146  0.42146  0.00000  0.15708
      13     H     0.39644  0.39644  0.00000  0.20712
      14     H     0.41080  0.41080  0.00000  0.17839

   Total alpha = 24.00000, Total beta = 24.00000, Total charge =  0.00000
