                              Psi4 1.0.54 Driver

  ==> Input File <==

--------------------------------------------------------------------------
set {
	reference rhf
	basis cc-pvtz
}

set_num_threads( 4 )
memory 2 gb

molecule MOL {
0 1

H	 -0.060893	 -3.688811	 -0.506645
O	 0.265757	 -2.825195	 -0.303660
C	 -0.756674	 -1.974831	 -0.315385
C	 -0.318151	 -0.570512	 0.000144
O	 -1.861974	 -2.322766	 -0.550379
C	 -1.454884	 0.441630	 -0.000560
H	 0.182428	 -0.600133	 0.962658
H	 0.446897	 -0.304253	 -0.722149
C	 -2.822577	 -0.232186	 0.000063
H	 -1.359760	 1.084704	 -0.867077
H	 -1.359641	 1.085996	 0.864983
H	 -2.954352	 -0.858985	 -0.875745
H	 -3.615886	 0.505352	 0.000019
H	 -2.953878	 -0.858359	 0.876394

	symmetry c1
}
set optking {
	frozen_dihedral = ("
		7 4 6 10
	")
}

ee,wfn = optimize('scf', return_wfn=True)
oeprop( wfn, 'DIPOLE', 'QUADRUPOLE', 'MULLIKEN_CHARGES')
f=open( 'psi4out.xyz', 'w' )
f.write( "14  " )
f.write( str(ee) + "\n" )
f.write( MOL.save_string_xyz() )
f.close()
--------------------------------------------------------------------------

    Molecular point group: c1
  Charge       = 0
  Multiplicity = 1
  Basis Set: CC-PVTZ
  Basis Set:
  @DF-RHF Final Energy:  -305.96604314190932
    Total Energy =                       -305.9660431419091537
    Molecular point group: c1
  Basis Set: CC-PVTZ
  Basis Set:
  Basis Set: CC-PVTZ
  Basis Set:
  @DF-RHF Final Energy:  -305.98419974016235
    Total Energy =                       -305.9841997401621256
  Basis Set: CC-PVTZ
  Basis Set:
  Basis Set: CC-PVTZ
  Basis Set:
  @DF-RHF Final Energy:  -305.98784338010239
    Total Energy =                       -305.9878433801022766
  Basis Set: CC-PVTZ
  Basis Set:
  Basis Set: CC-PVTZ
  Basis Set:
  @DF-RHF Final Energy:  -305.98661046088023
    Total Energy =                       -305.9866104608806836
  Basis Set: CC-PVTZ
  Basis Set:
  @DF-RHF Final Energy:  -305.98992689851480
    Total Energy =                       -305.9899268985145682
  @DF-RHF Final Energy:  -305.99017903604181
    Total Energy =                       -305.9901790360418090
  @DF-RHF Final Energy:  -305.99032557131738
    Total Energy =                       -305.9903255713177259
  @DF-RHF Final Energy:  -305.99046078040431
    Total Energy =                       -305.9904607804041916
  @DF-RHF Final Energy:  -305.99080476529718
    Total Energy =                       -305.9908047652970708
  @DF-RHF Final Energy:  -305.99028425716625
    Total Energy =                       -305.9902842571664223
  @DF-RHF Final Energy:  -305.99105845211920
    Total Energy =                       -305.9910584521193186
  @DF-RHF Final Energy:  -305.99146177418584
    Total Energy =                       -305.9914617741858933
  @DF-RHF Final Energy:  -305.99156027654499
    Total Energy =                       -305.9915602765450444
  @DF-RHF Final Energy:  -305.99162031414608
    Total Energy =                       -305.9916203141457345
  @DF-RHF Final Energy:  -305.99164055249730
    Total Energy =                       -305.9916405524974721
  @DF-RHF Final Energy:  -305.99168654357914
    Total Energy =                       -305.9916865435792488
  @DF-RHF Final Energy:  -305.99173318752526
    Total Energy =                       -305.9917331875253126
  @DF-RHF Final Energy:  -305.99177606879005
    Total Energy =                       -305.9917760687899886
  @DF-RHF Final Energy:  -305.99183457630244
    Total Energy =                       -305.9918345763024377
  @DF-RHF Final Energy:  -305.99118749794661
    Total Energy =                       -305.9911874979467257
  @DF-RHF Final Energy:  -305.99187437894068
    Total Energy =                       -305.9918743789406790
  @DF-RHF Final Energy:  -305.99194715813366
    Total Energy =                       -305.9919471581335984
  @DF-RHF Final Energy:  -305.99202033411530
    Total Energy =                       -305.9920203341151819
  @DF-RHF Final Energy:  -305.99207805480637
    Total Energy =                       -305.9920780548064272
  @DF-RHF Final Energy:  -305.99213010254363
    Total Energy =                       -305.9921301025437970
  @DF-RHF Final Energy:  -305.99216488893978
    Total Energy =                       -305.9921648889396693
  @DF-RHF Final Energy:  -305.99214250554570
    Total Energy =                       -305.9921425055459281
  Basis Set: CC-PVTZ
  Basis Set:
  @DF-RHF Final Energy:  -305.99218750261036
    Total Energy =                       -305.9921875026104772
  Basis Set: CC-PVTZ
  Basis Set:
  Basis Set: CC-PVTZ
  Basis Set:
  @DF-RHF Final Energy:  -305.99219245826197
    Total Energy =                       -305.9921924582621386
  Basis Set: CC-PVTZ
  Basis Set:
  Basis Set: CC-PVTZ
  Basis Set:
  @DF-RHF Final Energy:  -305.99219432519692
    Total Energy =                       -305.9921943251969196
  Basis Set: CC-PVTZ
  Basis Set:
  Charge       = 0
  Multiplicity = 1
  Basis Set: CC-PVTZ
  Basis Set:

    Orbital Energies (a.u.)
    -----------------------

    Doubly Occupied:

       1A    -20.605809     2A    -20.538221     3A    -11.373405
       4A    -11.237841     5A    -11.234582     6A    -11.214970
       7A     -1.477821     8A     -1.368039     9A     -1.081353
      10A     -0.978105    11A     -0.866738    12A     -0.797662
      13A     -0.706043    14A     -0.682474    15A     -0.653758
      16A     -0.631980    17A     -0.590138    18A     -0.573925
      19A     -0.559682    20A     -0.509405    21A     -0.498653
      22A     -0.481861    23A     -0.475061    24A     -0.441759

  @DF-RHF Final Energy:  -305.99219524125351

   => Energetics <=

    Nuclear Repulsion Energy =            247.0020855268078321
    One-Electron Energy =                -906.8299884957016275
    Two-Electron Energy =                 353.8357077276402833
    DFT Exchange-Correlation Energy =       0.0000000000000000
    Empirical Dispersion Energy =           0.0000000000000000
    PCM Polarization Energy =               0.0000000000000000
    EFP Energy =                            0.0000000000000000
    Total Energy =                       -305.9921952412535120
    Molecular point group: c1
  Basis Set: CC-PVTZ
  Basis Set:

  -Total Gradient:
     Atom            X                  Y                   Z
    ------   -----------------  -----------------  -----------------
       1       -0.000010337452    -0.000057810961     0.000016069238
       2        0.000020190022    -0.000118754488     0.000158445418
       3       -0.000116672458     0.000073889185     0.000011756279
       4       -0.002730243945    -0.002296003077     0.002236936291
       5        0.000048695269     0.000012903199    -0.000044039731
       6       -0.002131031596    -0.002514238146    -0.002329617501
       7        0.002595838421     0.002333666785    -0.001608256822
       8        0.000064552421     0.000052854513    -0.000020113633
       9       -0.000032845930    -0.000080077908     0.000100060606
      10        0.002347662541     0.002586113517     0.001570410682
      11       -0.000026283750    -0.000047155136    -0.000018176366
      12       -0.000011797397     0.000000153930    -0.000031442285
      13        0.000001022419     0.000047586371    -0.000009582478
      14       -0.000018748565     0.000006872217    -0.000032449694

  **** Optimization is complete! (in 31 steps) ****
    Final optimized geometry and variables:
    Molecular point group: c1

    Geometry (in Angstrom), charge = 0, multiplicity = 1:

    H           -0.143278424011    -2.220116886711     0.908549978295
    O            0.182938328349    -1.349387545869     1.081890248189
    C            0.439141496888    -0.759451696691    -0.081282254536
    C            0.944312084178     0.649808094220     0.070935193776
    O            0.270596213445    -1.310350355304    -1.114951640561
    C           -0.149815379225     1.739590550478    -0.097133052360
    H            1.438864033651     0.757498455696     1.025190127072
    H            1.695416132507     0.782102764539    -0.695080891599
    C           -1.596443698580     1.279870275168     0.058158560733
    H           -0.015749386239     2.221310923459    -1.057113254274
    H            0.048670755880     2.509305994818     0.639321610559
    H           -1.868929289278     0.556669477618    -0.700586771563
    H           -2.264877483286     2.126871554234    -0.038162807480
    H           -1.768175744224     0.831633154989     1.029853572678

  Mulliken Charges: (a.u.)
   Center  Symbol    Alpha    Beta     Spin     Total
       1     H     0.38018  0.38018  0.00000  0.23964
       2     O     4.16523  4.16523  0.00000 -0.33046
       3     C     2.79268  2.79268  0.00000  0.41465
       4     C     3.10031  3.10031  0.00000 -0.20062
       5     O     4.20126  4.20126  0.00000 -0.40253
       6     C     3.08520  3.08520  0.00000 -0.17039
       7     H     0.44018  0.44018  0.00000  0.11964
       8     H     0.43740  0.43740  0.00000  0.12520
       9     C     3.15920  3.15920  0.00000 -0.31841
      10     H     0.44713  0.44713  0.00000  0.10574
      11     H     0.44996  0.44996  0.00000  0.10008
      12     H     0.44615  0.44615  0.00000  0.10770
      13     H     0.44624  0.44624  0.00000  0.10752
      14     H     0.44888  0.44888  0.00000  0.10223

   Total alpha = 24.00000, Total beta = 24.00000, Total charge =  0.00000

*** Psi4 exiting successfully. Buy a developer a beer!
