                              Psi4 1.0.54 Driver

  ==> Input File <==

--------------------------------------------------------------------------
set {
	reference rhf
	basis cc-pvtz
}

set_num_threads( 4 )
memory 2 gb

molecule MOL {
0 1

H	 -3.794927	 -0.699972	 0.377321
O	 -3.515113	 -0.019339	 -0.206321
C	 -2.302264	 0.528872	 0.237390
C	 -1.175688	 -0.398187	 -0.171891
H	 -2.148018	 1.514076	 -0.197759
H	 -2.310727	 0.646384	 1.319032
C	 0.196029	 0.106276	 0.266738
H	 -1.201873	 -0.515469	 -1.250677
H	 -1.365975	 -1.378728	 0.252664
C	 1.330220	 -0.826136	 -0.155230
H	 0.359542	 1.097229	 -0.145561
H	 0.212134	 0.218135	 1.348778
C	 2.719700	 -0.407669	 0.328325
H	 1.339388	 -0.911200	 -1.239363
H	 1.119001	 -1.821953	 0.224128
C	 3.241564	 0.893452	 -0.276737
H	 3.418299	 -1.204729	 0.093035
H	 2.711776	 -0.323368	 1.411960
H	 3.254204	 0.841071	 -1.360784
H	 2.634460	 1.745075	 0.005842
H	 4.254264	 1.092401	 0.054971

	symmetry c1
}
set optking {
	frozen_dihedral = ("
		1 2 3 5
	")
}

ee,wfn = optimize('scf', return_wfn=True)
oeprop( wfn, 'DIPOLE', 'QUADRUPOLE', 'MULLIKEN_CHARGES')
f=open( 'psi4out.xyz', 'w' )
f.write( "21  " )
f.write( str(ee) + "\n" )
f.write( MOL.save_string_xyz() )
f.close()
--------------------------------------------------------------------------

    Molecular point group: c1
  Charge       = 0
  Multiplicity = 1
  Basis Set: CC-PVTZ
  Basis Set:
  @DF-RHF Final Energy:  -310.33099956630514
    Total Energy =                       -310.3309995663050813
    Molecular point group: c1
  Basis Set: CC-PVTZ
  Basis Set:
  Basis Set: CC-PVTZ
  Basis Set:
  @DF-RHF Final Energy:  -310.01677669013588
    Total Energy =                       -310.0167766901356003
  Basis Set: CC-PVTZ
  Basis Set:
  Basis Set: CC-PVTZ
  Basis Set:
  @DF-RHF Final Energy:  -310.17449708481098
    Total Energy =                       -310.1744970848109801
  Basis Set: CC-PVTZ
  Basis Set:
  Basis Set: CC-PVTZ
  Basis Set:
  @DF-RHF Final Energy:  -310.30363176171812
    Total Energy =                       -310.3036317617186342
  Basis Set: CC-PVTZ
  Basis Set:
  @DF-RHF Final Energy:  -310.32989551886379
    Total Energy =                       -310.3298955188632817
  Basis Set: CC-PVTZ
  Basis Set:
  @DF-RHF Final Energy:  -310.33218329262871
    Total Energy =                       -310.3321832926287698
  Basis Set: CC-PVTZ
  Basis Set:
  Basis Set: CC-PVTZ
  Basis Set:
  @DF-RHF Final Energy:  -310.33251428044605
    Total Energy =                       -310.3325142804460484
  Basis Set: CC-PVTZ
  Basis Set:
  Basis Set: CC-PVTZ
  Basis Set:
  @DF-RHF Final Energy:  -310.33253245356764
    Total Energy =                       -310.3325324535678646
  Basis Set: CC-PVTZ
  Basis Set:
  Charge       = 0
  Multiplicity = 1
  Basis Set: CC-PVTZ
  Basis Set:

    Orbital Energies (a.u.)
    -----------------------

    Doubly Occupied:

       1A    -20.545281     2A    -11.264991     3A    -11.215518
       4A    -11.214800     5A    -11.213595     6A    -11.212132
       7A    -11.207197     8A     -1.363138     9A     -1.089276
      10A     -1.035296    11A     -0.956004    12A     -0.879465
      13A     -0.816933    14A     -0.780586    15A     -0.698552
      16A     -0.648844    17A     -0.620859    18A     -0.608364
      19A     -0.593809    20A     -0.576189    21A     -0.541739
      22A     -0.531760    23A     -0.504148    24A     -0.494487
      25A     -0.477723    26A     -0.466250    27A     -0.461194
      28A     -0.457701    29A     -0.423443

  @DF-RHF Final Energy:  -310.33253284631132

   => Energetics <=

    Nuclear Repulsion Energy =            312.6181204158031051
    One-Electron Energy =               -1040.1027611719141532
    Two-Electron Energy =                 417.1521079097998950
    DFT Exchange-Correlation Energy =       0.0000000000000000
    Empirical Dispersion Energy =           0.0000000000000000
    PCM Polarization Energy =               0.0000000000000000
    EFP Energy =                            0.0000000000000000
    Total Energy =                       -310.3325328463111532
    Molecular point group: c1
  Basis Set: CC-PVTZ
  Basis Set:

  -Total Gradient:
     Atom            X                  Y                   Z
    ------   -----------------  -----------------  -----------------
       1       -0.000585585434     0.000294293499     0.000943692602
       2        0.000654043632    -0.000328107141    -0.000976405168
       3        0.000405085317     0.000174635349    -0.000806000682
       4       -0.000009032485    -0.000013146710     0.000009802588
       5       -0.000467646629    -0.000146554793     0.000839663749
       6        0.000000570946     0.000002067206     0.000015616073
       7       -0.000020176431     0.000006156363    -0.000034426407
       8        0.000005159125     0.000003207263    -0.000005200478
       9       -0.000000575111    -0.000012444355    -0.000010462739
      10        0.000001790205     0.000044486762     0.000009774378
      11       -0.000021900051    -0.000024780878    -0.000017674906
      12        0.000011622220     0.000002856418     0.000014948817
      13       -0.000030247162    -0.000009244851     0.000038004096
      14       -0.000016794057     0.000020914995    -0.000006457420
      15        0.000007191422    -0.000003035284    -0.000016797442
      16        0.000024141391    -0.000005554535     0.000004957880
      17        0.000013566844    -0.000016991692     0.000001983000
      18        0.000005230577     0.000003203792     0.000025744072
      19       -0.000004358320     0.000017702021    -0.000016998251
      20        0.000035944526     0.000000265911     0.000000077674
      21       -0.000008030538    -0.000009929340    -0.000013841433

  **** Optimization is complete! (in 9 steps) ****
    Final optimized geometry and variables:
    Molecular point group: c1

    Geometry (in Angstrom), charge = 0, multiplicity = 1:

    H           -3.643228232948    -1.479878202284    -0.192788979788
    O           -3.506262171380    -0.557999133773    -0.308707509833
    C           -2.340743633766    -0.156240213580     0.360893343907
    C           -1.076669877282    -0.490898085203    -0.413496726039
    H           -2.425292765037     0.914331270134     0.499303999651
    H           -2.299658054776    -0.599451362561     1.353552090213
    C            0.191738872418    -0.007204254643     0.283799665570
    H           -1.151794927062    -0.047824519737    -1.401522593948
    H           -1.025997228279    -1.567723724869    -0.559956197102
    C            1.462106094500    -0.338579680889    -0.497206610200
    H            0.121737490199     1.064865803374     0.439253505444
    H            0.255259043413    -0.456018491237     1.272883583833
    C            2.766075477216     0.049922861319     0.201646412994
    H            1.420104831572     0.144438839178    -1.470586832295
    H            1.480856869207    -1.407547125037    -0.690904609230
    C            2.978222380484     1.552711138786     0.368074861240
    H            3.594749974940    -0.356406952135    -0.370093267461
    H            2.807513096678    -0.430007853307     1.176018403049
    H            2.933348050436     2.060626598835    -0.590049913789
    H            2.232093545177     1.999324735169     1.014121994288
    H            3.949371425222     1.757388625758     0.803946800793

  Mulliken Charges: (a.u.)
   Center  Symbol    Alpha    Beta     Spin     Total
       1     H     0.39519  0.39519  0.00000  0.20963
       2     O     4.20131  4.20131  0.00000 -0.40261
       3     C     2.97251  2.97251  0.00000  0.05498
       4     C     3.08844  3.08844  0.00000 -0.17688
       5     H     0.45405  0.45405  0.00000  0.09189
       6     H     0.47099  0.47099  0.00000  0.05803
       7     C     3.10305  3.10305  0.00000 -0.20610
       8     H     0.44949  0.44949  0.00000  0.10101
       9     H     0.46147  0.46147  0.00000  0.07705
      10     C     3.09409  3.09409  0.00000 -0.18818
      11     H     0.45128  0.45128  0.00000  0.09743
      12     H     0.45554  0.45554  0.00000  0.08891
      13     C     3.09005  3.09005  0.00000 -0.18009
      14     H     0.45269  0.45269  0.00000  0.09461
      15     H     0.44949  0.44949  0.00000  0.10102
      16     C     3.15231  3.15231  0.00000 -0.30461
      17     H     0.44835  0.44835  0.00000  0.10330
      18     H     0.45502  0.45502  0.00000  0.08996
      19     H     0.45447  0.45447  0.00000  0.09106
      20     H     0.45389  0.45389  0.00000  0.09222
      21     H     0.44631  0.44631  0.00000  0.10737

   Total alpha = 29.00000, Total beta = 29.00000, Total charge = -0.00000

*** Psi4 exiting successfully. Buy a developer a beer!
