  ==> Input File <==

--------------------------------------------------------------------------
set {
	reference rhf
	basis cc-pvtz
}

set_num_threads( 4 )
memory 2 gb

molecule MOL {
0 1

H	 -1.420382	 -1.702779	 1.439408
N	 -0.640718	 -1.084685	 1.364202
C	 -0.561396	 -0.500007	 0.035200
H	 0.178698	 -1.617690	 1.568648
C	 0.575129	 0.507849	 -0.048832
H	 -1.501129	 0.005161	 -0.162093
H	 -0.436405	 -1.246131	 -0.750987
C	 1.951750	 -0.141983	 0.035101
H	 0.478254	 1.061643	 -0.975981
H	 0.467676	 1.231891	 0.755499
H	 2.101550	 -0.848142	 -0.774949
H	 2.738260	 0.600794	 -0.026526
H	 2.078939	 -0.679792	 0.968824

	symmetry c1
}
set optking {
	frozen_dihedral = ("
		6 3 5 9
	")
}

ee = optimize('scf')
oeprop('DIPOLE', 'QUADRUPOLE', 'MULLIKEN_CHARGES')
f=open( 'psi4out.xyz', 'w' )
f.write( "13  " )
f.write( str(ee) + "\n" )
f.write( MOL.save_string_xyz() )
f.close()
--------------------------------------------------------------------------

    Molecular point group: c1
  Charge       = 0
  Multiplicity = 1
  Basis Set: CC-PVTZ
  Basis Set:
  @DF-RHF Final Energy:  -173.35116179563855
    Total Energy =                       -173.3511617956384612
    Molecular point group: c1
  Basis Set: CC-PVTZ
  Basis Set:
  Basis Set: CC-PVTZ
  Basis Set:
  @DF-RHF Final Energy:  -173.35143128394694
    Total Energy =                       -173.3514312839467948
  Basis Set: CC-PVTZ
  Basis Set:
  Basis Set: CC-PVTZ
  Basis Set:
  @DF-RHF Final Energy:  -173.35149321844293
    Total Energy =                       -173.3514932184428972
  Basis Set: CC-PVTZ
  Basis Set:
  Basis Set: CC-PVTZ
  Basis Set:
  @DF-RHF Final Energy:  -173.35149782895630
    Total Energy =                       -173.3514978289563260
  Basis Set: CC-PVTZ
  Basis Set:
  Charge       = 0
  Multiplicity = 1
  Basis Set: CC-PVTZ
  Basis Set:

    Orbital Energies (a.u.)
    -----------------------

    Doubly Occupied:

       1A    -15.526908     2A    -11.238660     3A    -11.209876
       4A    -11.207006     5A     -1.178683     6A     -1.033086
       7A     -0.908258     8A     -0.789870     9A     -0.669524
      10A     -0.640826    11A     -0.571259    12A     -0.565613
      13A     -0.561425    14A     -0.482456    15A     -0.478582
      16A     -0.469741    17A     -0.384088

  @DF-RHF Final Energy:  -173.35149861279129

   => Energetics <=

    Nuclear Repulsion Energy =            133.7572686519098681
    One-Electron Energy =                -498.3858151292721459
    Two-Electron Energy =                 191.2770478645710455
    DFT Exchange-Correlation Energy =       0.0000000000000000
    Empirical Dispersion Energy =           0.0000000000000000
    PCM Polarization Energy =               0.0000000000000000
    EFP Energy =                            0.0000000000000000
    Total Energy =                       -173.3514986127912607
    Molecular point group: c1
  Basis Set: CC-PVTZ
  Basis Set:

  -Total Gradient:
     Atom            X                  Y                   Z
    ------   -----------------  -----------------  -----------------
       1       -0.000005331321    -0.000022571095     0.000023719456
       2       -0.000019146375     0.000015426978    -0.000016911401
       3       -0.000319413340     0.000539165373     0.001685491440
       4        0.000023492862    -0.000014590033     0.000004198093
       5        0.000929452605    -0.001151958641    -0.001008810582
       6        0.000118514761    -0.000250474380    -0.001261073541
       7       -0.000011432965    -0.000015015194    -0.000011825329
       8       -0.000008488616     0.000013447030    -0.000031419651
       9       -0.000701376302     0.000873867897     0.000589711638
      10       -0.000007796944     0.000012296442     0.000010263125
      11        0.000008665870    -0.000002638127     0.000013423492
      12        0.000004608044     0.000009888298     0.000000496949
      13       -0.000011748280    -0.000006844548     0.000002736310

  **** Optimization is complete! (in 5 steps) ****
    Final optimized geometry and variables:
    Molecular point group: c1

    Geometry (in Angstrom), charge = 0, multiplicity = 1:

    H           -1.811263123767    -1.312128301897     1.086247511154
    N           -0.981460149791    -0.764451054836     1.002989606854
    C           -0.888845579514    -0.163266679843    -0.318964874684
    H           -0.212361813857    -1.375399430776     1.178354634062
    C            0.251491747695     0.843402849997    -0.408886309018
    H           -1.822577494562     0.350191491359    -0.516916399502
    H           -0.771877503889    -0.904040029965    -1.112408341292
    C            1.642163575036     0.219866783186    -0.336190093450
    H            0.149981418149     1.392737638771    -1.340264123868
    H            0.134048168195     1.564568335908     0.393013099486
    H            1.784785852456    -0.515190860855    -1.122223332957
    H            2.411027442516     0.975363496274    -0.448198203554
    H            1.810890678170    -0.270732600163     0.615863442781

  Mulliken Charges: (a.u.)
   Center  Symbol    Alpha    Beta     Spin     Total
       1     H     0.42883  0.42883  0.00000  0.14235
       2     N     3.69038  3.69038  0.00000 -0.38077
       3     C     3.03228  3.03228  0.00000 -0.06456
       4     H     0.42983  0.42983  0.00000  0.14035
       5     C     3.08032  3.08032  0.00000 -0.16064
       6     H     0.45266  0.45266  0.00000  0.09467
       7     H     0.46663  0.46663  0.00000  0.06674
       8     C     3.15445  3.15445  0.00000 -0.30891
       9     H     0.45470  0.45470  0.00000  0.09060
      10     H     0.45206  0.45206  0.00000  0.09588
      11     H     0.45585  0.45585  0.00000  0.08829
      12     H     0.44655  0.44655  0.00000  0.10690
      13     H     0.45545  0.45545  0.00000  0.08909

   Total alpha = 17.00000, Total beta = 17.00000, Total charge = -0.00000
