  ==> Input File <==

--------------------------------------------------------------------------
set {
	reference rhf
	basis cc-pvtz
}

set_num_threads( 4 )
memory 2 gb

molecule MOL {
0 1

H	 2.844822	 -0.414496	 -0.134276
O	 2.008969	 -0.856138	 -0.140463
C	 1.050374	 0.054877	 0.000135
C	 -0.318151	 -0.570512	 0.000144
O	 1.288897	 1.207813	 0.108823
C	 -1.454884	 0.441630	 -0.000560
H	 -0.371613	 -1.223646	 -0.864985
H	 -0.371920	 -1.222758	 0.865929
C	 -2.822577	 -0.232186	 0.000063
H	 -1.359760	 1.084704	 -0.867077
H	 -1.359641	 1.085996	 0.864983
H	 -2.954352	 -0.858985	 -0.875745
H	 -3.615886	 0.505352	 0.000019
H	 -2.953878	 -0.858359	 0.876394

	symmetry c1
}
set optking {
	frozen_dihedral = ("
		2 3 4 7
	")
}

ee = optimize('scf')
oeprop('DIPOLE', 'QUADRUPOLE', 'MULLIKEN_CHARGES')
f=open( 'psi4out.xyz', 'w' )
f.write( "14  " )
f.write( str(ee) + "\n" )
f.write( MOL.save_string_xyz() )
f.close()
--------------------------------------------------------------------------

    Molecular point group: c1
  Charge       = 0
  Multiplicity = 1
  Basis Set: CC-PVTZ
  Basis Set:
  @DF-RHF Final Energy:  -306.00099927966937
    Total Energy =                       -306.0009992796693723
    Molecular point group: c1
  Basis Set: CC-PVTZ
  Basis Set:
  Basis Set: CC-PVTZ
  Basis Set:
  @DF-RHF Final Energy:  -306.00100225656547
    Total Energy =                       -306.0010022565654708
  Basis Set: CC-PVTZ
  Basis Set:
  Basis Set: CC-PVTZ
  Basis Set:
  @DF-RHF Final Energy:  -306.00098076407983
    Total Energy =                       -306.0009807640797135
  Basis Set: CC-PVTZ
  Basis Set:
  Basis Set: CC-PVTZ
  Basis Set:
  @DF-RHF Final Energy:  -306.00101547268400
    Total Energy =                       -306.0010154726838323
  Basis Set: CC-PVTZ
  Basis Set:
  Charge       = 0
  Multiplicity = 1
  Basis Set: CC-PVTZ
  Basis Set:

    Orbital Energies (a.u.)
    -----------------------

    Doubly Occupied:

       1A    -20.604544     2A    -20.540984     3A    -11.374026
       4A    -11.239850     5A    -11.224000     6A    -11.215462
       7A     -1.478095     8A     -1.369593     9A     -1.084500
      10A     -0.981036    11A     -0.859273    12A     -0.793145
      13A     -0.704280    14A     -0.691920    15A     -0.669712
      16A     -0.618116    17A     -0.596896    18A     -0.574749
      19A     -0.546029    20A     -0.507200    21A     -0.492427
      22A     -0.485045    23A     -0.482221    24A     -0.447648

  @DF-RHF Final Energy:  -306.00101559646600

   => Energetics <=

    Nuclear Repulsion Energy =            240.4478971990718890
    One-Electron Energy =                -893.7363225578271795
    Two-Electron Energy =                 347.2874097622890304
    DFT Exchange-Correlation Energy =       0.0000000000000000
    Empirical Dispersion Energy =           0.0000000000000000
    PCM Polarization Energy =               0.0000000000000000
    EFP Energy =                            0.0000000000000000
    Total Energy =                       -306.0010155964662317
    Molecular point group: c1
  Basis Set: CC-PVTZ
  Basis Set:

  -Total Gradient:
     Atom            X                  Y                   Z
    ------   -----------------  -----------------  -----------------
       1       -0.000000532477     0.000000612034    -0.000000516057
       2       -0.000012633989     0.000026895921    -0.000302865792
       3        0.000043242793    -0.000092110405     0.000444380293
       4       -0.000156059442     0.000346523138    -0.000346362500
       5       -0.000002198510    -0.000005251377    -0.000000575441
       6        0.000000477382     0.000000621178     0.000008159980
       7        0.000126984158    -0.000275207565     0.000201266718
       8       -0.000001175825    -0.000000573701     0.000001484385
       9        0.000000715599    -0.000000431159    -0.000006109922
      10       -0.000000224333    -0.000001616606     0.000000490271
      11        0.000001178012     0.000000364337     0.000000517428
      12       -0.000001379942    -0.000001358488     0.000000657366
      13        0.000000154117     0.000000054176    -0.000001314219
      14        0.000001452458     0.000001478518     0.000000787490

  **** Optimization is complete! (in 5 steps) ****
    Final optimized geometry and variables:
    Molecular point group: c1

    Geometry (in Angstrom), charge = 0, multiplicity = 1:

    H            2.846138323350    -0.415397680006    -0.106902435155
    O            2.010184708989    -0.856397852664    -0.129107488647
    C            1.050483068537     0.054499959951     0.004463853553
    C           -0.318082805972    -0.570735991491    -0.001727761784
    O            1.288275495706     1.207176536921     0.117588857864
    C           -1.454862903462     0.441296588011     0.005336093589
    H           -0.373562538927    -1.226873508670    -0.863527501721
    H           -0.368957893423    -1.221096896140     0.866572212949
    C           -2.822518132886    -0.232505530903     0.011783647836
    H           -1.364968082474     1.085390334142    -0.861460353792
    H           -1.354316001769     1.084412736684     0.870741238457
    H           -2.958343780325    -0.859536108766    -0.863220986716
    H           -3.615781279669     0.505079976719     0.015256857675
    H           -2.949687068425    -0.858396486723     0.888929993483

  Mulliken Charges: (a.u.)
   Center  Symbol    Alpha    Beta     Spin     Total
       1     H     0.38222  0.38222  0.00000  0.23556
       2     O     4.16004  4.16004  0.00000 -0.32008
       3     C     2.80554  2.80554  0.00000  0.38892
       4     C     3.10506  3.10506  0.00000 -0.21012
       5     O     4.19110  4.19110  0.00000 -0.38221
       6     C     3.07948  3.07948  0.00000 -0.15896
       7     H     0.43809  0.43809  0.00000  0.12382
       8     H     0.43984  0.43984  0.00000  0.12033
       9     C     3.15028  3.15028  0.00000 -0.30055
      10     H     0.44737  0.44737  0.00000  0.10526
      11     H     0.44495  0.44495  0.00000  0.11010
      12     H     0.45555  0.45555  0.00000  0.08890
      13     H     0.44510  0.44510  0.00000  0.10979
      14     H     0.45539  0.45539  0.00000  0.08922

   Total alpha = 24.00000, Total beta = 24.00000, Total charge = -0.00000
