  ==> Input File <==

--------------------------------------------------------------------------
set {
	reference rhf
	basis 6-31G*
}

set_num_threads( 4 )
memory 2 gb

molecule MOL {
0 1

O	 1.318013	 0.198887	 0.926361
C	 0.576249	 0.131685	 -0.000108
C	 -0.766779	 -0.556801	 -0.000461
O	 0.842020	 0.668294	 -1.184203
C	 -1.945214	 0.412366	 0.000161
H	 -0.796911	 -1.211249	 -0.867467
H	 -0.796854	 -1.212390	 0.865687
C	 -3.287791	 -0.317055	 0.000105
H	 -1.876087	 1.060580	 -0.866812
H	 -1.875822	 1.059691	 0.867761
H	 -3.394745	 -0.949193	 -0.877058
H	 -4.111778	 0.388953	 0.000015
H	 -3.394954	 -0.949187	 0.877259
C	 2.077260	 1.347345	 -1.319401
H	 2.133185	 2.175634	 -0.627771
H	 2.106657	 1.706570	 -2.336239
H	 2.902763	 0.674799	 -1.135725

	symmetry c1
}
set optking {
	frozen_dihedral = ("
		1 2 3 6
	")
}

ee = optimize('scf')
oeprop('DIPOLE', 'QUADRUPOLE', 'MULLIKEN_CHARGES')
f=open( 'psi4out.xyz', 'w' )
f.write( "17  " )
f.write( str(ee) + "\n" )
f.write( MOL.save_string_xyz() )
f.close()
--------------------------------------------------------------------------

    Molecular point group: c1
  Charge       = 0
  Multiplicity = 1
  Basis Set: 6-31G*
  Basis Set:
  @DF-RHF Final Energy:  -344.90513267311337
    Total Energy =                       -344.9051326731130871
    Molecular point group: c1
  Basis Set: 6-31G*
  Basis Set:
  Basis Set: 6-31G*
  Basis Set:
  @DF-RHF Final Energy:  -344.90529306697368
    Total Energy =                       -344.9052930669737407
  Basis Set: 6-31G*
  Basis Set:
  Basis Set: 6-31G*
  Basis Set:
  @DF-RHF Final Energy:  -344.90449762377074
    Total Energy =                       -344.9044976237705100
  Basis Set: 6-31G*
  Basis Set:
  Basis Set: 6-31G*
  Basis Set:
  @DF-RHF Final Energy:  -344.90558277278279
    Total Energy =                       -344.9055827727828500
  Basis Set: 6-31G*
  Basis Set:
  Basis Set: 6-31G*
  Basis Set:
  @DF-RHF Final Energy:  -344.90558469736618
    Total Energy =                       -344.9055846973660096
  Basis Set: 6-31G*
  Basis Set:
  Basis Set: 6-31G*
  Basis Set:
  @DF-RHF Final Energy:  -344.90558585013565
    Total Energy =                       -344.9055858501352532
  Basis Set: 6-31G*
  Basis Set:
  Charge       = 0
  Multiplicity = 1
  Basis Set: 6-31G*
  Basis Set:

    Orbital Energies (a.u.)
    -----------------------

    Doubly Occupied:

       1A    -20.604487     2A    -20.544006     3A    -11.371160
       4A    -11.281004     5A    -11.234522     6A    -11.231998
       7A    -11.218809     8A     -1.468967     9A     -1.361652
      10A     -1.084603    11A     -0.999221    12A     -0.941689
      13A     -0.831057    14A     -0.774207    15A     -0.697014
      16A     -0.679888    17A     -0.673089    18A     -0.636752
      19A     -0.595703    20A     -0.580089    21A     -0.548591
      22A     -0.547311    23A     -0.525745    24A     -0.508377
      25A     -0.489159    26A     -0.484240    27A     -0.454496
      28A     -0.431810

  @DF-RHF Final Energy:  -344.90558596469174

   => Energetics <=

    Nuclear Repulsion Energy =            314.1608529103063461
    One-Electron Energy =               -1092.5335810985411626
    Two-Electron Energy =                 433.4671422235433056
    DFT Exchange-Correlation Energy =       0.0000000000000000
    Empirical Dispersion Energy =           0.0000000000000000
    PCM Polarization Energy =               0.0000000000000000
    EFP Energy =                            0.0000000000000000
    Total Energy =                       -344.9055859646914541
    Molecular point group: c1
  Basis Set: 6-31G*
  Basis Set:

  -Total Gradient:
     Atom            X                  Y                   Z
    ------   -----------------  -----------------  -----------------
       1       -0.000025512159     0.000044888460     0.000004542686
       2        0.000035960154    -0.000065449959    -0.000006844467
       3        0.000012883835     0.000002457402     0.000018426248
       4        0.000000257481     0.000008021707    -0.000005781270
       5       -0.000004518196     0.000002462094     0.000018911267
       6       -0.000013170585     0.000022619458    -0.000020062724
       7       -0.000003728117    -0.000002399330    -0.000008736153
       8       -0.000004188031    -0.000001723258    -0.000007732650
       9        0.000000387076    -0.000006631418     0.000005380769
      10        0.000005007108     0.000000857403    -0.000003149681
      11        0.000001213332    -0.000003011166     0.000002874911
      12       -0.000001841538    -0.000000646609    -0.000002395935
      13       -0.000001312019     0.000003826596     0.000001988365
      14       -0.000003287994    -0.000006333636     0.000004002117
      15       -0.000000740081     0.000000082755    -0.000000682872
      16       -0.000001535964    -0.000000293994     0.000000019534
      17        0.000004125694     0.000001273495    -0.000000760142

  **** Optimization is complete! (in 7 steps) ****
    Final optimized geometry and variables:
    Molecular point group: c1

    Geometry (in Angstrom), charge = 0, multiplicity = 1:

    O            1.468155711945    -0.120376496615     1.153469837808
    C            0.723148085965    -0.174890531126     0.228417101766
    C           -0.616900002811    -0.866448686237     0.235153740700
    O            0.978552227099     0.394511906824    -0.943210922827
    C           -1.782819411980     0.132863644858     0.207487803588
    H           -0.673489515880    -1.517309507237    -0.631536117001
    H           -0.660162049711    -1.476727254011     1.128043142444
    C           -3.138811255861    -0.569118119817     0.250477644723
    H           -1.711632003645     0.741284846265    -0.687687474777
    H           -1.695171792288     0.806403706829     1.055783828102
    H           -3.264454215554    -1.231752911869    -0.600892658581
    H           -3.949037958147     0.152415895075     0.231177047818
    H           -3.245408246604    -1.163599899516     1.152925257024
    C            2.200569528552     1.099981741833    -1.061855656149
    H            2.241476570578     1.911386406119    -0.349516224521
    H            2.222709155271     1.485015037358    -2.069441058841
    H            3.038270630437     0.438316589192    -0.895058659053

  Mulliken Charges: (a.u.)
   Center  Symbol    Alpha    Beta     Spin     Total
       1     O     4.28474  4.28474  0.00000 -0.56948
       2     C     2.61669  2.61669  0.00000  0.76662
       3     C     3.19391  3.19391  0.00000 -0.38781
       4     O     4.30280  4.30280  0.00000 -0.60561
       5     C     3.16462  3.16462  0.00000 -0.32924
       6     H     0.40475  0.40475  0.00000  0.19051
       7     H     0.39939  0.39939  0.00000  0.20122
       8     C     3.24101  3.24101  0.00000 -0.48202
       9     H     0.40817  0.40817  0.00000  0.18367
      10     H     0.41239  0.41239  0.00000  0.17522
      11     H     0.41931  0.41931  0.00000  0.16137
      12     H     0.41522  0.41522  0.00000  0.16956
      13     H     0.41822  0.41822  0.00000  0.16355
      14     C     3.09237  3.09237  0.00000 -0.18473
      15     H     0.40903  0.40903  0.00000  0.18193
      16     H     0.40880  0.40880  0.00000  0.18240
      17     H     0.40857  0.40857  0.00000  0.18286

   Total alpha = 28.00000, Total beta = 28.00000, Total charge =  0.00000
