  ==> Input File <==

--------------------------------------------------------------------------
set {
	reference rhf
	basis cc-pvtz
}

set_num_threads( 4 )
memory 2 gb

molecule MOL {
0 1

H	 3.273419	 0.176595	 -0.102789
N	 2.433987	 -0.362316	 -0.080024
C	 1.263552	 0.494993	 0.021953
H	 2.497638	 -0.973615	 0.707122
C	 -0.016533	 -0.325589	 -0.026925
H	 1.280915	 1.180773	 -0.818522
H	 1.263064	 1.106893	 0.925038
C	 -1.280353	 0.525521	 0.047747
H	 -0.016686	 -0.912532	 -0.939714
H	 -0.014099	 -1.037598	 0.796369
C	 -1.437348	 1.466268	 -1.142353
H	 -1.267361	 1.107456	 0.965434
H	 -2.150828	 -0.121934	 0.110581
H	 -0.598181	 2.150010	 -1.213234
H	 -2.341013	 2.058958	 -1.058334
H	 -1.490308	 0.912840	 -2.074069

	symmetry c1
}
set optking {
	frozen_dihedral = ("
		12 8 5 9
	")
}

ee = optimize('scf')
oeprop('DIPOLE', 'QUADRUPOLE', 'MULLIKEN_CHARGES')
f=open( 'psi4out.xyz', 'w' )
f.write( "16  " )
f.write( str(ee) + "\n" )
f.write( MOL.save_string_xyz() )
f.close()
--------------------------------------------------------------------------

    Molecular point group: c1
  Charge       = 0
  Multiplicity = 1
  Basis Set: CC-PVTZ
  Basis Set:
  @DF-RHF Final Energy:  -212.39802777049204
    Total Energy =                       -212.3980277704920923
    Molecular point group: c1
  Basis Set: CC-PVTZ
  Basis Set:
  Basis Set: CC-PVTZ
  Basis Set:
  @DF-RHF Final Energy:  -212.39841351336051
    Total Energy =                       -212.3984135133605378
  Basis Set: CC-PVTZ
  Basis Set:
  Basis Set: CC-PVTZ
  Basis Set:
  @DF-RHF Final Energy:  -212.39867710111659
    Total Energy =                       -212.3986771011164478
  Basis Set: CC-PVTZ
  Basis Set:
  Basis Set: CC-PVTZ
  Basis Set:
  @DF-RHF Final Energy:  -212.39868879848058
    Total Energy =                       -212.3986887984805207
  Basis Set: CC-PVTZ
  Basis Set:
  Charge       = 0
  Multiplicity = 1
  Basis Set: CC-PVTZ
  Basis Set:

    Orbital Energies (a.u.)
    -----------------------

    Doubly Occupied:

       1A    -15.526460     2A    -11.237652     3A    -11.213223
       4A    -11.208199     5A    -11.205670     6A     -1.178294
       7A     -1.059690     8A     -0.955931     9A     -0.858602
      10A     -0.780315    11A     -0.665872    12A     -0.630239
      13A     -0.607420    14A     -0.596927    15A     -0.548832
      16A     -0.522226    17A     -0.516760    18A     -0.467258
      19A     -0.466526    20A     -0.455416    21A     -0.384008

  @DF-RHF Final Energy:  -212.39868932098545

   => Energetics <=

    Nuclear Repulsion Energy =            188.8959883167461840
    One-Electron Energy =                -660.4183147535293301
    Two-Electron Energy =                 259.1236371157977487
    DFT Exchange-Correlation Energy =       0.0000000000000000
    Empirical Dispersion Energy =           0.0000000000000000
    PCM Polarization Energy =               0.0000000000000000
    EFP Energy =                            0.0000000000000000
    Total Energy =                       -212.3986893209853974
    Molecular point group: c1
  Basis Set: CC-PVTZ
  Basis Set:

  -Total Gradient:
     Atom            X                  Y                   Z
    ------   -----------------  -----------------  -----------------
       1       -0.000011948789     0.000004267026     0.000004429491
       2       -0.000016222872    -0.000010531209     0.000027301161
       3       -0.000012889453     0.000018305194    -0.000042965260
       4        0.000012754600    -0.000012558316     0.000004063467
       5        0.000000041673    -0.000011717192    -0.000008827341
       6       -0.000020165577     0.000023691173    -0.000007085286
       7        0.000012035779    -0.000011336086     0.000002394733
       8        0.000016207915     0.000012767579     0.000029200941
       9        0.000014286399    -0.000000762241    -0.000008448658
      10       -0.000009145619     0.000000818264     0.000000585601
      11        0.000003319892    -0.000023686383    -0.000002256534
      12       -0.000004431734     0.000011016589     0.000010332530
      13        0.000006407388     0.000001773208    -0.000004418419
      14        0.000007773497    -0.000005841859     0.000003857225
      15        0.000001336968    -0.000002958698     0.000002339538
      16        0.000000639932     0.000006752951    -0.000010503189

  **** Optimization is complete! (in 5 steps) ****
    Final optimized geometry and variables:
    Molecular point group: c1

    Geometry (in Angstrom), charge = 0, multiplicity = 1:

    H            3.068009615839    -0.255629820121     0.180269254139
    N            2.211989733713    -0.767896053315     0.198038756088
    C            1.065803460448     0.126424477918     0.239088450519
    H            2.235998239329    -1.355264652271     1.005287912566
    C           -0.232433424099    -0.667516919954     0.177958950862
    H            1.136842256980     0.786733380237    -0.616618526933
    H            1.053935209324     0.761550367060     1.126552667232
    C           -1.501624952572     0.179554417746     0.272991862189
    H           -0.240657670187    -1.248807532274    -0.738634900193
    H           -0.233353751933    -1.385130947093     0.995125128914
    C           -1.728858089333     1.119008808538    -0.909279239095
    H           -1.483289892793     0.757144424767     1.193609121153
    H           -2.352761972180    -0.488978751656     0.354387098724
    H           -0.956600721445     1.875638530588    -0.980947227045
    H           -2.678680208231     1.632862856234    -0.814870478791
    H           -1.741587362265     0.570224018014    -1.845327064369

  Mulliken Charges: (a.u.)
   Center  Symbol    Alpha    Beta     Spin     Total
       1     H     0.43003  0.43003  0.00000  0.13994
       2     N     3.68947  3.68947  0.00000 -0.37895
       3     C     3.02664  3.02664  0.00000 -0.05327
       4     H     0.43090  0.43090  0.00000  0.13820
       5     C     3.08689  3.08689  0.00000 -0.17378
       6     H     0.45544  0.45544  0.00000  0.08913
       7     H     0.46865  0.46865  0.00000  0.06271
       8     C     3.09493  3.09493  0.00000 -0.18986
       9     H     0.44951  0.44951  0.00000  0.10099
      10     H     0.45563  0.45563  0.00000  0.08875
      11     C     3.15184  3.15184  0.00000 -0.30368
      12     H     0.45616  0.45616  0.00000  0.08769
      13     H     0.44854  0.44854  0.00000  0.10293
      14     H     0.45480  0.45480  0.00000  0.09040
      15     H     0.44699  0.44699  0.00000  0.10603
      16     H     0.45360  0.45360  0.00000  0.09279

   Total alpha = 21.00000, Total beta = 21.00000, Total charge = -0.00000
