  ==> Input File <==

--------------------------------------------------------------------------
set {
	reference rhf
	basis 6-31G*
}

set_num_threads( 4 )
memory 2 gb

molecule MOL {
0 1

H	 -2.128177	 0.069849	 0.000000
C	 -1.211606	 -0.484033	 0.000000
C	 -1.203612	 -1.867295	 0.000000
C	 0.000000	 0.183220	 0.000000
H	 -2.133896	 -2.404452	 0.000000
C	 0.000000	 -2.555744	 0.000000
N	 0.000000	 1.642018	 0.000000
C	 1.211606	 -0.484034	 0.000000
H	 0.000000	 -3.630640	 0.000000
C	 1.203612	 -1.867295	 0.000000
O	 1.057097	 2.196749	 0.000000
O	 -1.057097	 2.196749	 0.000000
H	 2.128177	 0.069849	 0.000000
H	 2.133896	 -2.404452	 0.000000

	symmetry c1
}
set optking {
	frozen_dihedral = ("
		2 4 7 11
	")
}

ee = optimize('scf')
oeprop('DIPOLE', 'QUADRUPOLE', 'MULLIKEN_CHARGES')
f=open( 'psi4out.xyz', 'w' )
f.write( "14  " )
f.write( str(ee) + "\n" )
f.write( MOL.save_string_xyz() )
f.close()
--------------------------------------------------------------------------

    Molecular point group: c1
  Charge       = 0
  Multiplicity = 1
  Basis Set: 6-31G*
  Basis Set:

    Orbital Energies (a.u.)
    -----------------------

    Doubly Occupied:

       1A    -20.600863     2A    -20.600807     3A    -15.855789
       4A    -11.303604     5A    -11.270630     6A    -11.270594
       7A    -11.268352     8A    -11.261012     9A    -11.260904
      10A     -1.634245    11A     -1.417465    12A     -1.201232
      13A     -1.094352    14A     -1.052404    15A     -0.957960
      16A     -0.864227    17A     -0.825058    18A     -0.784525
      19A     -0.733520    20A     -0.728723    21A     -0.708736
      22A     -0.654957    23A     -0.650132    24A     -0.624451
      25A     -0.552809    26A     -0.535324    27A     -0.529356
      28A     -0.489046    29A     -0.486733    30A     -0.451612
      31A     -0.374072    32A     -0.365467

  @DF-RHF Final Energy:  -434.17430182776928

   => Energetics <=

    Nuclear Repulsion Energy =            417.1833566007740615
    One-Electron Energy =               -1417.8973989271439677
    Two-Electron Energy =                 566.5397404986008496
    DFT Exchange-Correlation Energy =       0.0000000000000000
    Empirical Dispersion Energy =           0.0000000000000000
    PCM Polarization Energy =               0.0000000000000000
    EFP Energy =                            0.0000000000000000
    Total Energy =                       -434.1743018277691135
    Molecular point group: c1
  Basis Set: 6-31G*
  Basis Set:

  -Total Gradient:
     Atom            X                  Y                   Z
    ------   -----------------  -----------------  -----------------
       1       -0.000015049304     0.000033608519    -0.000000000000
       2        0.000051082189    -0.000002822597     0.000000000000
       3        0.000078395479     0.000016813894     0.000000000000
       4        0.000000010553    -0.000023859801    -0.000000000000
       5       -0.000009891473    -0.000040463184    -0.000000000000
       6        0.000000235608     0.000000190766     0.000000000000
       7        0.000000081553     0.000050468673    -0.000000000000
       8       -0.000051312857    -0.000004116767    -0.000000000000
       9        0.000000007482     0.000029751602    -0.000000000000
      10       -0.000078576595     0.000017363355     0.000000000000
      11        0.000053756918    -0.000035210644     0.000000000000
      12       -0.000053905496    -0.000035175245     0.000000000000
      13        0.000015293779     0.000033882884     0.000000000000
      14        0.000009872164    -0.000040431455    -0.000000000000

  **** Optimization is complete! (in 1 steps) ****
    Final optimized geometry and variables:
    Molecular point group: c1

    Geometry (in Angstrom), charge = 0, multiplicity = 1:

    H           -2.128177000000     0.069849321857     0.000000000000
    C           -1.211606000000    -0.484032678143     0.000000000000
    C           -1.203612000000    -1.867294678143     0.000000000000
    C            0.000000000000     0.183220321857     0.000000000000
    H           -2.133896000000    -2.404451678143     0.000000000000
    C            0.000000000000    -2.555743678143     0.000000000000
    N            0.000000000000     1.642018321857     0.000000000000
    C            1.211606000000    -0.484033678143     0.000000000000
    H            0.000000000000    -3.630639678143     0.000000000000
    C            1.203612000000    -1.867294678143     0.000000000000
    O            1.057097000000     2.196749321857     0.000000000000
    O           -1.057097000000     2.196749321857     0.000000000000
    H            2.128177000000     0.069849321857     0.000000000000
    H            2.133896000000    -2.404451678143     0.000000000000

  Mulliken Charges: (a.u.)
   Center  Symbol    Alpha    Beta     Spin     Total
       1     H     0.36407  0.36407  0.00000  0.27185
       2     C     3.08499  3.08499  0.00000 -0.16998
       3     C     3.10839  3.10839  0.00000 -0.21677
       4     C     2.92358  2.92358  0.00000  0.15284
       5     H     0.38851  0.38851  0.00000  0.22298
       6     C     3.08592  3.08592  0.00000 -0.17185
       7     N     3.24009  3.24009  0.00000  0.51982
       8     C     3.08499  3.08499  0.00000 -0.16998
       9     H     0.38886  0.38886  0.00000  0.22227
      10     C     3.10839  3.10839  0.00000 -0.21677
      11     O     4.23482  4.23482  0.00000 -0.46963
      12     O     4.23482  4.23482  0.00000 -0.46963
      13     H     0.36407  0.36407  0.00000  0.27185
      14     H     0.38851  0.38851  0.00000  0.22298

   Total alpha = 32.00000, Total beta = 32.00000, Total charge =  0.00000
