                              Psi4 1.0.54 Driver

  ==> Input File <==

--------------------------------------------------------------------------
set {
	reference rhf
	basis cc-pvtz
}

set_num_threads( 4 )
memory 2 gb

molecule MOL {
0 1

H	 -0.459197	 -0.261142	 -2.190597
C	 -0.695917	 -0.939299	 -1.373927
O	 -1.401606	 -0.295183	 -0.366624
H	 -1.316465	 -1.737686	 -1.753910
H	 0.233429	 -1.366252	 -1.001219
C	 -0.718530	 0.758693	 0.228682
C	 0.718529	 0.758687	 -0.228709
H	 -1.176498	 1.708665	 -0.046615
H	 -0.748705	 0.673525	 1.312779
O	 1.401606	 -0.295166	 0.366636
H	 0.748705	 0.673477	 -1.312803
H	 1.176496	 1.708671	 0.046552
C	 2.714315	 -0.441627	 -0.061017
H	 2.765292	 -0.641548	 -1.128869
H	 3.305661	 0.447341	 0.150952
H	 3.143725	 -1.278506	 0.470147

	symmetry c1
}
set optking {
	frozen_dihedral = ("
		2 3 6 7
	")
}

ee,wfn = optimize('scf', return_wfn=True)
oeprop( wfn, 'DIPOLE', 'QUADRUPOLE', 'MULLIKEN_CHARGES')
f=open( 'psi4out.xyz', 'w' )
f.write( "16  " )
f.write( str(ee) + "\n" )
f.write( MOL.save_string_xyz() )
f.close()
--------------------------------------------------------------------------

    Molecular point group: c1
  Charge       = 0
  Multiplicity = 1
  Basis Set: CC-PVTZ
  Basis Set:
  @DF-RHF Final Energy:  -307.07229406722570
    Total Energy =                       -307.0722940672259256
    Molecular point group: c1
  Basis Set: CC-PVTZ
  Basis Set:
  Basis Set: CC-PVTZ
  Basis Set:
  @DF-RHF Final Energy:  -307.06798517525755
    Total Energy =                       -307.0679851752576610
  Basis Set: CC-PVTZ
  Basis Set:
  Basis Set: CC-PVTZ
  Basis Set:
  @DF-RHF Final Energy:  -307.08663807952991
    Total Energy =                       -307.0866380795295640
  Basis Set: CC-PVTZ
  Basis Set:
  Basis Set: CC-PVTZ
  Basis Set:
  @DF-RHF Final Energy:  -307.08841157397165
    Total Energy =                       -307.0884115739715980
  Basis Set: CC-PVTZ
  Basis Set:
  Basis Set: CC-PVTZ
  Basis Set:
  @DF-RHF Final Energy:  -307.08890272331587
    Total Energy =                       -307.0889027233160391
  Basis Set: CC-PVTZ
  Basis Set:
  Basis Set: CC-PVTZ
  Basis Set:
  @DF-RHF Final Energy:  -307.08909265785314
    Total Energy =                       -307.0890926578531435
  Basis Set: CC-PVTZ
  Basis Set:
  Basis Set: CC-PVTZ
  Basis Set:
  @DF-RHF Final Energy:  -307.08911786824234
    Total Energy =                       -307.0891178682422833
  Basis Set: CC-PVTZ
  Basis Set:
  Charge       = 0
  Multiplicity = 1
  Basis Set: CC-PVTZ
  Basis Set:

    Orbital Energies (a.u.)
    -----------------------

    Doubly Occupied:

       1A    -20.557307     2A    -20.540102     3A    -11.275110
       4A    -11.269477     5A    -11.267062     6A    -11.255594
       7A     -1.394494     8A     -1.366898     9A     -1.031037
      10A     -0.951856    11A     -0.899723    12A     -0.810888
      13A     -0.695758    14A     -0.684146    15A     -0.658725
      16A     -0.637565    17A     -0.628107    18A     -0.592411
      19A     -0.559925    20A     -0.544355    21A     -0.518009
      22A     -0.494814    23A     -0.447564    24A     -0.427693
      25A     -0.406961

  @DF-RHF Final Energy:  -307.08912069176614

   => Energetics <=

    Nuclear Repulsion Energy =            264.3851086172468854
    One-Electron Energy =                -943.1172971302321457
    Two-Electron Energy =                 371.6430678212188923
    DFT Exchange-Correlation Energy =       0.0000000000000000
    Empirical Dispersion Energy =           0.0000000000000000
    PCM Polarization Energy =               0.0000000000000000
    EFP Energy =                            0.0000000000000000
    Total Energy =                       -307.0891206917663112
    Molecular point group: c1
  Basis Set: CC-PVTZ
  Basis Set:

  -Total Gradient:
     Atom            X                  Y                   Z
    ------   -----------------  -----------------  -----------------
       1        0.000019618271     0.000033775835    -0.000016037992
       2        0.001166817542    -0.001352878859     0.001269814346
       3       -0.002069499972     0.002764907935    -0.002581202173
       4        0.000007486556    -0.000023583332     0.000002542650
       5       -0.000030500224     0.000019334702     0.000043989128
       6        0.001706667748    -0.002551767479     0.002671687795
       7       -0.000782827910     0.001213289330    -0.001366241018
       8       -0.000034843147    -0.000033982877     0.000020359820
       9       -0.000000203843    -0.000016233098     0.000003423958
      10       -0.000092935779     0.000015485764    -0.000008405373
      11       -0.000014295934    -0.000022266090    -0.000024317825
      12        0.000002329271    -0.000011612028    -0.000020853200
      13        0.000177407047    -0.000040544773     0.000015990453
      14       -0.000022621034     0.000002984340    -0.000001996993
      15       -0.000034921826    -0.000002532068    -0.000001578478
      16        0.000002323234     0.000005622698    -0.000007175101

  **** Optimization is complete! (in 8 steps) ****
    Final optimized geometry and variables:
    Molecular point group: c1

    Geometry (in Angstrom), charge = 0, multiplicity = 1:

    H           -1.166874227512    -0.409791684775    -2.069550376183
    C           -1.182430525992    -1.105334692864    -1.233548787707
    O           -1.745865868026    -0.543085023735    -0.090804283501
    H           -1.812870557910    -1.939376945666    -1.506502202583
    H           -0.178474891857    -1.469104142219    -1.057834680996
    C           -1.131804840660     0.535606016844     0.556050540190
    C            0.266154732379     0.927252918620     0.126207014172
    H           -1.760125132457     1.413145817815     0.420941914492
    H           -1.109428458899     0.306578807445     1.614293840631
    O            1.188025150880    -0.040410536313     0.516447437329
    H            0.319617776730     1.094326878783    -0.947026988044
    H            0.492831522021     1.876830738100     0.609499935848
    C            2.507228261459     0.262618713755     0.200285623096
    H            2.646302181141     0.366930609947    -0.873628434566
    H            2.828345178115     1.184868877610     0.679445558629
    H            3.127021469355    -0.547846927493     0.554459368145

  Mulliken Charges: (a.u.)
   Center  Symbol    Alpha    Beta     Spin     Total
       1     H     0.47449  0.47449  0.00000  0.05101
       2     C     3.03806  3.03806  0.00000 -0.07611
       3     O     4.18250  4.18250  0.00000 -0.36500
       4     H     0.44267  0.44267  0.00000  0.11465
       5     H     0.46115  0.46115  0.00000  0.07770
       6     C     2.95245  2.95245  0.00000  0.09510
       7     C     3.00390  3.00390  0.00000 -0.00781
       8     H     0.47056  0.47056  0.00000  0.05889
       9     H     0.46082  0.46082  0.00000  0.07836
      10     O     4.17524  4.17524  0.00000 -0.35048
      11     H     0.46292  0.46292  0.00000  0.07417
      12     H     0.45614  0.45614  0.00000  0.08773
      13     C     3.03840  3.03840  0.00000 -0.07681
      14     H     0.46994  0.46994  0.00000  0.06012
      15     H     0.46657  0.46657  0.00000  0.06685
      16     H     0.44419  0.44419  0.00000  0.11163

   Total alpha = 25.00000, Total beta = 25.00000, Total charge = -0.00000

*** Psi4 exiting successfully. Buy a developer a beer!
