  ==> Input File <==

--------------------------------------------------------------------------
set {
	reference rhf
	basis cc-pvtz
}

set_num_threads( 4 )
memory 2 gb

molecule MOL {
0 1

H	 -0.000105	 1.988529	 0.748933
O	 -0.000098	 1.879786	 -0.188206
C	 -0.000014	 0.545691	 -0.532416
C	 -0.337874	 -0.314303	 0.686616
C	 1.315355	 0.178030	 -1.221187
H	 -0.787393	 0.389325	 -1.255082
F	 -1.520898	 0.021317	 1.139024
F	 -0.363754	 -1.591948	 0.402599
F	 0.528849	 -0.128041	 1.658970
F	 1.458692	 0.908630	 -2.299397
F	 1.354440	 -1.080274	 -1.580151
F	 2.347253	 0.413497	 -0.439447

	symmetry c1
}
set optking {
	frozen_dihedral = ("
		6 3 2 1
	")
}

ee = optimize('scf')
oeprop('DIPOLE', 'QUADRUPOLE', 'MULLIKEN_CHARGES')
f=open( 'psi4out.xyz', 'w' )
f.write( "12  " )
f.write( str(ee) + "\n" )
f.write( MOL.save_string_xyz() )
f.close()
--------------------------------------------------------------------------

    Molecular point group: c1
  Charge       = 0
  Multiplicity = 1
  Basis Set: CC-PVTZ
  Basis Set:
  @DF-RHF Final Energy:  -786.58542814221903
    Total Energy =                       -786.5854281422185750
    Molecular point group: c1
  Basis Set: CC-PVTZ
  Basis Set:
  Basis Set: CC-PVTZ
  Basis Set:
  @DF-RHF Final Energy:  -786.58599375112874
    Total Energy =                       -786.5859937511287399
  Basis Set: CC-PVTZ
  Basis Set:
  Basis Set: CC-PVTZ
  Basis Set:
  @DF-RHF Final Energy:  -786.58611004856266
    Total Energy =                       -786.5861100485632278
  Basis Set: CC-PVTZ
  Basis Set:
  Basis Set: CC-PVTZ
  Basis Set:
  @DF-RHF Final Energy:  -786.58600389659955
    Total Energy =                       -786.5860038965995500
  Basis Set: CC-PVTZ
  Basis Set:
  Basis Set: CC-PVTZ
  Basis Set:
  @DF-RHF Final Energy:  -786.58611523816205
    Total Energy =                       -786.5861152381619377
  Basis Set: CC-PVTZ
  Basis Set:
  Basis Set: CC-PVTZ
  Basis Set:
  @DF-RHF Final Energy:  -786.58612365923761
    Total Energy =                       -786.5861236592381829
  Basis Set: CC-PVTZ
  Basis Set:
  Charge       = 0
  Multiplicity = 1
  Basis Set: CC-PVTZ
  Basis Set:

    Orbital Energies (a.u.)
    -----------------------

    Doubly Occupied:

       1A    -26.364256     2A    -26.363812     3A    -26.361776
       4A    -26.351529     5A    -26.350685     6A    -26.348173
       7A    -20.607850     8A    -11.527155     9A    -11.514288
      10A    -11.351858    11A     -1.776802    12A     -1.762605
      13A     -1.672860    14A     -1.668812    15A     -1.658267
      16A     -1.656429    17A     -1.437161    18A     -1.104835
      19A     -1.003093    20A     -0.944746    21A     -0.875522
      22A     -0.869462    23A     -0.862938    24A     -0.849768
      25A     -0.839015    26A     -0.811844    27A     -0.752108
      28A     -0.739501    29A     -0.727465    30A     -0.724927
      31A     -0.704203    32A     -0.696812    33A     -0.691917
      34A     -0.678263    35A     -0.674219    36A     -0.673215
      37A     -0.659824    38A     -0.657503    39A     -0.622216
      40A     -0.551144    41A     -0.508047

  @DF-RHF Final Energy:  -786.58612403890106

   => Energetics <=

    Nuclear Repulsion Energy =            670.9921288109433135
    One-Electron Energy =               -2429.1626885961741209
    Two-Electron Energy =                 971.5844357463295182
    DFT Exchange-Correlation Energy =       0.0000000000000000
    Empirical Dispersion Energy =           0.0000000000000000
    PCM Polarization Energy =               0.0000000000000000
    EFP Energy =                            0.0000000000000000
    Total Energy =                       -786.5861240389012892
    Molecular point group: c1
  Basis Set: CC-PVTZ
  Basis Set:

  -Total Gradient:
     Atom            X                  Y                   Z
    ------   -----------------  -----------------  -----------------
       1       -0.002512123898     0.000010104811     0.000033970525
       2        0.002802382438    -0.000117442982     0.000343012640
       3        0.001115311189     0.000493758111    -0.002018439012
       4        0.000010495171     0.000009632036     0.000020977098
       5        0.000064227481    -0.000017653713    -0.000020706861
       6       -0.001356758515    -0.000358626997     0.001620562643
       7       -0.000001389246     0.000038258258     0.000026136677
       8        0.000056817717    -0.000049213936    -0.000033901800
       9       -0.000072539323    -0.000020155108    -0.000022229444
      10       -0.000027837767     0.000026884620     0.000049604576
      11       -0.000076974216    -0.000072414734     0.000004840713
      12       -0.000001611044     0.000056869652    -0.000003827748

  **** Optimization is complete! (in 7 steps) ****
    Final optimized geometry and variables:
    Molecular point group: c1

    Geometry (in Angstrom), charge = 0, multiplicity = 1:

    H           -0.476762076389     1.976073610445     0.934743046736
    O           -0.491248240682     1.824737247344     0.006096672294
    C           -0.504122110373     0.479975258875    -0.310505126345
    C           -0.821743888165    -0.374297672472     0.915561064866
    C            0.815047655092     0.122803512741    -0.995439182381
    H           -1.297028099176     0.282403024113    -1.020146693245
    F           -2.026410858676    -0.069622667752     1.346720881456
    F           -0.798424983111    -1.652507777709     0.650641992769
    F            0.013365294511    -0.139639789105     1.903706106409
    F            0.995878895243     0.915193241698    -2.022342632144
    F            0.803877180246    -1.112119368866    -1.440414791622
    F            1.842045512908     0.258311426880    -0.192335352910

  Mulliken Charges: (a.u.)
   Center  Symbol    Alpha    Beta     Spin     Total
       1     H     0.38190  0.38190  0.00000  0.23621
       2     O     4.19007  4.19007  0.00000 -0.38015
       3     C     2.99852  2.99852  0.00000  0.00296
       4     C     2.68783  2.68783  0.00000  0.62434
       5     C     2.68007  2.68007  0.00000  0.63987
       6     H     0.43460  0.43460  0.00000  0.13081
       7     F     4.60650  4.60650  0.00000 -0.21301
       8     F     4.59801  4.59801  0.00000 -0.19602
       9     F     4.60860  4.60860  0.00000 -0.21720
      10     F     4.60172  4.60172  0.00000 -0.20344
      11     F     4.60601  4.60601  0.00000 -0.21202
      12     F     4.60618  4.60618  0.00000 -0.21236

   Total alpha = 41.00000, Total beta = 41.00000, Total charge = -0.00000
