                              Psi4 1.0.54 Driver

  ==> Input File <==

--------------------------------------------------------------------------
set {
	reference rhf
	basis cc-pvtz
}

set_num_threads( 4 )
memory 2 gb

molecule MOL {
0 1

H	 -4.061076	 1.036854	 -0.955129
O	 -3.458596	 0.315260	 -0.960865
C	 -3.176635	 -0.080824	 0.355601
C	 -1.763371	 0.265266	 0.799691
H	 -3.321825	 -1.153438	 0.379502
H	 -3.895468	 0.357385	 1.043382
C	 -0.673390	 -0.426948	 -0.013392
H	 -1.631049	 1.344913	 0.747560
H	 -1.664587	 -0.001624	 1.849167
C	 0.737842	 -0.043159	 0.423759
H	 -0.806103	 -0.190518	 -1.063345
H	 -0.797221	 -1.503753	 0.074146
C	 1.824000	 -0.743224	 -0.390623
H	 0.850588	 1.033777	 0.343840
H	 0.868587	 -0.286314	 1.476203
C	 3.255957	 -0.453067	 0.062319
H	 1.718250	 -0.470599	 -1.438164
H	 1.658105	 -1.815850	 -0.339904
C	 3.707029	 0.992337	 -0.133857
H	 3.928201	 -1.104096	 -0.488158
H	 3.362667	 -0.724561	 1.109374
H	 3.605811	 1.294044	 -1.171549
H	 4.748333	 1.111029	 0.143343
H	 3.129882	 1.683078	 0.468956

	symmetry c1
}
set optking {
	frozen_dihedral = ("
		1 2 3 5
	")
}

ee,wfn = optimize('scf', return_wfn=True)
oeprop( wfn, 'DIPOLE', 'QUADRUPOLE', 'MULLIKEN_CHARGES')
f=open( 'psi4out.xyz', 'w' )
f.write( "24  " )
f.write( str(ee) + "\n" )
f.write( MOL.save_string_xyz() )
f.close()
--------------------------------------------------------------------------

    Molecular point group: c1
  Charge       = 0
  Multiplicity = 1
  Basis Set: CC-PVTZ
  Basis Set:
  @DF-RHF Final Energy:  -349.37883147362248
    Total Energy =                       -349.3788314736224265
    Molecular point group: c1
  Basis Set: CC-PVTZ
  Basis Set:
  Basis Set: CC-PVTZ
  Basis Set:
  @DF-RHF Final Energy:  -349.37905015788249
    Total Energy =                       -349.3790501578825456
  Basis Set: CC-PVTZ
  Basis Set:
  Basis Set: CC-PVTZ
  Basis Set:
  @DF-RHF Final Energy:  -349.37911434657866
    Total Energy =                       -349.3791143465787172
  Basis Set: CC-PVTZ
  Basis Set:
  Basis Set: CC-PVTZ
  Basis Set:
  @DF-RHF Final Energy:  -349.37911557976963
    Total Energy =                       -349.3791155797697456
  Basis Set: CC-PVTZ
  Basis Set:
  Charge       = 0
  Multiplicity = 1
  Basis Set: CC-PVTZ
  Basis Set:

    Orbital Energies (a.u.)
    -----------------------

    Doubly Occupied:

       1A    -20.545114     2A    -11.266123     3A    -11.210600
       4A    -11.210059     5A    -11.207258     6A    -11.206639
       7A    -11.205059     8A    -11.203319     9A     -1.362628
      10A     -1.087070    11A     -1.047442    12A     -0.985219
      13A     -0.913737    14A     -0.846615    15A     -0.794850
      16A     -0.774052    17A     -0.698174    18A     -0.651718
      19A     -0.625740    20A     -0.614105    21A     -0.585655
      22A     -0.582318    23A     -0.558412    24A     -0.537976
      25A     -0.520709    26A     -0.504866    27A     -0.494991
      28A     -0.479072    29A     -0.467617    30A     -0.454848
      31A     -0.452290    32A     -0.442268    33A     -0.422987

  @DF-RHF Final Energy:  -349.37911625680510

   => Energetics <=

    Nuclear Repulsion Energy =            384.8052787303226978
    One-Electron Energy =               -1236.4497298166106702
    Two-Electron Energy =                 502.2653348294829243
    DFT Exchange-Correlation Energy =       0.0000000000000000
    Empirical Dispersion Energy =           0.0000000000000000
    PCM Polarization Energy =               0.0000000000000000
    EFP Energy =                            0.0000000000000000
    Total Energy =                       -349.3791162568050481
    Molecular point group: c1
  Basis Set: CC-PVTZ
  Basis Set:

  -Total Gradient:
     Atom            X                  Y                   Z
    ------   -----------------  -----------------  -----------------
       1       -0.000654520038    -0.000494883711    -0.000043838080
       2        0.000611950063     0.000633411384     0.000105315258
       3        0.000710141003    -0.000244926304    -0.000244615281
       4        0.000011663344    -0.000021400680     0.000049332962
       5       -0.000674361776     0.000101962361     0.000151447917
       6       -0.000000523549     0.000016388388    -0.000020018499
       7       -0.000017417866     0.000005491692     0.000001277472
       8        0.000000975255    -0.000006759439    -0.000001494827
       9        0.000013712145     0.000003152895     0.000023558839
      10       -0.000006162288     0.000013340904    -0.000003793053
      11        0.000008559320    -0.000011219165    -0.000012803845
      12       -0.000000020544     0.000002920338    -0.000001076141
      13       -0.000002658343    -0.000000717279    -0.000003143448
      14        0.000005048693     0.000005950664     0.000004040310
      15       -0.000004963458    -0.000001370753    -0.000004827752
      16       -0.000000794563     0.000000261355     0.000000561282
      17        0.000001462151    -0.000000680665     0.000000402043
      18       -0.000000140193    -0.000000810047    -0.000000445684
      19       -0.000000468449     0.000000302506     0.000000336789
      20       -0.000001025682    -0.000000311638    -0.000000064547
      21        0.000000102284    -0.000000437953     0.000000032236
      22        0.000000347226     0.000000064223    -0.000000467492
      23       -0.000000417723    -0.000000224610     0.000000140295
      24       -0.000000487013     0.000000495537     0.000000143248

  **** Optimization is complete! (in 5 steps) ****
    Final optimized geometry and variables:
    Molecular point group: c1

    Geometry (in Angstrom), charge = 0, multiplicity = 1:

    H           -4.009945459710     1.045251885872    -0.972883382235
    O           -3.420230257890     0.316604920019    -0.955369046973
    C           -3.171063788712    -0.082202533617     0.371188490443
    C           -1.759662176680     0.267440631012     0.812627198419
    H           -3.325395173437    -1.154614153135     0.425971709372
    H           -3.888957070506     0.375734791285     1.044717090989
    C           -0.675452083385    -0.424981791638    -0.007687475856
    H           -1.632347882168     1.345329228690     0.753258375030
    H           -1.655224001685    -0.002902929811     1.861174575915
    C            0.738231023973    -0.042447044980     0.422424398852
    H           -0.815257644019    -0.183155651097    -1.055289458391
    H           -0.798631515105    -1.502299812754     0.078278315610
    C            1.820001750085    -0.740725711870    -0.399329888838
    H            0.849963207469     1.034546859997     0.343641089022
    H            0.875065503083    -0.287595398041     1.473759860585
    C            3.254563865584    -0.450558218837     0.045480347029
    H            1.707816042652    -0.466557195001    -1.445769676248
    H            1.655102670223    -1.813600791943    -0.349298258018
    C            3.703422998485     0.995638422647    -0.150192367088
    H            3.924100464343    -1.099806387729    -0.510500514441
    H            3.367938193366    -0.724296015083     1.091300311760
    H            3.594282674178     1.300019314920    -1.186283581107
    H            4.746707088512     1.114327564755     0.119686141004
    H            3.130123744952     1.684383189091     0.458486038228

  Mulliken Charges: (a.u.)
   Center  Symbol    Alpha    Beta     Spin     Total
       1     H     0.39270  0.39270  0.00000  0.21461
       2     O     4.20532  4.20532  0.00000 -0.41063
       3     C     2.97985  2.97985  0.00000  0.04030
       4     C     3.08426  3.08426  0.00000 -0.16852
       5     H     0.46438  0.46438  0.00000  0.07124
       6     H     0.46302  0.46302  0.00000  0.07396
       7     C     3.09133  3.09133  0.00000 -0.18265
       8     H     0.45946  0.45946  0.00000  0.08108
       9     H     0.45689  0.45689  0.00000  0.08622
      10     C     3.09133  3.09133  0.00000 -0.18266
      11     H     0.44411  0.44411  0.00000  0.11179
      12     H     0.45655  0.45655  0.00000  0.08690
      13     C     3.09430  3.09430  0.00000 -0.18859
      14     H     0.45283  0.45283  0.00000  0.09433
      15     H     0.45692  0.45692  0.00000  0.08615
      16     C     3.09014  3.09014  0.00000 -0.18029
      17     H     0.45350  0.45350  0.00000  0.09301
      18     H     0.45027  0.45027  0.00000  0.09946
      19     C     3.15239  3.15239  0.00000 -0.30479
      20     H     0.44896  0.44896  0.00000  0.10209
      21     H     0.45555  0.45555  0.00000  0.08891
      22     H     0.45480  0.45480  0.00000  0.09039
      23     H     0.44705  0.44705  0.00000  0.10590
      24     H     0.45410  0.45410  0.00000  0.09179

   Total alpha = 33.00000, Total beta = 33.00000, Total charge =  0.00000

*** Psi4 exiting successfully. Buy a developer a beer!
