  ==> Input File <==

--------------------------------------------------------------------------
set {
	reference rhf
	basis 6-31G*
}

set_num_threads( 1 )
memory 2 gb

molecule MOL {
0 1

O	 1.923358	 1.157070	 -0.528821
C	 1.705091	 0.115954	 0.001797
C	 0.381791	 -0.609817	 0.001258
O	 2.624537	 -0.561477	 0.677697
C	 -0.823008	 0.326187	 0.001381
H	 0.371250	 -1.265087	 -0.865474
H	 0.370908	 -1.265746	 0.867490
C	 -2.149452	 -0.435131	 -0.000098
H	 -0.770201	 0.977095	 -0.865636
H	 -0.771220	 0.975655	 0.869608
C	 -3.368779	 0.488503	 -0.000883
H	 -2.193746	 -1.087250	 -0.871175
H	 -2.195311	 -1.087803	 0.870418
C	 -4.693822	 -0.272754	 -0.001129
H	 -3.325798	 1.139422	 -0.871284
H	 -3.326423	 1.139959	 0.869145
H	 -4.781274	 -0.907928	 -0.878124
H	 -5.538651	 0.408946	 -0.001420
H	 -4.781694	 -0.907783	 0.875984
C	 3.917485	 0.010710	 0.754134
H	 4.339614	 0.129197	 -0.233437
H	 4.511231	 -0.678170	 1.334468
H	 3.878511	 0.974234	 1.241584

	symmetry c1
}
set optking {
	frozen_dihedral = ("
		15 11 8 12,
		9 5 8 12,
		9 5 3 6,
		1 2 4 20
	")
}

ee = energy('scf')
oeprop('DIPOLE', 'QUADRUPOLE', 'MULLIKEN_CHARGES')
f=open( 'psi4out.xyz', 'w' )
f.write( "23  " )
f.write( str(ee) + "\n" )
f.write( MOL.save_string_xyz() )
f.close()
--------------------------------------------------------------------------

    Molecular point group: c1

    Geometry (in Angstrom), charge = 0, multiplicity = 1:

       Center              X                  Y                   Z               Mass
    ------------   -----------------  -----------------  -----------------  -----------------
           O          1.938340050092     1.129832078165    -0.635041746920    15.994914619560
           C          1.720073050092     0.088716078165    -0.104423746920    12.000000000000
           C          0.396773050092    -0.637054921835    -0.104962746920    12.000000000000
           O          2.639519050092    -0.588714921835     0.571476253080    15.994914619560
           C         -0.808025949908     0.298949078165    -0.104839746920    12.000000000000
           H          0.386232050092    -1.292324921835    -0.971694746920     1.007825032070
           H          0.385890050092    -1.292983921835     0.761269253080     1.007825032070
           C         -2.134469949908    -0.462368921835    -0.106318746920    12.000000000000
           H         -0.755218949908     0.949857078165    -0.971856746920     1.007825032070
           H         -0.756237949908     0.948417078165     0.763387253080     1.007825032070
           C         -3.353796949908     0.461265078165    -0.107103746920    12.000000000000
           H         -2.178763949908    -1.114487921835    -0.977395746920     1.007825032070
           H         -2.180328949908    -1.115040921835     0.764197253080     1.007825032070
           C         -4.678839949908    -0.299991921835    -0.107349746920    12.000000000000
           H         -3.310815949908     1.112184078165    -0.977504746920     1.007825032070
           H         -3.311440949908     1.112721078165     0.762924253080     1.007825032070
           H         -4.766291949908    -0.935165921835    -0.984344746920     1.007825032070
           H         -5.523668949908     0.381708078165    -0.107640746920     1.007825032070
           H         -4.766711949908    -0.935020921835     0.769763253080     1.007825032070
           C          3.932467050092    -0.016527921835     0.647913253080    12.000000000000
           H          4.354596050092     0.101959078165    -0.339657746920     1.007825032070
           H          4.526213050092    -0.705407921835     1.228247253080     1.007825032070
           H          3.893493050092     0.946996078165     1.135363253080     1.007825032070

  Charge       = 0
  Multiplicity = 1
  Basis Set: 6-31G*
  Basis Set:

    Orbital Energies (a.u.)
    -----------------------

    Doubly Occupied:

       1A    -20.604643     2A    -20.544360     3A    -11.372052
       4A    -11.280639     5A    -11.234545     6A    -11.221960
       7A    -11.219012     8A    -11.217358     9A    -11.210268
      10A     -1.469390    11A     -1.362401    12A     -1.094240
      13A     -1.044089    14A     -0.987163    15A     -0.932503
      16A     -0.844549    17A     -0.796055    18A     -0.768985
      19A     -0.695772    20A     -0.682764    21A     -0.671525
      22A     -0.652257    23A     -0.607942    24A     -0.599415
      25A     -0.573916    26A     -0.565812    27A     -0.550189
      28A     -0.525700    29A     -0.522576    30A     -0.508220
      31A     -0.484221    32A     -0.471977    33A     -0.466449
      34A     -0.462980    35A     -0.455438    36A     -0.433237

  @DF-RHF Final Energy:  -422.97533633256546

   => Energetics <=

    Nuclear Repulsion Energy =            452.2182912205154253
    One-Electron Energy =               -1472.1182229763737723
    Two-Electron Energy =                 596.9245954232964095
    DFT Exchange-Correlation Energy =       0.0000000000000000
    Empirical Dispersion Energy =           0.0000000000000000
    PCM Polarization Energy =               0.0000000000000000
    EFP Energy =                            0.0000000000000000
    Total Energy =                       -422.9753363325619375

  Mulliken Charges: (a.u.)
   Center  Symbol    Alpha    Beta     Spin     Total
       1     O     4.28617  4.28617  0.00000 -0.57235
       2     C     2.60406  2.60406  0.00000  0.79187
       3     C     3.20986  3.20986  0.00000 -0.41972
       4     O     4.30611  4.30611  0.00000 -0.61223
       5     C     3.15640  3.15640  0.00000 -0.31280
       6     H     0.39983  0.39983  0.00000  0.20034
       7     H     0.40073  0.40073  0.00000  0.19855
       8     C     3.15302  3.15302  0.00000 -0.30603
       9     H     0.40587  0.40587  0.00000  0.18827
      10     H     0.41634  0.41634  0.00000  0.16732
      11     C     3.15187  3.15187  0.00000 -0.30373
      12     H     0.42305  0.42305  0.00000  0.15391
      13     H     0.42340  0.42340  0.00000  0.15320
      14     C     3.23968  3.23968  0.00000 -0.47936
      15     H     0.42078  0.42078  0.00000  0.15844
      16     H     0.42183  0.42183  0.00000  0.15633
      17     H     0.42152  0.42152  0.00000  0.15696
      18     H     0.41835  0.41835  0.00000  0.16330
      19     H     0.42176  0.42176  0.00000  0.15649
      20     C     3.09313  3.09313  0.00000 -0.18626
      21     H     0.40899  0.40899  0.00000  0.18202
      22     H     0.40842  0.40842  0.00000  0.18316
      23     H     0.40883  0.40883  0.00000  0.18234

   Total alpha = 36.00000, Total beta = 36.00000, Total charge =  0.00000
