  ==> Input File <==

--------------------------------------------------------------------------
set {
	reference rhf
	basis 6-31G*
}

set_num_threads( 1 )
memory 2 gb

molecule MOL {
0 1

H	 3.463771	 0.168298	 -0.756243
C	 2.752674	 -0.045734	 0.033351
C	 1.322923	 0.120767	 -0.479465
H	 2.934561	 -1.059086	 0.377456
H	 2.958358	 0.631174	 0.856809
C	 0.306652	 -0.176050	 0.621399
H	 1.144658	 -0.551717	 -1.312180
H	 1.166477	 1.131798	 -0.836680
N	 -1.068537	 -0.011044	 0.085269
H	 0.372515	 -1.192590	 0.973735
H	 0.391664	 0.520566	 1.441230
O	 -1.279988	 -0.405374	 -1.019794
O	 -1.861579	 0.536248	 0.789244

	symmetry c1
}
set optking {
	frozen_dihedral = ("
		7 3 6 9
	")
}

ee = energy('scf')
oeprop('DIPOLE', 'QUADRUPOLE', 'MULLIKEN_CHARGES')
f=open( 'psi4out.xyz', 'w' )
f.write( "13  " )
f.write( str(ee) + "\n" )
f.write( MOL.save_string_xyz() )
f.close()
--------------------------------------------------------------------------

    Molecular point group: c1

    Geometry (in Angstrom), charge = 0, multiplicity = 1:

       Center              X                  Y                   Z               Mass
    ------------   -----------------  -----------------  -----------------  -----------------
           H          3.464844871842     0.164118704501    -0.760283199313     1.007825032070
           C          2.753747871842    -0.049913295499     0.029310800687    12.000000000000
           C          1.323996871842     0.116587704501    -0.483505199313    12.000000000000
           H          2.935634871842    -1.063265295499     0.373415800687     1.007825032070
           H          2.959431871842     0.626994704501     0.852768800687     1.007825032070
           C          0.307725871842    -0.180229295499     0.617358800687    12.000000000000
           H          1.145731871842    -0.555896295499    -1.316220199313     1.007825032070
           H          1.167550871842     1.127618704501    -0.840720199313     1.007825032070
           N         -1.067463128158    -0.015223295499     0.081228800687    14.003074004780
           H          0.373588871842    -1.196769295499     0.969694800687     1.007825032070
           H          0.392737871842     0.516386704501     1.437189800687     1.007825032070
           O         -1.278914128158    -0.409553295499    -1.023834199313    15.994914619560
           O         -1.860505128158     0.532068704501     0.785203800687    15.994914619560

  Charge       = 0
  Multiplicity = 1
  Basis Set: 6-31G*
  Basis Set:

    Orbital Energies (a.u.)
    -----------------------

    Doubly Occupied:

       1A    -20.602115     2A    -20.601513     3A    -15.848210
       4A    -11.299709     5A    -11.250487     6A    -11.236738
       7A     -1.631797     8A     -1.417539     9A     -1.134094
      10A     -1.026657    11A     -0.883020    12A     -0.827874
      13A     -0.761383    14A     -0.743126    15A     -0.725558
      16A     -0.663461    17A     -0.604517    18A     -0.583446
      19A     -0.549548    20A     -0.520484    21A     -0.510666
      22A     -0.484532    23A     -0.472748    24A     -0.449565

  @DF-RHF Final Energy:  -321.73438160682906

   => Energetics <=

    Nuclear Repulsion Energy =            247.9076385362576502
    One-Electron Energy =                -929.6265214717021763
    Two-Electron Energy =                 359.9845013286153517
    DFT Exchange-Correlation Energy =       0.0000000000000000
    Empirical Dispersion Energy =           0.0000000000000000
    PCM Polarization Energy =               0.0000000000000000
    EFP Energy =                            0.0000000000000000
    Total Energy =                       -321.7343816068291744

  Mulliken Charges: (a.u.)
   Center  Symbol    Alpha    Beta     Spin     Total
       1     H     0.40793  0.40793  0.00000  0.18413
       2     C     3.24853  3.24853  0.00000 -0.49707
       3     C     3.17095  3.17095  0.00000 -0.34190
       4     H     0.41626  0.41626  0.00000  0.16748
       5     H     0.41671  0.41671  0.00000  0.16657
       6     C     3.09015  3.09015  0.00000 -0.18029
       7     H     0.39326  0.39326  0.00000  0.21349
       8     H     0.40588  0.40588  0.00000  0.18823
       9     N     3.22106  3.22106  0.00000  0.55788
      10     H     0.38624  0.38624  0.00000  0.22752
      11     H     0.38526  0.38526  0.00000  0.22947
      12     O     4.22877  4.22877  0.00000 -0.45755
      13     O     4.22899  4.22899  0.00000 -0.45799

   Total alpha = 24.00000, Total beta = 24.00000, Total charge = -0.00000
