  ==> Input File <==

--------------------------------------------------------------------------
set {
	reference rhf
	basis 6-31G*
}

set_num_threads( 4 )
memory 2 gb

molecule MOL {
0 1

H	 2.288123	 1.712271	 -1.815954
C	 1.983453	 1.048378	 -1.011803
C	 0.470280	 0.855491	 -1.026695
H	 2.294327	 1.483495	 -0.068514
H	 2.518361	 0.113446	 -1.139512
N	 -0.000257	 -0.000071	 0.054619
H	 0.007107	 1.828218	 -0.918756
H	 0.149907	 0.473143	 -2.000275
C	 -1.363055	 0.315058	 0.462241
C	 0.181813	 -1.416184	 -0.235433
C	 -2.412078	 -0.285320	 -0.468531
H	 -1.482241	 1.391144	 0.451970
H	 -1.549931	 -0.001174	 1.492681
C	 0.367183	 -2.258264	 1.023050
H	 1.068094	 -1.528073	 -0.847104
H	 -0.648864	 -1.807281	 -0.830250
H	 -2.262839	 0.075384	 -1.480151
H	 -2.369300	 -1.368867	 -0.491760
H	 -3.410332	 -0.003975	 -0.144961
H	 1.227192	 -1.907741	 1.582650
H	 -0.496380	 -2.214615	 1.677958
H	 0.526735	 -3.300432	 0.760836

	symmetry c1
}
set optking {
	frozen_dihedral = ("
		3 6 9 11
	")
}

ee = optimize('scf')
oeprop('DIPOLE', 'QUADRUPOLE', 'MULLIKEN_CHARGES')
f=open( 'psi4out.xyz', 'w' )
f.write( "22  " )
f.write( str(ee) + "\n" )
f.write( MOL.save_string_xyz() )
f.close()
--------------------------------------------------------------------------

    Molecular point group: c1
  Charge       = 0
  Multiplicity = 1
  Basis Set: 6-31G*
  Basis Set:
  @DF-RHF Final Energy:  -290.36352042476091
    Total Energy =                       -290.3635204247615889
    Molecular point group: c1
  Basis Set: 6-31G*
  Basis Set:
  Basis Set: 6-31G*
  Basis Set:
  @DF-RHF Final Energy:  -290.36743305093569
    Total Energy =                       -290.3674330509359152
  Basis Set: 6-31G*
  Basis Set:
  Basis Set: 6-31G*
  Basis Set:
  @DF-RHF Final Energy:  -290.36953271191152
    Total Energy =                       -290.3695327119111766
  Basis Set: 6-31G*
  Basis Set:
  Basis Set: 6-31G*
  Basis Set:
  @DF-RHF Final Energy:  -290.37018136111004
    Total Energy =                       -290.3701813611103262
  Basis Set: 6-31G*
  Basis Set:
  @DF-RHF Final Energy:  -290.37030687154117
    Total Energy =                       -290.3703068715410609
  Basis Set: 6-31G*
  Basis Set:
  @DF-RHF Final Energy:  -290.37034153133300
    Total Energy =                       -290.3703415313329970
  Basis Set: 6-31G*
  Basis Set:
  Basis Set: 6-31G*
  Basis Set:
  @DF-RHF Final Energy:  -290.37035225306897
    Total Energy =                       -290.3703522530689725
  Basis Set: 6-31G*
  Basis Set:
  Basis Set: 6-31G*
  Basis Set:
  @DF-RHF Final Energy:  -290.37035438317224
    Total Energy =                       -290.3703543831726392
  Basis Set: 6-31G*
  Basis Set:
  Charge       = 0
  Multiplicity = 1
  Basis Set: 6-31G*
  Basis Set:

    Orbital Energies (a.u.)
    -----------------------

    Doubly Occupied:

       1A    -15.534107     2A    -11.240115     3A    -11.239708
       4A    -11.239231     5A    -11.206553     6A    -11.206409
       7A    -11.203680     8A     -1.220748     9A     -1.024855
      10A     -1.019095    11A     -0.955702    12A     -0.863199
      13A     -0.841012    14A     -0.758133    15A     -0.658835
      16A     -0.643775    17A     -0.616872    18A     -0.595698
      19A     -0.568879    20A     -0.549694    21A     -0.543446
      22A     -0.524093    23A     -0.515500    24A     -0.503838
      25A     -0.491850    26A     -0.481668    27A     -0.469143
      28A     -0.459871    29A     -0.331511

  @DF-RHF Final Energy:  -290.37035515364454

   => Energetics <=

    Nuclear Repulsion Energy =            338.8448426950595262
    One-Electron Energy =               -1063.4159589240443893
    Two-Electron Energy =                 434.2007610753402105
    DFT Exchange-Correlation Energy =       0.0000000000000000
    Empirical Dispersion Energy =           0.0000000000000000
    PCM Polarization Energy =               0.0000000000000000
    EFP Energy =                            0.0000000000000000
    Total Energy =                       -290.3703551536447094
    Molecular point group: c1
  Basis Set: 6-31G*
  Basis Set:

  -Total Gradient:
     Atom            X                  Y                   Z
    ------   -----------------  -----------------  -----------------
       1       -0.000007085583     0.000000830693     0.000006326207
       2        0.000005843186    -0.000019481454    -0.000015584680
       3        0.001099659901     0.001811055963     0.001773624472
       4       -0.000006215542    -0.000000484394     0.000002008567
       5        0.000010194866    -0.000010000948     0.000015574802
       6       -0.001550825969    -0.003552580248    -0.001857052744
       7       -0.000018334799     0.000012124238    -0.000009295413
       8        0.000007746114    -0.000013018160     0.000028682114
       9        0.000374880492     0.004039265535    -0.001370232708
      10        0.000036271620    -0.000052888720     0.000028201317
      11        0.000017273587    -0.002263357952     0.001426958288
      12        0.000030485746     0.000008103636    -0.000005751503
      13        0.000049431665    -0.000020558227    -0.000010775986
      14       -0.000005052862    -0.000010015109    -0.000035910332
      15        0.000008359034     0.000035437904    -0.000008728227
      16       -0.000010223435    -0.000004750282     0.000017492413
      17        0.000007148845     0.000003912328     0.000001680100
      18       -0.000029585923     0.000007314160    -0.000011502190
      19       -0.000011834656     0.000011016514     0.000011463430
      20       -0.000005734739    -0.000008178432    -0.000002492417
      21       -0.000014939932     0.000019633608     0.000015088872
      22        0.000012538385     0.000006619346     0.000000225617

  **** Optimization is complete! (in 9 steps) ****
    Final optimized geometry and variables:
    Molecular point group: c1

    Geometry (in Angstrom), charge = 0, multiplicity = 1:

    H            2.385112133838     2.055577196284    -1.654531018749
    C            2.095516059703     1.377319426131    -0.856571131492
    C            0.598491741196     1.084922340049    -0.928150471250
    H            2.341436600985     1.837381983608     0.094068375313
    H            2.695469600695     0.479707045764    -0.958715161033
    N            0.140123364096     0.228311574712     0.155012219268
    H            0.068168987235     2.027664413568    -0.860979372539
    H            0.355102940914     0.667587591169    -1.909174262979
    C           -1.189124767825     0.538613561180     0.657071372937
    C            0.424859311132    -1.178820264642    -0.058311839125
    C           -2.378964025903     0.016438435252    -0.157576667387
    H           -1.259519937676     1.616390034821     0.744501016879
    H           -1.269932273524     0.154743154586     1.668809137463
    C            0.334248886663    -2.015554354601     1.214494056408
    H            1.437587458013    -1.253313179917    -0.434514560452
    H           -0.215450961841    -1.615154184245    -0.829545654915
    H           -2.345220066920     0.365380390599    -1.185820938135
    H           -2.415857835579    -1.067317638061    -0.175319277593
    H           -3.309063995127     0.367229687325     0.280643551006
    H            0.954765846851    -1.585902754749     1.993453658662
    H           -0.680134377102    -2.087594234365     1.591574282408
    H            0.679574151467    -3.026149072694     1.018269050510

  Mulliken Charges: (a.u.)
   Center  Symbol    Alpha    Beta     Spin     Total
       1     H     0.42423  0.42423  0.00000  0.15154
       2     C     3.23456  3.23456  0.00000 -0.46911
       3     C     3.05469  3.05469  0.00000 -0.10937
       4     H     0.41606  0.41606  0.00000  0.16788
       5     H     0.42152  0.42152  0.00000  0.15696
       6     N     3.79017  3.79017  0.00000 -0.58034
       7     H     0.42054  0.42054  0.00000  0.15892
       8     H     0.43246  0.43246  0.00000  0.13509
       9     C     3.05829  3.05829  0.00000 -0.11658
      10     C     3.05272  3.05272  0.00000 -0.10544
      11     C     3.24946  3.24946  0.00000 -0.49892
      12     H     0.41811  0.41811  0.00000  0.16379
      13     H     0.41688  0.41688  0.00000  0.16625
      14     C     3.24410  3.24410  0.00000 -0.48820
      15     H     0.41820  0.41820  0.00000  0.16359
      16     H     0.43255  0.43255  0.00000  0.13490
      17     H     0.42010  0.42010  0.00000  0.15981
      18     H     0.41916  0.41916  0.00000  0.16169
      19     H     0.42090  0.42090  0.00000  0.15821
      20     H     0.41386  0.41386  0.00000  0.17227
      21     H     0.42066  0.42066  0.00000  0.15868
      22     H     0.42080  0.42080  0.00000  0.15840

   Total alpha = 29.00000, Total beta = 29.00000, Total charge = -0.00000
