  ==> Input File <==

--------------------------------------------------------------------------
set {
	reference rhf
	basis 6-31G*
}

set_num_threads( 4 )
memory 2 gb

molecule MOL {
0 1

O	 -2.042549	 -1.228399	 -0.269030
C	 -1.653912	 -0.146171	 0.050137
C	 -0.332303	 0.024011	 0.778412
C	 -2.438579	 1.106236	 -0.272369
C	 0.845713	 -0.001731	 -0.208243
H	 -0.323783	 0.953829	 1.340327
H	 -0.235459	 -0.796807	 1.480410
C	 2.200309	 0.136118	 0.488247
H	 0.733710	 0.800019	 -0.936072
H	 0.811185	 -0.933796	 -0.764304
C	 2.071727	 0.322486	 1.999518
H	 2.804200	 -0.744952	 0.282197
H	 2.736461	 0.981568	 0.063601
H	 1.569008	 -0.524167	 2.458327
H	 1.499754	 1.214681	 2.236745
H	 3.046793	 0.420425	 2.466080
H	 -3.277823	 0.863061	 -0.908988
H	 -1.806773	 1.843019	 -0.759671
H	 -2.802853	 1.554979	 0.648059

	symmetry c1
}
set optking {
	frozen_dihedral = ("
		11 8 5 9
	")
}

ee = optimize('scf')
oeprop('DIPOLE', 'QUADRUPOLE', 'MULLIKEN_CHARGES')
f=open( 'psi4out.xyz', 'w' )
f.write( "19  " )
f.write( str(ee) + "\n" )
f.write( MOL.save_string_xyz() )
f.close()
--------------------------------------------------------------------------

    Molecular point group: c1
  Charge       = 0
  Multiplicity = 1
  Basis Set: 6-31G*
  Basis Set:
  @DF-RHF Final Energy:  -309.05059059826044
    Total Energy =                       -309.0505905982607260
    Molecular point group: c1
  Basis Set: 6-31G*
  Basis Set:
  Basis Set: 6-31G*
  Basis Set:
  @DF-RHF Final Energy:  -309.05044101952950
    Total Energy =                       -309.0504410195297851
  Basis Set: 6-31G*
  Basis Set:
  Basis Set: 6-31G*
  Basis Set:
  @DF-RHF Final Energy:  -309.05459515290653
    Total Energy =                       -309.0545951529063586
  Basis Set: 6-31G*
  Basis Set:
  Basis Set: 6-31G*
  Basis Set:
  @DF-RHF Final Energy:  -309.05486388825261
    Total Energy =                       -309.0548638882528394
  Basis Set: 6-31G*
  Basis Set:
  @DF-RHF Final Energy:  -309.05523257428342
    Total Energy =                       -309.0552325742830249
  @DF-RHF Final Energy:  -309.05535180588225
    Total Energy =                       -309.0553518058820828
  @DF-RHF Final Energy:  -309.05510333746139
    Total Energy =                       -309.0551033374612189
  Basis Set: 6-31G*
  Basis Set:
  @DF-RHF Final Energy:  -309.05534524445494
    Total Energy =                       -309.0553452444550544
  Basis Set: 6-31G*
  Basis Set:
  Basis Set: 6-31G*
  Basis Set:
  @DF-RHF Final Energy:  -309.05535492072227
    Total Energy =                       -309.0553549207222659
  Basis Set: 6-31G*
  Basis Set:
  Basis Set: 6-31G*
  Basis Set:
  @DF-RHF Final Energy:  -309.05535626831085
    Total Energy =                       -309.0553562683107316
  Basis Set: 6-31G*
  Basis Set:
  Charge       = 0
  Multiplicity = 1
  Basis Set: 6-31G*
  Basis Set:

    Orbital Energies (a.u.)
    -----------------------

    Doubly Occupied:

       1A    -20.547396     2A    -11.324465     3A    -11.230683
       4A    -11.229036     5A    -11.228260     6A    -11.225170
       7A    -11.216184     8A     -1.393202     9A     -1.086984
      10A     -1.026587    11A     -0.981499    12A     -0.902789
      13A     -0.795139    14A     -0.733204    15A     -0.661442
      16A     -0.651219    17A     -0.620500    18A     -0.604371
      19A     -0.586688    20A     -0.569431    21A     -0.552698
      22A     -0.543644    23A     -0.523944    24A     -0.501346
      25A     -0.479851    26A     -0.466213    27A     -0.457424
      28A     -0.397400

  @DF-RHF Final Energy:  -309.05535640147338

   => Energetics <=

    Nuclear Repulsion Energy =            304.7049251218999757
    One-Electron Energy =               -1022.4470240422689358
    Two-Electron Energy =                 408.6867425188954144
    DFT Exchange-Correlation Energy =       0.0000000000000000
    Empirical Dispersion Energy =           0.0000000000000000
    PCM Polarization Energy =               0.0000000000000000
    EFP Energy =                            0.0000000000000000
    Total Energy =                       -309.0553564014736025
    Molecular point group: c1
  Basis Set: 6-31G*
  Basis Set:

  -Total Gradient:
     Atom            X                  Y                   Z
    ------   -----------------  -----------------  -----------------
       1        0.000000909897    -0.000000083162    -0.000001800208
       2        0.000000405161     0.000000576485     0.000006754479
       3       -0.000004292909    -0.000001785011     0.000011492530
       4       -0.000006538254     0.000000800370     0.000007085957
       5       -0.000496537645     0.000399201213     0.000954150962
       6       -0.000004936401    -0.000000238868     0.000002035292
       7       -0.000002918244     0.000001545783    -0.000003681028
       8        0.000052903594     0.000991849415    -0.000321791259
       9        0.000421240055    -0.000610784373    -0.000744208683
      10        0.000012725104    -0.000005022877    -0.000003795769
      11        0.000020147389    -0.000778516496     0.000104340678
      12        0.000001679577    -0.000003098392    -0.000003280661
      13       -0.000001816130     0.000002443352     0.000000856034
      14        0.000002369057     0.000003895207    -0.000004203501
      15        0.000002277588    -0.000001639836     0.000001861337
      16       -0.000001068993    -0.000001020086     0.000001252599
      17        0.000001523456     0.000000347294    -0.000002026606
      18        0.000000632706    -0.000000867099    -0.000001810326
      19        0.000001294990     0.000002397086    -0.000003231825

  **** Optimization is complete! (in 11 steps) ****
    Final optimized geometry and variables:
    Molecular point group: c1

    Geometry (in Angstrom), charge = 0, multiplicity = 1:

    O           -1.848847507614    -1.258189299046    -0.746978601059
    C           -1.492175331684    -0.182914024879    -0.371777405600
    C           -0.215537209089    -0.022079403075     0.435625114501
    C           -2.275235777897     1.070414670873    -0.694999697642
    C            1.002314108799    -0.025445174640    -0.505778348955
    H           -0.251540935240     0.894234919298     1.015226283762
    H           -0.160399808103    -0.857700014801     1.122731113450
    C            2.399166231194     0.100918344666     0.164695773974
    H            0.885796939469     0.775244050701    -1.231615068956
    H            0.963012559643    -0.945976130506    -1.077071921307
    C            2.431993435377     0.299044752425     1.682659332590
    H            2.974209221800    -0.789945830486    -0.068083810154
    H            2.934615616542     0.924741200276    -0.297047179577
    H            1.968911585037    -0.527131052389     2.211376106470
    H            1.931859301430     1.213007907116     1.986887063685
    H            3.461154002514     0.365260832333     2.021304419895
    H           -3.072832682333     0.839809867535    -1.387401891635
    H           -1.627474710047     1.832473120516    -1.118211633310
    H           -2.698649057038     1.480615131488     0.218092969950

  Mulliken Charges: (a.u.)
   Center  Symbol    Alpha    Beta     Spin     Total
       1     O     4.26229  4.26229  0.00000 -0.52459
       2     C     2.73714  2.73714  0.00000  0.52571
       3     C     3.20133  3.20133  0.00000 -0.40266
       4     C     3.28950  3.28950  0.00000 -0.57901
       5     C     3.16786  3.16786  0.00000 -0.33571
       6     H     0.41567  0.41567  0.00000  0.16865
       7     H     0.40027  0.40027  0.00000  0.19946
       8     C     3.15551  3.15551  0.00000 -0.31102
       9     H     0.41887  0.41887  0.00000  0.16226
      10     H     0.40322  0.40322  0.00000  0.19357
      11     C     3.24380  3.24380  0.00000 -0.48761
      12     H     0.41602  0.41602  0.00000  0.16797
      13     H     0.41828  0.41828  0.00000  0.16344
      14     H     0.41870  0.41870  0.00000  0.16261
      15     H     0.42162  0.42162  0.00000  0.15676
      16     H     0.41625  0.41625  0.00000  0.16749
      17     H     0.39703  0.39703  0.00000  0.20595
      18     H     0.40989  0.40989  0.00000  0.18022
      19     H     0.40675  0.40675  0.00000  0.18650

   Total alpha = 28.00000, Total beta = 28.00000, Total charge =  0.00000
