                              Psi4 1.0.54 Driver

  ==> Input File <==

--------------------------------------------------------------------------
set {
	reference rhf
	basis cc-pvtz
}

set_num_threads( 4 )
memory 2 gb

molecule MOL {
0 1

H	 0.807945	 -1.872950	 0.887224
C	 0.105183	 -1.065763	 1.101756
N	 -0.537714	 -0.645117	 0.000000
O	 -0.041597	 -0.638543	 2.202963
C	 -1.522613	 0.412524	 0.000000
H	 -0.316035	 -1.092449	 -0.854831
H	 -2.150256	 0.356137	 -0.880771
H	 -1.005621	 1.357208	 0.000000
H	 -2.150256	 0.356137	 0.880771

	symmetry c1
}
set optking {
	frozen_dihedral = ("
		6 3 5 7
	")
}

ee,wfn = optimize('scf', return_wfn=True)
oeprop( wfn, 'DIPOLE', 'QUADRUPOLE', 'MULLIKEN_CHARGES')
f=open( 'psi4out.xyz', 'w' )
f.write( "9  " )
f.write( str(ee) + "\n" )
f.write( MOL.save_string_xyz() )
f.close()
--------------------------------------------------------------------------

    Molecular point group: c1
  Charge       = 0
  Multiplicity = 1
  Basis Set: CC-PVTZ
  Basis Set:
  @DF-RHF Final Energy:  -208.04291431337356
    Total Energy =                       -208.0429143133735295
    Molecular point group: c1
  Basis Set: CC-PVTZ
  Basis Set:
  Basis Set: CC-PVTZ
  Basis Set:
  @DF-RHF Final Energy:  -208.04352253409951
    Total Energy =                       -208.0435225340995373
  Basis Set: CC-PVTZ
  Basis Set:
  Basis Set: CC-PVTZ
  Basis Set:
  @DF-RHF Final Energy:  -208.04363592714185
    Total Energy =                       -208.0436359271417643
  Basis Set: CC-PVTZ
  Basis Set:
  Basis Set: CC-PVTZ
  Basis Set:
  @DF-RHF Final Energy:  -208.04357411486313
    Total Energy =                       -208.0435741148631337
  Basis Set: CC-PVTZ
  Basis Set:
  Basis Set: CC-PVTZ
  Basis Set:
  @DF-RHF Final Energy:  -208.04366270899914
    Total Energy =                       -208.0436627089991930
  Basis Set: CC-PVTZ
  Basis Set:
  Basis Set: CC-PVTZ
  Basis Set:
  @DF-RHF Final Energy:  -208.04367656476546
    Total Energy =                       -208.0436765647655477
  Basis Set: CC-PVTZ
  Basis Set:
  Charge       = 0
  Multiplicity = 1
  Basis Set: CC-PVTZ
  Basis Set:

    Orbital Energies (a.u.)
    -----------------------

    Doubly Occupied:

       1A    -20.516763     2A    -15.584467     3A    -11.336242
       4A    -11.260339     5A     -1.394012     6A     -1.239414
       7A     -0.969759     8A     -0.809062     9A     -0.749035
      10A     -0.645944    11A     -0.629933    12A     -0.596131
      13A     -0.558990    14A     -0.537594    15A     -0.428449
      16A     -0.396774

  @DF-RHF Final Energy:  -208.04368036179415

   => Energetics <=

    Nuclear Repulsion Energy =            122.9068971563532244
    One-Electron Energy =                -526.5953432177866489
    Two-Electron Energy =                 195.6447656996392652
    DFT Exchange-Correlation Energy =       0.0000000000000000
    Empirical Dispersion Energy =           0.0000000000000000
    PCM Polarization Energy =               0.0000000000000000
    EFP Energy =                            0.0000000000000000
    Total Energy =                       -208.0436803617941450
    Molecular point group: c1
  Basis Set: CC-PVTZ
  Basis Set:

  -Total Gradient:
     Atom            X                  Y                   Z
    ------   -----------------  -----------------  -----------------
       1       -0.000027780277     0.000028469436     0.000027018025
       2        0.000007976410    -0.000051725898    -0.000218354942
       3        0.000103632519    -0.000059309557    -0.000033425147
       4       -0.000019305396     0.000067224327     0.000185686347
       5       -0.000102363726    -0.000008790343     0.000057243212
       6       -0.000021171383    -0.000008854484    -0.000002646570
       7        0.000022742240     0.000016010408    -0.000038665102
       8        0.000034591262     0.000026325855    -0.000006127237
       9        0.000001678351    -0.000009349743     0.000029271413

  **** Optimization is complete! (in 7 steps) ****
    Final optimized geometry and variables:
    Molecular point group: c1

    Geometry (in Angstrom), charge = 0, multiplicity = 1:

    H            1.350939388672    -1.373905101142     0.098354121094
    C            0.627393953727    -0.578285522160     0.285396333196
    N           -0.038140983563    -0.209523134716    -0.820133500952
    O            0.463297721970    -0.114650415831     1.369473071717
    C           -1.013140791993     0.858397403662    -0.815103674702
    H            0.229102113587    -0.617295754434    -1.680966448041
    H           -1.571851714584     0.825595640772    -1.739416224102
    H           -0.543268226279     1.829966530678    -0.722386978016
    H           -1.694826912223     0.731167620873     0.012240775636

  Mulliken Charges: (a.u.)
   Center  Symbol    Alpha    Beta     Spin     Total
       1     H     0.46417  0.46417  0.00000  0.07167
       2     C     2.87987  2.87987  0.00000  0.24026
       3     N     3.60582  3.60582  0.00000 -0.21164
       4     O     4.21420  4.21420  0.00000 -0.42840
       5     C     3.07596  3.07596  0.00000 -0.15192
       6     H     0.41028  0.41028  0.00000  0.17945
       7     H     0.45428  0.45428  0.00000  0.09144
       8     H     0.45319  0.45319  0.00000  0.09362
       9     H     0.44224  0.44224  0.00000  0.11552

   Total alpha = 16.00000, Total beta = 16.00000, Total charge = -0.00000

*** Psi4 exiting successfully. Buy a developer a beer!
