  ==> Input File <==

--------------------------------------------------------------------------
set {
	reference rhf
	basis cc-pvtz
}

set_num_threads( 4 )
memory 2 gb

molecule MOL {
0 1

H	 -3.268214	 -0.875720	 0.463107
C	 -2.806015	 0.000007	 0.024886
N	 -1.391133	 0.000016	 0.301321
H	 -3.029448	 0.000055	 -1.045738
H	 -3.268126	 0.875758	 0.463150
C	 -1.103624	 0.232319	 1.700231
C	 -0.667032	 0.932776	 -0.534842
H	 -1.463882	 1.213300	 2.023866
H	 -1.616513	 -0.516104	 2.292594
C	 0.387903	 0.142532	 1.963483
H	 -0.861185	 0.695719	 -1.574168
H	 -0.997525	 1.961507	 -0.363568
C	 0.824494	 0.842989	 -0.271591
H	 0.582055	 0.379589	 3.002809
H	 0.718396	 -0.886199	 1.792208
N	 1.112003	 1.075292	 1.127319
H	 1.337383	 1.591411	 -0.863954
H	 1.184752	 -0.137992	 -0.595225
C	 2.526885	 1.075301	 1.403754
H	 2.699881	 1.313633	 2.445787
H	 3.020778	 1.828590	 0.802766
H	 3.000423	 0.111949	 1.194295

	symmetry c1
}
set optking {
	frozen_dihedral = ("
		6 3 2 4
	")
}

ee = optimize('scf')
oeprop('DIPOLE', 'QUADRUPOLE', 'MULLIKEN_CHARGES')
f=open( 'psi4out.xyz', 'w' )
f.write( "22  " )
f.write( str(ee) + "\n" )
f.write( MOL.save_string_xyz() )
f.close()
--------------------------------------------------------------------------

    Molecular point group: c1
  Charge       = 0
  Multiplicity = 1
  Basis Set: CC-PVTZ
  Basis Set:
  @DF-RHF Final Energy:  -344.34928899650038
    Total Energy =                       -344.3492889965004906
    Molecular point group: c1
  Basis Set: CC-PVTZ
  Basis Set:
  Basis Set: CC-PVTZ
  Basis Set:
  @DF-RHF Final Energy:  -344.34994752531480
    Total Energy =                       -344.3499475253148603
  Basis Set: CC-PVTZ
  Basis Set:
  Basis Set: CC-PVTZ
  Basis Set:
  @DF-RHF Final Energy:  -344.35003626409139
    Total Energy =                       -344.3500362640916137
  Basis Set: CC-PVTZ
  Basis Set:
  Charge       = 0
  Multiplicity = 1
  Basis Set: CC-PVTZ
  Basis Set:

    Orbital Energies (a.u.)
    -----------------------

    Doubly Occupied:

       1A    -15.538067     2A    -15.537597     3A    -11.237653
       4A    -11.237535     5A    -11.236991     6A    -11.236886
       7A    -11.234326     8A    -11.234306     9A     -1.257571
      10A     -1.206608    11A     -1.025772    12A     -0.993009
      13A     -0.912180    14A     -0.867948    15A     -0.836482
      16A     -0.756074    17A     -0.667046    18A     -0.637929
      19A     -0.632327    20A     -0.627345    21A     -0.623202
      22A     -0.582570    23A     -0.550931    24A     -0.546162
      25A     -0.542282    26A     -0.517810    27A     -0.497279
      28A     -0.490757    29A     -0.465942    30A     -0.457189
      31A     -0.353188    32A     -0.348442

  @DF-RHF Final Energy:  -344.35003761471705

   => Energetics <=

    Nuclear Repulsion Energy =            422.0507814218618705
    One-Electron Energy =               -1303.0228213705925100
    Two-Electron Energy =                 536.6220023340134730
    DFT Exchange-Correlation Energy =       0.0000000000000000
    Empirical Dispersion Energy =           0.0000000000000000
    PCM Polarization Energy =               0.0000000000000000
    EFP Energy =                            0.0000000000000000
    Total Energy =                       -344.3500376147171664
    Molecular point group: c1
  Basis Set: CC-PVTZ
  Basis Set:

  -Total Gradient:
     Atom            X                  Y                   Z
    ------   -----------------  -----------------  -----------------
       1        0.000019992584    -0.000004913293     0.000005304973
       2        0.000039817248    -0.002877239577    -0.000072970837
       3       -0.000090186233    -0.002235970200     0.000589413165
       4        0.000048395154     0.002926754541    -0.000006216356
       5        0.000012968594     0.000015155955     0.000014223691
       6       -0.000023987252     0.002233202104    -0.000420437952
       7       -0.000032400838    -0.000093064147     0.000036815263
       8       -0.000019687620     0.000018945804     0.000005158664
       9       -0.000016558918    -0.000006073786    -0.000002473578
      10        0.000001699515    -0.000060387414    -0.000120607585
      11        0.000009498443     0.000013322647    -0.000004509403
      12        0.000028785904     0.000005086100    -0.000003038268
      13        0.000012645621     0.000054193629    -0.000027605881
      14       -0.000052604731     0.000001107875    -0.000031389091
      15        0.000034297276    -0.000029377173     0.000012953593
      16        0.000006090765     0.000020864400     0.000012150889
      17        0.000027120780     0.000004739830     0.000007343173
      18       -0.000019530454     0.000008257855     0.000011235823
      19        0.000012305444     0.000007633104    -0.000013266994
      20       -0.000000548373     0.000000450934     0.000002840141
      21        0.000002387110    -0.000002205634     0.000003821681
      22       -0.000000500020    -0.000000483555     0.000001254887

  **** Optimization is complete! (in 4 steps) ****
    Final optimized geometry and variables:
    Molecular point group: c1

    Geometry (in Angstrom), charge = 0, multiplicity = 1:

    H           -3.138645976101    -1.412196956842    -0.244213509790
    C           -2.669431503751    -0.538964244885    -0.680260851840
    N           -1.250419677027    -0.545410938768    -0.416162540007
    H           -2.846862245977    -0.544800615487    -1.747875322446
    H           -3.165549287681     0.348816537853    -0.277794035232
    C           -0.961925541254    -0.304774340111     0.981626552351
    C           -0.530036389405     0.397127236347    -1.247034956277
    H           -1.321481207099     0.679281234674     1.295615910313
    H           -1.478103377641    -1.047048601926     1.579794876081
    C            0.528796003076    -0.395323919177     1.247851431236
    H           -0.722132522518     0.166143628850    -2.287860837648
    H           -0.862502504838     1.424134597362    -1.069047750508
    C            0.962256764831     0.309701773221    -0.985869235238
    H            0.720720605502    -0.157733130222     2.287560170253
    H            0.859853191582    -1.424151490277     1.077881328357
    N            1.253119289295     0.537922557502     0.412791061368
    H            1.472896830892     1.060530771021    -1.577367499913
    H            1.322777775493    -0.669912480972    -1.313573353471
    C            2.668277178668     0.536094945568     0.686563590761
    H            2.843358816251     0.771420435855     1.729009776659
    H            3.161822551003     1.290641867853     0.086744905843
    H            3.140907588862    -0.427057240581     0.473719484893

  Mulliken Charges: (a.u.)
   Center  Symbol    Alpha    Beta     Spin     Total
       1     H     0.45020  0.45020  0.00000  0.09960
       2     C     3.09809  3.09809  0.00000 -0.19618
       3     N     3.61359  3.61359  0.00000 -0.22719
       4     H     0.45311  0.45311  0.00000  0.09378
       5     H     0.47005  0.47005  0.00000  0.05991
       6     C     3.03645  3.03645  0.00000 -0.07291
       7     C     3.03479  3.03479  0.00000 -0.06959
       8     H     0.46698  0.46698  0.00000  0.06603
       9     H     0.45394  0.45394  0.00000  0.09211
      10     C     3.03547  3.03547  0.00000 -0.07095
      11     H     0.45367  0.45367  0.00000  0.09265
      12     H     0.46870  0.46870  0.00000  0.06260
      13     C     3.03596  3.03596  0.00000 -0.07192
      14     H     0.45378  0.45378  0.00000  0.09244
      15     H     0.46793  0.46793  0.00000  0.06413
      16     N     3.61298  3.61298  0.00000 -0.22596
      17     H     0.45383  0.45383  0.00000  0.09234
      18     H     0.46808  0.46808  0.00000  0.06384
      19     C     3.09847  3.09847  0.00000 -0.19694
      20     H     0.45195  0.45195  0.00000  0.09609
      21     H     0.45196  0.45196  0.00000  0.09608
      22     H     0.47000  0.47000  0.00000  0.06000

   Total alpha = 32.00000, Total beta = 32.00000, Total charge =  0.00000
