  ==> Input File <==

--------------------------------------------------------------------------
set {
	reference rhf
	basis 6-31G*
}

set_num_threads( 4 )
memory 2 gb

molecule MOL {
0 1

H	 2.732824	 -0.547119	 0.883868
O	 1.943356	 -0.945276	 0.530318
C	 0.975537	 -0.029460	 0.545698
C	 -0.318135	 -0.576402	 0.000164
O	 1.154729	 1.073178	 0.949526
C	 -1.454360	 0.441875	 -0.000474
H	 -0.117442	 -0.943927	 -1.002658
H	 -0.574102	 -1.452375	 0.590212
C	 -2.826123	 -0.230780	 0.000056
H	 -1.357605	 1.085198	 -0.868380
H	 -1.357504	 1.086451	 0.866496
H	 -2.959731	 -0.858053	 -0.876869
H	 -3.619374	 0.509403	 -0.000080
H	 -2.959371	 -0.857318	 0.877556

	symmetry c1
}
set optking {
	frozen_dihedral = ("
		7 4 6 10
	")
}

ee = optimize('scf')
oeprop('DIPOLE', 'QUADRUPOLE', 'MULLIKEN_CHARGES')
f=open( 'psi4out.xyz', 'w' )
f.write( "14  " )
f.write( str(ee) + "\n" )
f.write( MOL.save_string_xyz() )
f.close()
--------------------------------------------------------------------------

    Molecular point group: c1
  Charge       = 0
  Multiplicity = 1
  Basis Set: 6-31G*
  Basis Set:
  @DF-RHF Final Energy:  -305.87916124469797
    Total Energy =                       -305.8791612446981389
    Molecular point group: c1
  Basis Set: 6-31G*
  Basis Set:
  Basis Set: 6-31G*
  Basis Set:
  @DF-RHF Final Energy:  -305.87933948402747
    Total Energy =                       -305.8793394840272413
  Basis Set: 6-31G*
  Basis Set:
  Basis Set: 6-31G*
  Basis Set:
  @DF-RHF Final Energy:  -305.87931266602897
    Total Energy =                       -305.8793126660287953
  Basis Set: 6-31G*
  Basis Set:
  Basis Set: 6-31G*
  Basis Set:
  @DF-RHF Final Energy:  -305.87936466713643
    Total Energy =                       -305.8793646671363149
  Basis Set: 6-31G*
  Basis Set:
  Basis Set: 6-31G*
  Basis Set:
  @DF-RHF Final Energy:  -305.87937830319083
    Total Energy =                       -305.8793783031904923
  Basis Set: 6-31G*
  Basis Set:
  Basis Set: 6-31G*
  Basis Set:
  @DF-RHF Final Energy:  -305.87937938656711
    Total Energy =                       -305.8793793865672797
  Basis Set: 6-31G*
  Basis Set:
  Charge       = 0
  Multiplicity = 1
  Basis Set: 6-31G*
  Basis Set:

    Orbital Energies (a.u.)
    -----------------------

    Doubly Occupied:

       1A    -20.613000     2A    -20.552257     3A    -11.381712
       4A    -11.241513     5A    -11.225210     6A    -11.216705
       7A     -1.475164     8A     -1.366188     9A     -1.082222
      10A     -0.979635    11A     -0.856919    12A     -0.790631
      13A     -0.700117    14A     -0.689029    15A     -0.666444
      16A     -0.615609    17A     -0.594307    18A     -0.571707
      19A     -0.548051    20A     -0.501955    21A     -0.491381
      22A     -0.482339    23A     -0.479381    24A     -0.444616

  @DF-RHF Final Energy:  -305.87937955102524

   => Energetics <=

    Nuclear Repulsion Energy =            239.9552045918858880
    One-Electron Energy =                -892.5369861343082221
    Two-Electron Energy =                 346.7024019913969823
    DFT Exchange-Correlation Energy =       0.0000000000000000
    Empirical Dispersion Energy =           0.0000000000000000
    PCM Polarization Energy =               0.0000000000000000
    EFP Energy =                            0.0000000000000000
    Total Energy =                       -305.8793795510252949
    Molecular point group: c1
  Basis Set: 6-31G*
  Basis Set:

  -Total Gradient:
     Atom            X                  Y                   Z
    ------   -----------------  -----------------  -----------------
       1       -0.000009035907     0.000005386105    -0.000002635855
       2       -0.000010857265    -0.000008196858    -0.000008471026
       3        0.000010376185    -0.000009211500     0.000017603140
       4       -0.003341732985    -0.003709878352     0.000184391811
       5       -0.000004107208     0.000011986018    -0.000010178230
       6        0.002979533640     0.003319525873     0.002122144280
       7        0.002301812031     0.002551125485    -0.000477060065
       8        0.000004819331    -0.000003991475    -0.000000959293
       9        0.000006000723    -0.000004926374    -0.000005546315
      10       -0.001939670574    -0.002146701483    -0.001820115788
      11        0.000000974053    -0.000004381194     0.000000008387
      12       -0.000001977023    -0.000001615186     0.000000176687
      13        0.000005733522     0.000001063000    -0.000001918364
      14       -0.000001868525    -0.000000184060     0.000002560630

  **** Optimization is complete! (in 7 steps) ****
    Final optimized geometry and variables:
    Molecular point group: c1

    Geometry (in Angstrom), charge = 0, multiplicity = 1:

    H            2.793853121210    -0.493076151496     0.485768582989
    O            1.995031794975    -0.891714054958     0.154536999061
    C            1.027816114851     0.024314944080     0.195616929648
    C           -0.279807106925    -0.528686350685    -0.315032499700
    O            1.220203563892     1.127541248371     0.591631028759
    C           -1.415031315009     0.496048337134    -0.317127644275
    H           -0.079662043121    -0.896629883347    -1.317244942183
    H           -0.520320626276    -1.396704252507     0.291868474734
    C           -2.788514201289    -0.175181598035    -0.364993502256
    H           -1.312830456010     1.138066893635    -1.186270642350
    H           -1.339254447767     1.128273819063     0.558355659435
    H           -2.889179302470    -0.811412001869    -1.240020230532
    H           -3.579977301102     0.566030075758    -0.404074302377
    H           -2.956266113056    -0.792338555629     0.513149686026

  Mulliken Charges: (a.u.)
   Center  Symbol    Alpha    Beta     Spin     Total
       1     H     0.26774  0.26774  0.00000  0.46452
       2     O     4.35066  4.35066  0.00000 -0.70131
       3     C     2.62623  2.62623  0.00000  0.74754
       4     C     3.20945  3.20945  0.00000 -0.41890
       5     O     4.27879  4.27879  0.00000 -0.55759
       6     C     3.15439  3.15439  0.00000 -0.30879
       7     H     0.39758  0.39758  0.00000  0.20484
       8     H     0.39814  0.39814  0.00000  0.20371
       9     C     3.24337  3.24337  0.00000 -0.48673
      10     H     0.41450  0.41450  0.00000  0.17100
      11     H     0.40227  0.40227  0.00000  0.19547
      12     H     0.42129  0.42129  0.00000  0.15741
      13     H     0.41512  0.41512  0.00000  0.16975
      14     H     0.42046  0.42046  0.00000  0.15908

   Total alpha = 24.00000, Total beta = 24.00000, Total charge = -0.00000
