  ==> Input File <==

--------------------------------------------------------------------------
set {
	reference rhf
	basis 6-31G*
}

set_num_threads( 4 )
memory 2 gb

molecule MOL {
0 1

H	 1.085764	 0.881738	 -4.098891
O	 2.023023	 0.781113	 -4.018323
C	 2.515015	 1.680543	 -3.057581
C	 2.161057	 1.286093	 -1.627948
H	 3.590461	 1.683185	 -3.180390
H	 2.163542	 2.690444	 -3.265778
C	 0.659120	 1.296839	 -1.333097
H	 2.564036	 0.295513	 -1.433721
H	 2.667313	 1.972795	 -0.951551
C	 0.340002	 0.949440	 0.123713
H	 0.160836	 0.591115	 -1.991909
H	 0.252062	 2.281660	 -1.562820
C	 -1.145510	 1.029194	 0.494164
H	 0.712516	 -0.049471	 0.343392
H	 0.892896	 1.627615	 0.770310
C	 -2.037799	 -0.007733	 -0.193645
H	 -1.236245	 0.904682	 1.571234
H	 -1.517763	 2.028508	 0.273627
C	 -3.489788	 0.042957	 0.286558
H	 -1.635435	 -1.003601	 -0.013470
H	 -2.019080	 0.138103	 -1.270995
C	 -4.216917	 1.317354	 -0.141063
H	 -4.025645	 -0.823308	 -0.095450
H	 -3.513059	 -0.038752	 1.371301
H	 -4.239342	 1.411634	 -1.223113
H	 -5.243387	 1.322503	 0.212445
H	 -3.726170	 2.201406	 0.256408

	symmetry c1
}
set optking {
	frozen_dihedral = ("
		20 16 19 22
	")
}

ee = optimize('scf')
oeprop('DIPOLE', 'QUADRUPOLE', 'MULLIKEN_CHARGES')
f=open( 'psi4out.xyz', 'w' )
f.write( "27  " )
f.write( str(ee) + "\n" )
f.write( MOL.save_string_xyz() )
f.close()
--------------------------------------------------------------------------

    Molecular point group: c1
  Charge       = 0
  Multiplicity = 1
  Basis Set: 6-31G*
  Basis Set:
  @DF-RHF Final Energy:  -388.27975122774569
    Total Energy =                       -388.2797512277453507
    Molecular point group: c1
  Basis Set: 6-31G*
  Basis Set:
  Basis Set: 6-31G*
  Basis Set:
  @DF-RHF Final Energy:  -388.28000625261961
    Total Energy =                       -388.2800062526189322
  Basis Set: 6-31G*
  Basis Set:
  Basis Set: 6-31G*
  Basis Set:
  @DF-RHF Final Energy:  -388.28015838904230
    Total Energy =                       -388.2801583890422989
  Basis Set: 6-31G*
  Basis Set:
  Basis Set: 6-31G*
  Basis Set:
  @DF-RHF Final Energy:  -388.28016014781554
    Total Energy =                       -388.2801601478164457
  Basis Set: 6-31G*
  Basis Set:
  Basis Set: 6-31G*
  Basis Set:
  @DF-RHF Final Energy:  -388.28016717074428
    Total Energy =                       -388.2801671707446758
  Basis Set: 6-31G*
  Basis Set:
  Basis Set: 6-31G*
  Basis Set:
  @DF-RHF Final Energy:  -388.28016970306408
    Total Energy =                       -388.2801697030645300
  Basis Set: 6-31G*
  Basis Set:
  Charge       = 0
  Multiplicity = 1
  Basis Set: 6-31G*
  Basis Set:

    Orbital Energies (a.u.)
    -----------------------

    Doubly Occupied:

       1A    -20.552277     2A    -11.267030     3A    -11.219777
       4A    -11.217303     5A    -11.216436     6A    -11.215455
       7A    -11.215193     8A    -11.214562     9A    -11.209530
      10A     -1.359033    11A     -1.095261    12A     -1.061042
      13A     -1.009907    14A     -0.946848    15A     -0.892629
      16A     -0.827324    17A     -0.799827    18A     -0.769991
      19A     -0.693637    20A     -0.650687    21A     -0.628260
      22A     -0.614281    23A     -0.610800    24A     -0.590303
      25A     -0.580225    26A     -0.554667    27A     -0.535697
      28A     -0.524927    29A     -0.514397    30A     -0.493818
      31A     -0.484510    32A     -0.476449    33A     -0.469573
      34A     -0.456268    35A     -0.450060    36A     -0.442230
      37A     -0.422919

  @DF-RHF Final Energy:  -388.28016976826507

   => Energetics <=

    Nuclear Repulsion Energy =            463.1347157014042750
    One-Electron Energy =               -1444.2635077733227718
    Two-Electron Energy =                 592.8486223036534284
    DFT Exchange-Correlation Energy =       0.0000000000000000
    Empirical Dispersion Energy =           0.0000000000000000
    PCM Polarization Energy =               0.0000000000000000
    EFP Energy =                            0.0000000000000000
    Total Energy =                       -388.2801697682650683
    Molecular point group: c1
  Basis Set: 6-31G*
  Basis Set:

  -Total Gradient:
     Atom            X                  Y                   Z
    ------   -----------------  -----------------  -----------------
       1        0.000005380572    -0.000000616699    -0.000004944608
       2        0.000001457719     0.000001317825    -0.000001730100
       3       -0.000006911190     0.000008036098    -0.000002464841
       4       -0.000000514734    -0.000006512625     0.000009710308
       5       -0.000001142037     0.000001363629     0.000002646556
       6       -0.000000142277     0.000000873594    -0.000002679585
       7       -0.000004357578    -0.000004244639    -0.000007886919
       8        0.000000805572    -0.000002677590    -0.000005234374
       9        0.000000600799    -0.000004433743     0.000005200358
      10       -0.000005833852     0.000006605865    -0.000009178828
      11       -0.000010062230    -0.000007574537     0.000002473895
      12        0.000001977537    -0.000010161371     0.000001924172
      13       -0.000026653818    -0.000015075152     0.000029560698
      14       -0.000004208955     0.000002256745    -0.000010502157
      15       -0.000009228099     0.000000420213     0.000013080732
      16        0.000160984857     0.000131567960     0.000493137046
      17       -0.000012548468     0.000005945284     0.000007924988
      18       -0.000002616993     0.000010164507    -0.000012383321
      19        0.000164681383     0.000257614792     0.000431625442
      20       -0.000197009401    -0.000168532536    -0.000546250459
      21       -0.000013928877     0.000009214257    -0.000003177685
      22       -0.000095781445    -0.000213535970    -0.000407566453
      23        0.000010863951    -0.000004995577    -0.000003777980
      24        0.000018295954     0.000007641166     0.000009712351
      25        0.000008053990     0.000008665553    -0.000001095568
      26        0.000001297972    -0.000022246156    -0.000001477937
      27        0.000016539652     0.000008919107     0.000013354270

  **** Optimization is complete! (in 7 steps) ****
    Final optimized geometry and variables:
    Molecular point group: c1

    Geometry (in Angstrom), charge = 0, multiplicity = 1:

    H            1.443646453449    -0.072353892698    -2.995300451410
    O            2.378707448197    -0.187236083855    -2.908444416808
    C            2.878996411096     0.710801324736    -1.950730711845
    C            2.510740768032     0.331263164719    -0.520664395019
    H            3.955017746897     0.695715729042    -2.067294627399
    H            2.544658785753     1.724686080924    -2.167603731470
    C            1.007505483194     0.367217979063    -0.234761880739
    H            2.897204626824    -0.664111337622    -0.317590052676
    H            3.023636147116     1.014515536262     0.154211047199
    C            0.674514651290     0.034402504676     1.222361218228
    H            0.502031208812    -0.335144951472    -0.891729068548
    H            0.617034370209     1.356627642239    -0.473414759665
    C           -0.812114378773     0.140519554132     1.582532926460
    H            1.029639066951    -0.968951585960     1.450364520120
    H            1.234013402702     0.707942901434     1.868161618005
    C           -1.709295752733    -0.889230641322     0.887600581999
    H           -0.912538970157     0.016139635230     2.659063648688
    H           -1.158207432907     1.147193246334     1.360137954119
    C           -3.158852283293    -0.900473115049     1.387381878173
    H           -1.284079395337    -1.880403681505     1.033848174472
    H           -1.712157947282    -0.718335327867    -0.186513652281
    C           -3.960532550400     0.351777409914     1.027698151924
    H           -3.662035198414    -1.767225045412     0.965802118843
    H           -3.167573866339    -1.039970146014     2.466393168160
    H           -3.965924451867     0.515306174575    -0.046685171138
    H           -4.992395733720     0.255631949924     1.351298256695
    H           -3.554691001632     1.242600357457     1.495875849844

  Mulliken Charges: (a.u.)
   Center  Symbol    Alpha    Beta     Spin     Total
       1     H     0.27991  0.27991  0.00000  0.44018
       2     O     4.37094  4.37094  0.00000 -0.74187
       3     C     2.99738  2.99738  0.00000  0.00524
       4     C     3.16094  3.16094  0.00000 -0.32188
       5     H     0.41445  0.41445  0.00000  0.17110
       6     H     0.43204  0.43204  0.00000  0.13592
       7     C     3.16331  3.16331  0.00000 -0.32662
       8     H     0.41496  0.41496  0.00000  0.17008
       9     H     0.42435  0.42435  0.00000  0.15131
      10     C     3.15203  3.15203  0.00000 -0.30406
      11     H     0.42273  0.42273  0.00000  0.15454
      12     H     0.42547  0.42547  0.00000  0.14907
      13     C     3.15486  3.15486  0.00000 -0.30973
      14     H     0.42169  0.42169  0.00000  0.15662
      15     H     0.42155  0.42155  0.00000  0.15690
      16     C     3.15426  3.15426  0.00000 -0.30853
      17     H     0.42161  0.42161  0.00000  0.15678
      18     H     0.42233  0.42233  0.00000  0.15533
      19     C     3.15246  3.15246  0.00000 -0.30492
      20     H     0.42176  0.42176  0.00000  0.15647
      21     H     0.42422  0.42422  0.00000  0.15157
      22     C     3.24093  3.24093  0.00000 -0.48187
      23     H     0.42082  0.42082  0.00000  0.15836
      24     H     0.42303  0.42303  0.00000  0.15394
      25     H     0.42287  0.42287  0.00000  0.15425
      26     H     0.41899  0.41899  0.00000  0.16202
      27     H     0.42010  0.42010  0.00000  0.15980

   Total alpha = 37.00000, Total beta = 37.00000, Total charge =  0.00000
