                              Psi4 1.0.54 Driver

  ==> Input File <==

--------------------------------------------------------------------------
set {
	reference rhf
	basis cc-pvtz
}

set_num_threads( 4 )
memory 2 gb

molecule MOL {
0 1

H	 2.614283	 2.028610	 0.296620
O	 3.358864	 1.662087	 -0.142800
C	 3.565468	 0.338079	 0.273842
C	 3.113624	 0.074334	 1.702465
H	 2.993196	 -0.278306	 -0.406271
H	 4.611592	 0.062053	 0.156012
C	 3.913720	 0.827882	 2.762588
H	 2.062187	 0.332702	 1.785439
H	 3.191490	 -0.994697	 1.885511
C	 3.453467	 0.513005	 4.185211
H	 3.830435	 1.894682	 2.583690
H	 4.968252	 0.575494	 2.664879
C	 4.269127	 1.184103	 5.291819
H	 2.407631	 0.790713	 4.291668
H	 3.496404	 -0.562733	 4.331541
C	 4.142273	 2.705101	 5.356765
H	 3.954433	 0.770316	 6.245902
H	 5.316947	 0.915215	 5.178120
C	 4.893801	 3.317356	 6.536070
H	 3.090333	 2.973846	 5.425081
H	 4.510975	 3.150423	 4.437663
C	 4.772338	 4.836180	 6.601746
H	 4.521532	 2.886344	 7.461393
H	 5.943462	 3.042744	 6.473918
H	 3.735711	 5.142133	 6.696794
H	 5.314235	 5.237525	 7.450496
H	 5.171340	 5.300247	 5.705759

	symmetry c1
}
set optking {
	frozen_dihedral = ("
		4 3 2 1
	")
}

ee,wfn = optimize('scf', return_wfn=True)
oeprop( wfn, 'DIPOLE', 'QUADRUPOLE', 'MULLIKEN_CHARGES')
f=open( 'psi4out.xyz', 'w' )
f.write( "27  " )
f.write( str(ee) + "\n" )
f.write( MOL.save_string_xyz() )
f.close()
--------------------------------------------------------------------------

    Molecular point group: c1
  Charge       = 0
  Multiplicity = 1
  Basis Set: CC-PVTZ
  Basis Set:
  @DF-RHF Final Energy:  -388.42559767542048
    Total Energy =                       -388.4255976754207040
    Molecular point group: c1
  Basis Set: CC-PVTZ
  Basis Set:
  Basis Set: CC-PVTZ
  Basis Set:
  @DF-RHF Final Energy:  -388.42646518062742
    Total Energy =                       -388.4264651806270194
  Basis Set: CC-PVTZ
  Basis Set:
  Basis Set: CC-PVTZ
  Basis Set:
  @DF-RHF Final Energy:  -388.42680670268601
    Total Energy =                       -388.4268067026860081
  Basis Set: CC-PVTZ
  Basis Set:
  Basis Set: CC-PVTZ
  Basis Set:
  @DF-RHF Final Energy:  -388.42683170327030
    Total Energy =                       -388.4268317032697269
  Basis Set: CC-PVTZ
  Basis Set:
  Basis Set: CC-PVTZ
  Basis Set:
  @DF-RHF Final Energy:  -388.42683413218901
    Total Energy =                       -388.4268341321890148
  Basis Set: CC-PVTZ
  Basis Set:
  Charge       = 0
  Multiplicity = 1
  Basis Set: CC-PVTZ
  Basis Set:

    Orbital Energies (a.u.)
    -----------------------

    Doubly Occupied:

       1A    -20.544354     2A    -11.264788     3A    -11.220107
       4A    -11.214721     5A    -11.214062     6A    -11.212772
       7A    -11.212428     8A    -11.210675     9A    -11.206156
      10A     -1.362571    11A     -1.095808    12A     -1.062652
      13A     -1.012690    14A     -0.948243    15A     -0.887638
      16A     -0.825380    17A     -0.804226    18A     -0.778580
      19A     -0.668295    20A     -0.654706    21A     -0.645459
      22A     -0.627923    23A     -0.607206    24A     -0.585707
      25A     -0.573361    26A     -0.563554    27A     -0.538438
      28A     -0.523175    29A     -0.512953    30A     -0.488883
      31A     -0.484063    32A     -0.478177    33A     -0.466663
      34A     -0.459557    35A     -0.451869    36A     -0.445209
      37A     -0.424388

  @DF-RHF Final Energy:  -388.42683477424538

   => Energetics <=

    Nuclear Repulsion Energy =            460.3914266445804628
    One-Electron Energy =               -1439.0816462863110701
    Two-Electron Energy =                 590.2633848674854562
    DFT Exchange-Correlation Energy =       0.0000000000000000
    Empirical Dispersion Energy =           0.0000000000000000
    PCM Polarization Energy =               0.0000000000000000
    EFP Energy =                            0.0000000000000000
    Total Energy =                       -388.4268347742452079
    Molecular point group: c1
  Basis Set: CC-PVTZ
  Basis Set:

  -Total Gradient:
     Atom            X                  Y                   Z
    ------   -----------------  -----------------  -----------------
       1        0.001535612755     0.000734806215     0.001519231084
       2       -0.002468078798    -0.001126641331    -0.002036799218
       3        0.002216461912     0.000814463685     0.000923869017
       4       -0.001301104132    -0.000379789000    -0.000478623550
       5        0.000036559729     0.000009575014     0.000062875604
       6       -0.000049853713    -0.000032519716     0.000053471298
       7        0.000019258944    -0.000026876644    -0.000002381811
       8        0.000024384101     0.000015527781    -0.000048126080
       9       -0.000010301074    -0.000007465332     0.000025312221
      10       -0.000020596060     0.000031581965    -0.000001525369
      11       -0.000039146477    -0.000051201032    -0.000016135743
      12        0.000027729242     0.000005525237    -0.000002051696
      13        0.000032580303    -0.000000355510    -0.000023247260
      14        0.000007447803     0.000010545609    -0.000013646841
      15       -0.000011740360     0.000008180318     0.000016389384
      16        0.000006250708     0.000007863344    -0.000003690243
      17        0.000012763025    -0.000012822121    -0.000013416265
      18       -0.000002722906     0.000010399510    -0.000013421616
      19       -0.000013432905    -0.000008326530     0.000018224203
      20       -0.000000938573     0.000001630315    -0.000012342034
      21        0.000004254381    -0.000002074775     0.000051188127
      22       -0.000004701590    -0.000001411749    -0.000007084696
      23        0.000006138374     0.000000403169     0.000000243136
      24       -0.000011166583     0.000003813575    -0.000002386829
      25        0.000008663617    -0.000002272263    -0.000000628465
      26       -0.000000916901    -0.000001458449    -0.000000106232
      27       -0.000003404823    -0.000001101283     0.000004809876

  **** Optimization is complete! (in 6 steps) ****
    Final optimized geometry and variables:
    Molecular point group: c1

    Geometry (in Angstrom), charge = 0, multiplicity = 1:

    H           -1.435439296019     0.204225432154    -3.187554775379
    O           -0.696022531459    -0.134138969855    -3.657584292369
    C           -0.423333834358    -1.450405645148    -3.251111539107
    C           -0.804885452684    -1.734914076667    -1.806971744787
    H           -0.945405109838    -2.146542871829    -3.902026060517
    H            0.638810333296    -1.605907475967    -3.396551321355
    C           -0.010471047018    -0.931751819987    -0.779042376023
    H           -1.870346041784    -1.545323435452    -1.681654601023
    H           -0.666337579127    -2.797110080695    -1.625574819980
    C           -0.441100420189    -1.220277653273     0.657941536227
    H           -0.110747402542     0.125298941393    -0.994676576729
    H            1.045834335148    -1.164677593200    -0.890861684519
    C            0.386648186084    -0.512442054103     1.732236601669
    H           -1.488603897945    -0.953562759135     0.780208844898
    H           -0.381794706313    -2.291717481893     0.829587499728
    C            0.239587265898     1.007738485544     1.762695595200
    H            0.097241799882    -0.907357666200     2.702180914516
    H            1.435400395227    -0.769505608568     1.602908524232
    C            1.007856476959     1.659352550844     2.909562851930
    H           -0.814523478473     1.263267702921     1.848861187130
    H            0.581234908209     1.434650165403     0.824954030751
    C            0.865003400973     3.177340592394     2.941229963170
    H            0.663416609974     1.245652744591     3.853425027224
    H            2.059772763143     1.398860381842     2.829536717953
    H           -0.173576784394     3.470417846877     3.054200576757
    H            1.420906013076     3.607374792743     3.766515009139
    H            1.235220581639     3.624655840718     2.024749910249

  Mulliken Charges: (a.u.)
   Center  Symbol    Alpha    Beta     Spin     Total
       1     H     0.39340  0.39340  0.00000  0.21320
       2     O     4.20623  4.20623  0.00000 -0.41246
       3     C     2.96170  2.96170  0.00000  0.07660
       4     C     3.11431  3.11431  0.00000 -0.22862
       5     H     0.46365  0.46365  0.00000  0.07270
       6     H     0.46502  0.46502  0.00000  0.06996
       7     C     3.08953  3.08953  0.00000 -0.17906
       8     H     0.45618  0.45618  0.00000  0.08764
       9     H     0.44935  0.44935  0.00000  0.10129
      10     C     3.09918  3.09918  0.00000 -0.19837
      11     H     0.44874  0.44874  0.00000  0.10252
      12     H     0.45289  0.45289  0.00000  0.09422
      13     C     3.09777  3.09777  0.00000 -0.19554
      14     H     0.45393  0.45393  0.00000  0.09214
      15     H     0.44842  0.44842  0.00000  0.10316
      16     C     3.08879  3.08879  0.00000 -0.17758
      17     H     0.44830  0.44830  0.00000  0.10339
      18     H     0.45322  0.45322  0.00000  0.09356
      19     C     3.08401  3.08401  0.00000 -0.16803
      20     H     0.45601  0.45601  0.00000  0.08798
      21     H     0.45212  0.45212  0.00000  0.09576
      22     C     3.14977  3.14977  0.00000 -0.29954
      23     H     0.45422  0.45422  0.00000  0.09156
      24     H     0.45438  0.45438  0.00000  0.09124
      25     H     0.45555  0.45555  0.00000  0.08890
      26     H     0.44844  0.44844  0.00000  0.10312
      27     H     0.45487  0.45487  0.00000  0.09026

   Total alpha = 37.00000, Total beta = 37.00000, Total charge = -0.00000

*** Psi4 exiting successfully. Buy a developer a beer!
