  ==> Input File <==

--------------------------------------------------------------------------
set {
	reference rhf
	basis 6-31G*
}

set_num_threads( 4 )
memory 2 gb

molecule MOL {
0 1

H	 -2.172150	 0.880146	 0.502514
C	 -2.018062	 -0.000025	 -0.114509
O	 -0.774054	 0.001095	 -0.743181
H	 -2.760490	 0.003458	 -0.901350
H	 -2.173624	 -0.884374	 0.496163
C	 -0.411625	 1.085882	 -1.578893
C	 0.990774	 0.718886	 -2.059105
C	 -1.360186	 1.201799	 -2.776384
C	 -0.367302	 2.399449	 -0.791688
H	 0.967390	 -0.223978	 -2.593793
H	 1.658508	 0.608960	 -1.212097
H	 1.390261	 1.482160	 -2.719017
H	 -1.440621	 0.247087	 -3.285388
H	 -0.985470	 1.934939	 -3.483275
H	 -2.355524	 1.515914	 -2.481107
H	 0.250035	 2.286260	 0.093261
H	 0.054853	 3.190151	 -1.403332
H	 -1.354526	 2.723217	 -0.479927

	symmetry c1
}
set optking {
	frozen_dihedral = ("
		6 3 2 5
	")
}

ee = optimize('scf')
oeprop('DIPOLE', 'QUADRUPOLE', 'MULLIKEN_CHARGES')
f=open( 'psi4out.xyz', 'w' )
f.write( "18  " )
f.write( str(ee) + "\n" )
f.write( MOL.save_string_xyz() )
f.close()
--------------------------------------------------------------------------

    Molecular point group: c1
  Charge       = 0
  Multiplicity = 1
  Basis Set: 6-31G*
  Basis Set:
  @DF-RHF Final Energy:  -271.17281193854330
    Total Energy =                       -271.1728119385431341
    Molecular point group: c1
  Basis Set: 6-31G*
  Basis Set:
  Basis Set: 6-31G*
  Basis Set:
  @DF-RHF Final Energy:  -271.17496019080949
    Total Energy =                       -271.1749601908094292
  Basis Set: 6-31G*
  Basis Set:
  Basis Set: 6-31G*
  Basis Set:
  @DF-RHF Final Energy:  -271.17548372082734
    Total Energy =                       -271.1754837208274012
  Basis Set: 6-31G*
  Basis Set:
  Basis Set: 6-31G*
  Basis Set:
  @DF-RHF Final Energy:  -271.17543601736713
    Total Energy =                       -271.1754360173673604
  Basis Set: 6-31G*
  Basis Set:
  Basis Set: 6-31G*
  Basis Set:
  @DF-RHF Final Energy:  -271.17549161422670
    Total Energy =                       -271.1754916142270417
  Basis Set: 6-31G*
  Basis Set:
  Basis Set: 6-31G*
  Basis Set:
  @DF-RHF Final Energy:  -271.17549555255312
    Total Energy =                       -271.1754955525532296
  Basis Set: 6-31G*
  Basis Set:
  Basis Set: 6-31G*
  Basis Set:
  @DF-RHF Final Energy:  -271.17549438395793
    Total Energy =                       -271.1754943839576981
  Basis Set: 6-31G*
  Basis Set:
  Charge       = 0
  Multiplicity = 1
  Basis Set: 6-31G*
  Basis Set:

    Orbital Energies (a.u.)
    -----------------------

    Doubly Occupied:

       1A    -20.546943     2A    -11.281272     3A    -11.260503
       4A    -11.208671     5A    -11.208652     6A    -11.203212
       7A     -1.370126     8A     -1.073046     9A     -0.945746
      10A     -0.939782    11A     -0.912435    12A     -0.752333
      13A     -0.655204    14A     -0.644269    15A     -0.637298
      16A     -0.593104    17A     -0.574925    18A     -0.552659
      19A     -0.534049    20A     -0.523727    21A     -0.514577
      22A     -0.486974    23A     -0.486607    24A     -0.438833
      25A     -0.404704

  @DF-RHF Final Energy:  -271.17549567871129

   => Energetics <=

    Nuclear Repulsion Energy =            272.2851292862278569
    One-Electron Energy =                -907.4219468903853567
    Two-Electron Energy =                 363.9613219254459295
    DFT Exchange-Correlation Energy =       0.0000000000000000
    Empirical Dispersion Energy =           0.0000000000000000
    PCM Polarization Energy =               0.0000000000000000
    EFP Energy =                            0.0000000000000000
    Total Energy =                       -271.1754956787115702
    Molecular point group: c1
  Basis Set: 6-31G*
  Basis Set:

  -Total Gradient:
     Atom            X                  Y                   Z
    ------   -----------------  -----------------  -----------------
       1       -0.000006026190    -0.000002891272     0.000000819480
       2       -0.000004837998    -0.000000212073     0.000002821301
       3        0.000008678995    -0.000001564047    -0.000004836783
       4       -0.000003473050    -0.000000794757     0.000006059778
       5       -0.000007033819     0.000000333614     0.000000092311
       6        0.000004135920    -0.000007927170     0.000006588399
       7        0.000002557723     0.000006696798    -0.000010040483
       8        0.000003828542    -0.000000151255     0.000003916440
       9        0.000000535922     0.000003415359    -0.000002503257
      10        0.000001082906    -0.000000836509     0.000001618342
      11       -0.000005495421     0.000003411160     0.000000464267
      12        0.000002912319    -0.000001038097    -0.000004855387
      13       -0.000000148873    -0.000000135235     0.000000563595
      14        0.000002174035     0.000001028201    -0.000000604618
      15        0.000001082967     0.000000695144     0.000000463370
      16        0.000001383663    -0.000001526136    -0.000000937127
      17       -0.000001343145     0.000001354273     0.000000424739
      18       -0.000000014495     0.000000142004    -0.000000054372

  **** Optimization is complete! (in 8 steps) ****
    Final optimized geometry and variables:
    Molecular point group: c1

    Geometry (in Angstrom), charge = 0, multiplicity = 1:

    H           -1.485251466012    -0.045545148622     1.881905754635
    C           -1.357330022735    -0.886682206367     1.207158348499
    O           -0.107410578939    -0.889702928662     0.590328061369
    H           -2.173638920837    -0.885288560714     0.491063339526
    H           -1.416506752000    -1.798200986536     1.786769629619
    C            0.264324898957     0.191252181273    -0.246289108011
    C            1.668387563140    -0.182203484729    -0.716528239776
    C           -0.676102103170     0.307330890069    -1.450130365475
    C            0.308588613641     1.506919818911     0.537418511580
    H            1.645065682289    -1.126852557792    -1.248027496477
    H            2.330445846682    -0.291413048579     0.135025674156
    H            2.074599170805     0.577343982902    -1.376638705559
    H           -0.757533358079    -0.648672873090    -1.956542355819
    H           -0.293682504481     1.036459914257    -2.157023106870
    H           -1.671885865515     0.626810080047    -1.162165595986
    H            0.919169984312     1.393666235262     1.427018516978
    H            0.738281526191     2.294180963953    -0.073445442194
    H           -0.679439483980     1.835602585715     0.841302309566

  Mulliken Charges: (a.u.)
   Center  Symbol    Alpha    Beta     Spin     Total
       1     H     0.42943  0.42943  0.00000  0.14114
       2     C     3.07974  3.07974  0.00000 -0.15947
       3     O     4.31842  4.31842  0.00000 -0.63684
       4     H     0.42942  0.42942  0.00000  0.14115
       5     H     0.41283  0.41283  0.00000  0.17435
       6     C     2.84224  2.84224  0.00000  0.31552
       7     C     3.23301  3.23301  0.00000 -0.46603
       8     C     3.24760  3.24760  0.00000 -0.49520
       9     C     3.24758  3.24758  0.00000 -0.49516
      10     H     0.41411  0.41411  0.00000  0.17177
      11     H     0.41412  0.41412  0.00000  0.17176
      12     H     0.42513  0.42513  0.00000  0.14975
      13     H     0.41330  0.41330  0.00000  0.17339
      14     H     0.41964  0.41964  0.00000  0.16072
      15     H     0.42024  0.42024  0.00000  0.15953
      16     H     0.41330  0.41330  0.00000  0.17339
      17     H     0.41965  0.41965  0.00000  0.16071
      18     H     0.42024  0.42024  0.00000  0.15952

   Total alpha = 25.00000, Total beta = 25.00000, Total charge =  0.00000
