  ==> Input File <==

--------------------------------------------------------------------------
set {
	reference rhf
	basis 6-31G*
}

set_num_threads( 4 )
memory 2 gb

molecule MOL {
0 1

H	 0.357553	 -3.097690	 1.812386
O	 0.801768	 -2.460209	 1.261889
C	 -0.002652	 -1.407452	 1.116878
C	 0.624473	 -0.343591	 0.253101
O	 -1.075120	 -1.357583	 1.625150
C	 -0.265902	 0.883932	 0.072916
H	 1.579587	 -0.092652	 0.702724
H	 0.858375	 -0.802932	 -0.704003
C	 -1.728698	 0.646073	 0.462102
H	 -0.209144	 1.219470	 -0.958188
H	 0.135059	 1.692851	 0.673903
C	 -2.482460	 -0.343073	 -0.431425
H	 -2.245265	 1.602650	 0.432430
H	 -1.779332	 0.308348	 1.496285
C	 -3.960546	 -0.461025	 -0.060175
H	 -2.395034	 -0.026811	 -1.468912
H	 -2.024850	 -1.327147	 -0.371646
H	 -4.472726	 -1.168004	 -0.705284
H	 -4.465146	 0.496508	 -0.151489
H	 -4.081218	 -0.800940	 0.964585

	symmetry c1
}
set optking {
	frozen_dihedral = ("
		7 4 6 10
	")
}

ee = optimize('scf')
oeprop('DIPOLE', 'QUADRUPOLE', 'MULLIKEN_CHARGES')
f=open( 'psi4out.xyz', 'w' )
f.write( "20  " )
f.write( str(ee) + "\n" )
f.write( MOL.save_string_xyz() )
f.close()
--------------------------------------------------------------------------

    Molecular point group: c1
  Charge       = 0
  Multiplicity = 1
  Basis Set: 6-31G*
  Basis Set:
  @DF-RHF Final Energy:  -383.91263454803936
    Total Energy =                       -383.9126345480393638
    Molecular point group: c1
  Basis Set: 6-31G*
  Basis Set:
  Basis Set: 6-31G*
  Basis Set:
  @DF-RHF Final Energy:  -383.92677528635278
    Total Energy =                       -383.9267752863527221
  Basis Set: 6-31G*
  Basis Set:
  Basis Set: 6-31G*
  Basis Set:
  @DF-RHF Final Energy:  -383.93410959378554
    Total Energy =                       -383.9341095937854789
  Basis Set: 6-31G*
  Basis Set:
  Basis Set: 6-31G*
  Basis Set:
  @DF-RHF Final Energy:  -383.93405184644052
    Total Energy =                       -383.9340518464405250
  Basis Set: 6-31G*
  Basis Set:
  @DF-RHF Final Energy:  -383.93719148347526
    Total Energy =                       -383.9371914834755444
  @DF-RHF Final Energy:  -383.93784885520432
    Total Energy =                       -383.9378488552044928
  @DF-RHF Final Energy:  -383.93816643656612
    Total Energy =                       -383.9381664365661209
  @DF-RHF Final Energy:  -383.93861297040928
    Total Energy =                       -383.9386129704085988
  @DF-RHF Final Energy:  -383.93918006345933
    Total Energy =                       -383.9391800634590481
  @DF-RHF Final Energy:  -383.93947531448930
    Total Energy =                       -383.9394753144895276
  @DF-RHF Final Energy:  -383.93998744255794
    Total Energy =                       -383.9399874425574808
  @DF-RHF Final Energy:  -383.94028641773616
    Total Energy =                       -383.9402864177360470
  @DF-RHF Final Energy:  -383.94043363520024
    Total Energy =                       -383.9404336352002929
  @DF-RHF Final Energy:  -383.94054936555807
    Total Energy =                       -383.9405493655581267
  Basis Set: 6-31G*
  Basis Set:
  @DF-RHF Final Energy:  -383.94059549096863
    Total Energy =                       -383.9405954909686898
  Basis Set: 6-31G*
  Basis Set:
  Basis Set: 6-31G*
  Basis Set:
  @DF-RHF Final Energy:  -383.94060412097497
    Total Energy =                       -383.9406041209749674
  Basis Set: 6-31G*
  Basis Set:
  Basis Set: 6-31G*
  Basis Set:
  @DF-RHF Final Energy:  -383.94060726446980
    Total Energy =                       -383.9406072644695769
  Basis Set: 6-31G*
  Basis Set:
  Charge       = 0
  Multiplicity = 1
  Basis Set: 6-31G*
  Basis Set:

    Orbital Energies (a.u.)
    -----------------------

    Doubly Occupied:

       1A    -20.615549     2A    -20.548940     3A    -11.381833
       4A    -11.240641     5A    -11.230381     6A    -11.217133
       7A    -11.214088     8A    -11.208936     9A     -1.475747
      10A     -1.365062    11A     -1.092502    12A     -1.036700
      13A     -0.959195    14A     -0.871863    15A     -0.815008
      16A     -0.778136    17A     -0.702812    18A     -0.680320
      19A     -0.659430    20A     -0.634131    21A     -0.607874
      22A     -0.589318    23A     -0.575202    24A     -0.556481
      25A     -0.537042    26A     -0.512485    27A     -0.499111
      28A     -0.480116    29A     -0.468024    30A     -0.463645
      31A     -0.454454    32A     -0.435206

  @DF-RHF Final Energy:  -383.94060760692594

   => Energetics <=

    Nuclear Repulsion Energy =            393.8294935708639741
    One-Electron Energy =               -1303.7254662956406719
    Two-Electron Energy =                 525.9553651178509881
    DFT Exchange-Correlation Energy =       0.0000000000000000
    Empirical Dispersion Energy =           0.0000000000000000
    PCM Polarization Energy =               0.0000000000000000
    EFP Energy =                            0.0000000000000000
    Total Energy =                       -383.9406076069257097
    Molecular point group: c1
  Basis Set: 6-31G*
  Basis Set:

  -Total Gradient:
     Atom            X                  Y                   Z
    ------   -----------------  -----------------  -----------------
       1        0.000005862402     0.000015221516    -0.000000544522
       2       -0.000007005962     0.000003282789    -0.000002916164
       3        0.000009802103    -0.000019637551    -0.000068136058
       4        0.001830084421     0.000318800006    -0.007520137280
       5       -0.000000986839    -0.000025948074     0.000071172524
       6        0.005260396802     0.004535346371     0.002880404807
       7       -0.002297858345    -0.000935916042     0.005935405270
       8        0.000004762779     0.000003367607     0.000002488545
       9       -0.000038267749     0.000022542229    -0.000004412105
      10       -0.004811642272    -0.003943207240    -0.001309963032
      11       -0.000023866123     0.000002643791     0.000000839682
      12        0.000034085536     0.000046975228     0.000013717903
      13        0.000003634778    -0.000001308188     0.000008627230
      14       -0.000001114212     0.000020540569    -0.000018147833
      15        0.000016287588    -0.000005777912     0.000019339530
      16        0.000001609692    -0.000011876632    -0.000006789743
      17        0.000001577830    -0.000030162392     0.000002284665
      18        0.000006545358     0.000000042709    -0.000001375641
      19        0.000003429749     0.000000881485    -0.000005263128
      20        0.000002662460     0.000004189733     0.000003405342

  **** Optimization is complete! (in 18 steps) ****
    Final optimized geometry and variables:
    Molecular point group: c1

    Geometry (in Angstrom), charge = 0, multiplicity = 1:

    H            0.934410586272    -2.564666906849     0.904435882417
    O            1.190590628630    -1.970020483027     0.205644302785
    C            1.143497827470    -0.728550494603     0.684881176553
    C            1.593545242413     0.305190153621    -0.320279868773
    O            0.820061887065    -0.500632399421     1.806503207794
    C            0.646910835716     1.522600422717    -0.494649314267
    H            2.532686946660     0.653366619200     0.100112193302
    H            1.798365543259    -0.183847377913    -1.261355551657
    C           -0.839271875185     1.305824963747    -0.173872106038
    H            0.694273311008     1.810733101699    -1.540788115792
    H            1.015772798864     2.351971517115     0.095862978157
    C           -1.533568727596     0.289114543266    -1.085108834920
    H           -1.337172273476     2.266569323937    -0.286125550217
    H           -0.960915475995     1.017430385971     0.863546466180
    C           -3.019720922113     0.132827066930    -0.764221217209
    H           -1.418913417480     0.599744206816    -2.121993439792
    H           -1.051010012525    -0.681921451896    -1.006350294562
    H           -3.491288211379    -0.587692415318    -1.425289162822
    H           -3.545476043028     1.077040451632    -0.874501024639
    H           -3.165101455118    -0.208357238162     0.256585270744

  Mulliken Charges: (a.u.)
   Center  Symbol    Alpha    Beta     Spin     Total
       1     H     0.26832  0.26832  0.00000  0.46336
       2     O     4.34877  4.34877  0.00000 -0.69754
       3     C     2.62693  2.62693  0.00000  0.74615
       4     C     3.21342  3.21342  0.00000 -0.42684
       5     O     4.28066  4.28066  0.00000 -0.56131
       6     C     3.15132  3.15132  0.00000 -0.30263
       7     H     0.39572  0.39572  0.00000  0.20856
       8     H     0.39645  0.39645  0.00000  0.20710
       9     C     3.16836  3.16836  0.00000 -0.33672
      10     H     0.41666  0.41666  0.00000  0.16668
      11     H     0.41021  0.41021  0.00000  0.17958
      12     C     3.15820  3.15820  0.00000 -0.31640
      13     H     0.42050  0.42050  0.00000  0.15899
      14     H     0.40169  0.40169  0.00000  0.19662
      15     C     3.23913  3.23913  0.00000 -0.47826
      16     H     0.42390  0.42390  0.00000  0.15219
      17     H     0.41993  0.41993  0.00000  0.16014
      18     H     0.41933  0.41933  0.00000  0.16134
      19     H     0.42149  0.42149  0.00000  0.15702
      20     H     0.41901  0.41901  0.00000  0.16198

   Total alpha = 32.00000, Total beta = 32.00000, Total charge =  0.00000
