  ==> Input File <==

--------------------------------------------------------------------------
set {
	reference rhf
	basis cc-pvtz
}

set_num_threads( 4 )
memory 2 gb

molecule MOL {
0 1

H	 -3.293883	 0.569065	 -0.092876
C	 -2.245682	 0.343163	 -0.073952
C	 -1.809116	 -0.973849	 -0.047090
C	 -1.312019	 1.353186	 -0.075897
H	 -2.523207	 -1.775474	 -0.045150
C	 -0.467090	 -1.267783	 -0.022789
H	 -1.630578	 2.378264	 -0.096492
C	 0.047345	 1.073996	 -0.051570
H	 -0.119358	 -2.281843	 -0.001935
C	 0.471955	 -0.241707	 -0.024903
H	 0.748557	 1.882549	 -0.053806
O	 1.760432	 -0.625184	 0.000000
C	 2.773565	 0.334879	 0.000000
H	 2.728295	 0.960928	 -0.884150
H	 3.706387	 -0.206610	 0.000000
H	 2.728295	 0.960928	 0.884150

	symmetry c1
}
set optking {
	frozen_dihedral = ("
		10 12 13 14
	")
}

ee = optimize('scf')
oeprop('DIPOLE', 'QUADRUPOLE', 'MULLIKEN_CHARGES')
f=open( 'psi4out.xyz', 'w' )
f.write( "16  " )
f.write( str(ee) + "\n" )
f.write( MOL.save_string_xyz() )
f.close()
--------------------------------------------------------------------------

    Molecular point group: c1
  Charge       = 0
  Multiplicity = 1
  Basis Set: CC-PVTZ
  Basis Set:
  @DF-RHF Final Energy:  -344.70375104468872
    Total Energy =                       -344.7037510446886586
    Molecular point group: c1
  Basis Set: CC-PVTZ
  Basis Set:
  Basis Set: CC-PVTZ
  Basis Set:
  @DF-RHF Final Energy:  -344.70375385270393
    Total Energy =                       -344.7037538527037555
  Basis Set: CC-PVTZ
  Basis Set:
  Charge       = 0
  Multiplicity = 1
  Basis Set: CC-PVTZ
  Basis Set:

    Orbital Energies (a.u.)
    -----------------------

    Doubly Occupied:

       1A    -20.580698     2A    -11.293790     3A    -11.278596
       4A    -11.231227     5A    -11.229987     6A    -11.221802
       7A    -11.217963     8A    -11.216840     9A     -1.420199
      10A     -1.150943    11A     -1.025821    12A     -1.016632
      13A     -0.944437    14A     -0.834520    15A     -0.808295
      16A     -0.726444    17A     -0.667844    18A     -0.666357
      19A     -0.661201    20A     -0.619493    21A     -0.590118
      22A     -0.579375    23A     -0.528270    24A     -0.523845
      25A     -0.512491    26A     -0.478740    27A     -0.467921
      28A     -0.339782    29A     -0.309948

  @DF-RHF Final Energy:  -344.70375429237481

   => Energetics <=

    Nuclear Repulsion Energy =            348.9194482368390027
    One-Electron Energy =               -1158.9592486742785695
    Two-Electron Energy =                 465.3360461450646426
    DFT Exchange-Correlation Energy =       0.0000000000000000
    Empirical Dispersion Energy =           0.0000000000000000
    PCM Polarization Energy =               0.0000000000000000
    EFP Energy =                            0.0000000000000000
    Total Energy =                       -344.7037542923749243
    Molecular point group: c1
  Basis Set: CC-PVTZ
  Basis Set:

  -Total Gradient:
     Atom            X                  Y                   Z
    ------   -----------------  -----------------  -----------------
       1       -0.000000646837     0.000000600861    -0.000004666279
       2       -0.000000652830    -0.000017645421     0.000001498728
       3       -0.000009683861     0.000014756786     0.000005843400
       4        0.000019414507     0.000000560185     0.000003300585
       5        0.000000998075    -0.000001938600     0.000000055048
       6        0.000015693094     0.000004050770    -0.000006231316
       7        0.000000652512    -0.000000000590    -0.000001653445
       8       -0.000009446357     0.000003463112    -0.000014946072
       9       -0.000001315345    -0.000000596002     0.000004536706
      10        0.000012284630    -0.000011636643    -0.000141342652
      11        0.000006372067     0.000003016123     0.000012109463
      12       -0.000033349759     0.000023363920     0.000234138737
      13        0.000137414802    -0.000166543492    -0.000197455758
      14       -0.000108634422     0.000125147772     0.000105319983
      15       -0.000023120754    -0.000015420350    -0.000004265608
      16       -0.000005979519     0.000038821566     0.000003758480

  **** Optimization is complete! (in 3 steps) ****
    Final optimized geometry and variables:
    Molecular point group: c1

    Geometry (in Angstrom), charge = 0, multiplicity = 1:

    H           -3.294148904964     0.569002882419    -0.064628050713
    C           -2.245944101940     0.343340925739    -0.042560185281
    C           -1.809214199179    -0.973650213798    -0.016620849258
    C           -1.312522399387     1.353473289977    -0.039356292430
    H           -2.523180484797    -1.775396711943    -0.018535100616
    C           -0.467278191323    -1.267376930839     0.011349433979
    H           -1.631167118741     2.378551923881    -0.058741199470
    C            0.046831567541     1.074490880869    -0.011014761762
    H           -0.119362155385    -2.281397075674     0.031435419541
    C            0.471627228796    -0.241130653551     0.014061571138
    H            0.747764430018     1.883277281263    -0.008208880246
    O            1.760018821432    -0.624797596820     0.043315415477
    C            2.773776419500     0.334614439301     0.029669011820
    H            2.728430566578     0.948710786141    -0.862734974983
    H            3.706306221031    -0.207244067549     0.037791824789
    H            2.728356735944     0.973462097221     0.904763511751

  Mulliken Charges: (a.u.)
   Center  Symbol    Alpha    Beta     Spin     Total
       1     H     0.42442  0.42442  0.00000  0.15116
       2     C     3.10100  3.10100  0.00000 -0.20199
       3     C     3.05793  3.05793  0.00000 -0.11586
       4     C     3.06155  3.06155  0.00000 -0.12310
       5     H     0.42300  0.42300  0.00000  0.15399
       6     C     3.11174  3.11174  0.00000 -0.22348
       7     H     0.42366  0.42366  0.00000  0.15268
       8     C     3.14417  3.14417  0.00000 -0.28833
       9     H     0.42101  0.42101  0.00000  0.15798
      10     C     2.84992  2.84992  0.00000  0.30017
      11     H     0.42255  0.42255  0.00000  0.15491
      12     O     4.15066  4.15066  0.00000 -0.30131
      13     C     3.04489  3.04489  0.00000 -0.08977
      14     H     0.46250  0.46250  0.00000  0.07500
      15     H     0.43871  0.43871  0.00000  0.12258
      16     H     0.46231  0.46231  0.00000  0.07537

   Total alpha = 29.00000, Total beta = 29.00000, Total charge = -0.00000
