  ==> Input File <==

--------------------------------------------------------------------------
set {
	reference rhf
	basis 6-31G*
}

set_num_threads( 4 )
memory 2 gb

molecule MOL {
0 1

H	 3.302813	 -0.412604	 -0.007183
C	 2.242278	 -0.234601	 -0.005639
C	 1.374735	 -1.238217	 0.407863
C	 1.749736	 0.993107	 -0.415657
H	 1.764733	 -2.188505	 0.724691
C	 0.012195	 -1.012966	 0.411081
H	 2.423865	 1.767009	 -0.734831
C	 0.382604	 1.217838	 -0.411968
H	 -0.674983	 -1.775320	 0.726918
C	 -0.488460	 0.219100	 0.000000
H	 -0.006335	 2.170100	 -0.729570
C	 -1.949954	 0.470334	 0.000000
O	 -2.781584	 -0.381627	 0.000000
H	 -2.238022	 1.526388	 0.000000

	symmetry c1
}
set optking {
	frozen_dihedral = ("
		8 10 12 14
	")
}

ee = optimize('scf')
oeprop('DIPOLE', 'QUADRUPOLE', 'MULLIKEN_CHARGES')
f=open( 'psi4out.xyz', 'w' )
f.write( "14  " )
f.write( str(ee) + "\n" )
f.write( MOL.save_string_xyz() )
f.close()
--------------------------------------------------------------------------

    Molecular point group: c1
  Charge       = 0
  Multiplicity = 1
  Basis Set: 6-31G*
  Basis Set:
  @DF-RHF Final Energy:  -343.43142508873643
    Total Energy =                       -343.4314250887363755
    Molecular point group: c1
  Basis Set: 6-31G*
  Basis Set:
  Basis Set: 6-31G*
  Basis Set:
  @DF-RHF Final Energy:  -343.42928848097949
    Total Energy =                       -343.4292884809795510
  Basis Set: 6-31G*
  Basis Set:
  Basis Set: 6-31G*
  Basis Set:
  @DF-RHF Final Energy:  -343.43163010642439
    Total Energy =                       -343.4316301064243362
  Basis Set: 6-31G*
  Basis Set:
  Basis Set: 6-31G*
  Basis Set:
  @DF-RHF Final Energy:  -343.43167104894775
    Total Energy =                       -343.4316710489480329
  Basis Set: 6-31G*
  Basis Set:
  Charge       = 0
  Multiplicity = 1
  Basis Set: 6-31G*
  Basis Set:

    Orbital Energies (a.u.)
    -----------------------

    Doubly Occupied:

       1A    -20.562715     2A    -11.331486     3A    -11.253894
       4A    -11.250811     5A    -11.247509     6A    -11.245993
       7A    -11.245009     8A    -11.243121     9A     -1.403263
      10A     -1.170962    11A     -1.047017    12A     -1.031321
      13A     -0.889130    14A     -0.843659    15A     -0.790995
      16A     -0.720789    17A     -0.677532    18A     -0.651544
      19A     -0.619335    20A     -0.616637    21A     -0.602367
      22A     -0.552781    23A     -0.526161    24A     -0.506404
      25A     -0.501504    26A     -0.421706    27A     -0.349722
      28A     -0.346625

  @DF-RHF Final Energy:  -343.43167146772595

   => Energetics <=

    Nuclear Repulsion Energy =            323.2212659363221405
    One-Electron Energy =               -1106.0058895246656903
    Two-Electron Energy =                 439.3529521206177151
    DFT Exchange-Correlation Energy =       0.0000000000000000
    Empirical Dispersion Energy =           0.0000000000000000
    PCM Polarization Energy =               0.0000000000000000
    EFP Energy =                            0.0000000000000000
    Total Energy =                       -343.4316714677257778
    Molecular point group: c1
  Basis Set: 6-31G*
  Basis Set:

  -Total Gradient:
     Atom            X                  Y                   Z
    ------   -----------------  -----------------  -----------------
       1       -0.000001080112    -0.000005777880    -0.000024865414
       2        0.000001310593     0.000006549063     0.000073021191
       3        0.000021041368     0.000023835717     0.000047265706
       4       -0.000018268941    -0.000009283446    -0.000060664145
       5       -0.000000960684    -0.000000466260    -0.000003917382
       6       -0.000016997410    -0.000028158041    -0.000126963231
       7        0.000004666729     0.000001789824     0.000010620409
       8       -0.000093539344    -0.001130629253    -0.002937971031
       9        0.000002150358     0.000018597511     0.000036631720
      10        0.000116336518     0.001677256133     0.005549044308
      11       -0.000001771435    -0.000004184774     0.000001775618
      12        0.000057869520    -0.000627210363    -0.006423823802
      13        0.000000273649    -0.000013270980    -0.000001319689
      14       -0.000071030801     0.000090952752     0.003861165742

  **** Optimization is complete! (in 5 steps) ****
    Final optimized geometry and variables:
    Molecular point group: c1

    Geometry (in Angstrom), charge = 0, multiplicity = 1:

    H            3.301055161046    -0.417389312996    -0.019466947826
    C            2.241073036737    -0.236204970856    -0.012297964436
    C            1.372239819467    -1.237565155471     0.403659167731
    C            1.749734065052     0.992464120125    -0.420532886600
    H            1.760527147619    -2.189864225319     0.716509198818
    C            0.009805141533    -1.010615564506     0.407300279629
    H            2.423841536531     1.762714666066    -0.748523985741
    C            0.383737084628     1.224273328507    -0.402168132788
    H           -0.678207172931    -1.777036481341     0.711268478769
    C           -0.487977534943     0.229060700143     0.016837223253
    H           -0.003202878732     2.179598504904    -0.713351513456
    C           -1.952188773439     0.468535516939    -0.018540561451
    O           -2.774979512135    -0.390546873453     0.025864217558
    H           -2.251153770024     1.520922263463    -0.050403133981

  Mulliken Charges: (a.u.)
   Center  Symbol    Alpha    Beta     Spin     Total
       1     H     0.39424  0.39424  0.00000  0.21151
       2     C     3.09156  3.09156  0.00000 -0.18313
       3     C     3.10417  3.10417  0.00000 -0.20833
       4     C     3.10403  3.10403  0.00000 -0.20807
       5     H     0.39403  0.39403  0.00000  0.21194
       6     C     3.08800  3.08800  0.00000 -0.17601
       7     H     0.39475  0.39475  0.00000  0.21049
       8     C     3.10211  3.10211  0.00000 -0.20423
       9     H     0.37834  0.37834  0.00000  0.24332
      10     C     3.05189  3.05189  0.00000 -0.10379
      11     H     0.39283  0.39283  0.00000  0.21433
      12     C     2.83425  2.83425  0.00000  0.33150
      13     O     4.24615  4.24615  0.00000 -0.49229
      14     H     0.42363  0.42363  0.00000  0.15274

   Total alpha = 28.00000, Total beta = 28.00000, Total charge = -0.00000
