                              Psi4 1.0.54 Driver

  ==> Input File <==

--------------------------------------------------------------------------
set {
	reference rhf
	basis cc-pvtz
}

set_num_threads( 4 )
memory 2 gb

molecule MOL {
0 1

H	 -3.034039	 -0.667848	 0.004703
O	 -2.240597	 -1.171748	 0.000934
C	 -1.159675	 -0.364500	 0.000370
C	 -1.098781	 0.791509	 0.751601
C	 -0.088361	 -0.738749	 -0.796046
H	 -1.928882	 1.084550	 1.368139
C	 0.044995	 1.569276	 0.696074
H	 -0.168650	 -1.641946	 -1.369391
C	 1.052341	 0.036776	 -0.848391
H	 0.094934	 2.470954	 1.276810
C	 1.112109	 1.203631	 -0.092835
C	 2.226721	 -0.382550	 -1.696118
H	 1.990687	 1.819609	 -0.126476
H	 2.638924	 0.462021	 -2.234273
H	 1.942983	 -1.137257	 -2.416990
H	 3.017098	 -0.793602	 -1.077263

	symmetry c1
}
set optking {
	frozen_dihedral = ("
		5 3 2 1
	")
}

ee,wfn = optimize('scf', return_wfn=True)
oeprop( wfn, 'DIPOLE', 'QUADRUPOLE', 'MULLIKEN_CHARGES')
f=open( 'psi4out.xyz', 'w' )
f.write( "16  " )
f.write( str(ee) + "\n" )
f.write( MOL.save_string_xyz() )
f.close()
--------------------------------------------------------------------------

    Molecular point group: c1
  Charge       = 0
  Multiplicity = 1
  Basis Set: CC-PVTZ
  Basis Set:
  @DF-RHF Final Energy:  -344.71864303446017
    Total Energy =                       -344.7186430344601149
    Molecular point group: c1
  Basis Set: CC-PVTZ
  Basis Set:
  Basis Set: CC-PVTZ
  Basis Set:
  @DF-RHF Final Energy:  -344.71875160640445
    Total Energy =                       -344.7187516064041120
  Basis Set: CC-PVTZ
  Basis Set:
  Basis Set: CC-PVTZ
  Basis Set:
  @DF-RHF Final Energy:  -344.71876739988937
    Total Energy =                       -344.7187673998890887
  Basis Set: CC-PVTZ
  Basis Set:
  Basis Set: CC-PVTZ
  Basis Set:
  @DF-RHF Final Energy:  -344.71876949537534
    Total Energy =                       -344.7187694953752271
  Basis Set: CC-PVTZ
  Basis Set:
  Charge       = 0
  Multiplicity = 1
  Basis Set: CC-PVTZ
  Basis Set:

    Orbital Energies (a.u.)
    -----------------------

    Doubly Occupied:

       1A    -20.576829     2A    -11.291520     3A    -11.240406
       4A    -11.232312     5A    -11.219930     6A    -11.219486
       7A    -11.215422     8A    -11.215375     9A     -1.405839
      10A     -1.154475    11A     -1.046435    12A     -1.008214
      13A     -0.938703    14A     -0.827507    15A     -0.822387
      16A     -0.718067    17A     -0.682723    18A     -0.658139
      19A     -0.618710    20A     -0.594795    21A     -0.576340
      22A     -0.571056    23A     -0.557176    24A     -0.526634
      25A     -0.506995    26A     -0.485203    27A     -0.470825
      28A     -0.333253    29A     -0.315503

  @DF-RHF Final Energy:  -344.71877029554508

   => Energetics <=

    Nuclear Repulsion Energy =            346.1599695414805069
    One-Electron Energy =               -1153.6969591717715957
    Two-Electron Energy =                 462.8182193347458906
    DFT Exchange-Correlation Energy =       0.0000000000000000
    Empirical Dispersion Energy =           0.0000000000000000
    PCM Polarization Energy =               0.0000000000000000
    EFP Energy =                            0.0000000000000000
    Total Energy =                       -344.7187702955452551
    Molecular point group: c1
  Basis Set: CC-PVTZ
  Basis Set:

  -Total Gradient:
     Atom            X                  Y                   Z
    ------   -----------------  -----------------  -----------------
       1       -0.000060253905     0.000004445614    -0.002826894312
       2       -0.000400362114     0.000389826174     0.002754864541
       3        0.001343116236    -0.001314796888     0.001639120418
       4       -0.000062252806    -0.000105517923     0.000012405440
       5       -0.000849809505     0.001012107321    -0.001594744433
       6       -0.000011174963     0.000002281775     0.000006547103
       7        0.000075679734     0.000053040274    -0.000067432153
       8        0.000006581063    -0.000005102359     0.000014203293
       9       -0.000022550707    -0.000084978682    -0.000011187859
      10        0.000006086431    -0.000016010747    -0.000001029998
      11       -0.000039871231     0.000035651164     0.000074487338
      12       -0.000008878215     0.000013332005     0.000011279113
      13        0.000018732609    -0.000002438209    -0.000003187688
      14       -0.000001443732     0.000007176077    -0.000020165164
      15        0.000000752597    -0.000009466660     0.000007656109
      16        0.000005648505     0.000020451059     0.000004078251

  **** Optimization is complete! (in 5 steps) ****
    Final optimized geometry and variables:
    Molecular point group: c1

    Geometry (in Angstrom), charge = 0, multiplicity = 1:

    H           -2.973412707297    -0.760633691788     0.311840890901
    O           -2.179256143275    -1.263677847430     0.297543693419
    C           -1.095257521863    -0.446830160909     0.269048767076
    C           -1.037483660991     0.710104505885     1.019174937539
    C           -0.032636056931    -0.811810634789    -0.538845324345
    H           -1.861672028248     0.986162626085     1.649956113949
    C            0.097965059930     1.497233165300     0.951729442957
    H           -0.115436830236    -1.712153939709    -1.116340637168
    C            1.109063436429    -0.034002392530    -0.594811805912
    H            0.148075228917     2.400386699784     1.530047805097
    C            1.163797563733     1.132935037082     0.157513248822
    C            2.279993443701    -0.447706784702    -1.450177350601
    H            2.038934431073     1.753863356212     0.118701824728
    H            2.693640748203     0.400487225409    -1.981493098483
    H            1.991682224918    -1.194431227532    -2.177667979294
    H            3.070830132896    -0.868202498131    -0.838226402601

  Mulliken Charges: (a.u.)
   Center  Symbol    Alpha    Beta     Spin     Total
       1     H     0.38556  0.38556  0.00000  0.22888
       2     O     4.18368  4.18368  0.00000 -0.36737
       3     C     2.84943  2.84943  0.00000  0.30114
       4     C     3.13982  3.13982  0.00000 -0.27963
       5     C     3.13940  3.13940  0.00000 -0.27879
       6     H     0.42738  0.42738  0.00000  0.14524
       7     C     3.05880  3.05880  0.00000 -0.11759
       8     H     0.42047  0.42047  0.00000  0.15907
       9     C     2.93898  2.93898  0.00000  0.12204
      10     H     0.42281  0.42281  0.00000  0.15439
      11     C     3.11433  3.11433  0.00000 -0.22867
      12     C     3.14606  3.14606  0.00000 -0.29211
      13     H     0.42752  0.42752  0.00000  0.14497
      14     H     0.44873  0.44873  0.00000  0.10254
      15     H     0.45038  0.45038  0.00000  0.09923
      16     H     0.44666  0.44666  0.00000  0.10668

   Total alpha = 29.00000, Total beta = 29.00000, Total charge =  0.00000

*** Psi4 exiting successfully. Buy a developer a beer!
