  ==> Input File <==

--------------------------------------------------------------------------
set {
	reference rhf
	basis cc-pvtz
}

set_num_threads( 4 )
memory 2 gb

molecule MOL {
0 1

O	 -2.071633	 -1.227563	 -0.223463
C	 -1.652164	 -0.152425	 0.058082
C	 -0.327811	 0.006324	 0.778296
C	 -2.402515	 1.108629	 -0.298924
C	 0.843231	 -0.001575	 -0.211665
H	 -0.319484	 0.928173	 1.350354
H	 -0.227804	 -0.823091	 1.466705
C	 2.197693	 0.138030	 0.476937
H	 0.722944	 0.805202	 -0.930230
H	 0.813976	 -0.926978	 -0.776588
C	 3.369067	 -0.165147	 -0.451035
H	 2.299839	 1.145626	 0.870433
H	 2.232677	 -0.529550	 1.332888
H	 3.381475	 0.510048	 -1.300148
H	 3.311120	 -1.177663	 -0.835511
H	 4.315143	 -0.061537	 0.067237
H	 -3.240910	 0.874416	 -0.936711
H	 -1.747554	 1.818823	 -0.790984
H	 -2.760419	 1.579708	 0.610998

	symmetry c1
}
set optking {
	frozen_dihedral = ("
		11 8 5 9
	")
}

ee = optimize('scf')
oeprop('DIPOLE', 'QUADRUPOLE', 'MULLIKEN_CHARGES')
f=open( 'psi4out.xyz', 'w' )
f.write( "19  " )
f.write( str(ee) + "\n" )
f.write( MOL.save_string_xyz() )
f.close()
--------------------------------------------------------------------------

    Molecular point group: c1
  Charge       = 0
  Multiplicity = 1
  Basis Set: CC-PVTZ
  Basis Set:
  @DF-RHF Final Energy:  -309.17681613755246
    Total Energy =                       -309.1768161375522368
    Molecular point group: c1
  Basis Set: CC-PVTZ
  Basis Set:
  Basis Set: CC-PVTZ
  Basis Set:
  @DF-RHF Final Energy:  -309.17678116271594
    Total Energy =                       -309.1767811627158835
  Basis Set: CC-PVTZ
  Basis Set:
  Basis Set: CC-PVTZ
  Basis Set:
  @DF-RHF Final Energy:  -309.17685978762887
    Total Energy =                       -309.1768597876288140
  Basis Set: CC-PVTZ
  Basis Set:
  Basis Set: CC-PVTZ
  Basis Set:
  @DF-RHF Final Energy:  -309.17686572814500
    Total Energy =                       -309.1768657281451169
  Basis Set: CC-PVTZ
  Basis Set:
  Basis Set: CC-PVTZ
  Basis Set:
  @DF-RHF Final Energy:  -309.17682316113928
    Total Energy =                       -309.1768231611394526
  Basis Set: CC-PVTZ
  Basis Set:
  Basis Set: CC-PVTZ
  Basis Set:
  @DF-RHF Final Energy:  -309.17688755566570
    Total Energy =                       -309.1768875556653597
  Basis Set: CC-PVTZ
  Basis Set:
  Charge       = 0
  Multiplicity = 1
  Basis Set: CC-PVTZ
  Basis Set:

    Orbital Energies (a.u.)
    -----------------------

    Doubly Occupied:

       1A    -20.536909     2A    -11.319399     3A    -11.228913
       4A    -11.227806     5A    -11.227037     6A    -11.223124
       7A    -11.213038     8A     -1.397016     9A     -1.092812
      10A     -1.030385    11A     -0.984640    12A     -0.890867
      13A     -0.807340    14A     -0.734617    15A     -0.664550
      16A     -0.649040    17A     -0.624243    18A     -0.615066
      19A     -0.582784    20A     -0.576741    21A     -0.551769
      22A     -0.538075    23A     -0.516320    24A     -0.499725
      25A     -0.482760    26A     -0.477531    27A     -0.469583
      28A     -0.399151

  @DF-RHF Final Energy:  -309.17688797527251

   => Energetics <=

    Nuclear Repulsion Energy =            301.8581061335046343
    One-Electron Energy =               -1016.9475070952191800
    Two-Electron Energy =                 405.9125129864423229
    DFT Exchange-Correlation Energy =       0.0000000000000000
    Empirical Dispersion Energy =           0.0000000000000000
    PCM Polarization Energy =               0.0000000000000000
    EFP Energy =                            0.0000000000000000
    Total Energy =                       -309.1768879752722228
    Molecular point group: c1
  Basis Set: CC-PVTZ
  Basis Set:

  -Total Gradient:
     Atom            X                  Y                   Z
    ------   -----------------  -----------------  -----------------
       1        0.000009017046     0.000004932286    -0.000010409769
       2       -0.000019187513    -0.000003505822     0.000024622853
       3        0.000014914150    -0.000005674242    -0.000004176465
       4       -0.000001960547    -0.000001971619     0.000004498007
       5        0.001219551306    -0.002218286011    -0.001853835716
       6       -0.000001196318    -0.000002149733    -0.000002339552
       7       -0.000009384181    -0.000002368986     0.000005145306
       8       -0.000185009563     0.002538262681    -0.000255941908
       9       -0.000999798866     0.001319611022     0.001630874213
      10        0.000011904535     0.000004594133     0.000018453154
      11       -0.000037127640    -0.001621741346     0.000449283437
      12       -0.000004911169    -0.000004595853    -0.000004188121
      13       -0.000008365097    -0.000007551483     0.000004203090
      14        0.000000580543    -0.000008323368    -0.000009065355
      15        0.000007010957    -0.000003560899     0.000012426981
      16       -0.000003961012     0.000011661936    -0.000000816972
      17        0.000001613941    -0.000000293366    -0.000001501604
      18        0.000002556597     0.000000721435    -0.000003977042
      19        0.000003752829     0.000000239234    -0.000003254535

  **** Optimization is complete! (in 7 steps) ****
    Final optimized geometry and variables:
    Molecular point group: c1

    Geometry (in Angstrom), charge = 0, multiplicity = 1:

    O           -2.088033433978    -1.176438941460    -0.230361022474
    C           -1.654296526483    -0.106856888884     0.050948017537
    C           -0.327611113543     0.034130502337     0.770187777409
    C           -2.388664642849     1.163765057777    -0.305522999173
    C            0.842885457341     0.014746946143    -0.221904746955
    H           -0.307547042393     0.954876871507     1.344096913895
    H           -0.236798598368    -0.797670471977     1.456736191523
    C            2.195669547613     0.179263518822     0.467329794051
    H            0.710610153879     0.817355027843    -0.942824829104
    H            0.816285125471    -0.918675465696    -0.772389995948
    C            3.373331919837    -0.107249113787    -0.458183330261
    H            2.277120826688     1.185171891227     0.868593588785
    H            2.245142015403    -0.493915944746     1.318435496985
    H            3.364175325211     0.547961338459    -1.323168831361
    H            3.343071466126    -1.129464031246    -0.818594115222
    H            4.317354832816     0.036403083096     0.054327466596
    H           -3.228038902288     0.940728522963    -0.946028098531
    H           -1.724530612510     1.867887223295    -0.793909593159
    H           -2.743822475093     1.636418586475     0.604685603365

  Mulliken Charges: (a.u.)
   Center  Symbol    Alpha    Beta     Spin     Total
       1     O     4.17766  4.17766  0.00000 -0.35532
       2     C     2.85816  2.85816  0.00000  0.28368
       3     C     3.09862  3.09862  0.00000 -0.19724
       4     C     3.15499  3.15499  0.00000 -0.30999
       5     C     3.09713  3.09713  0.00000 -0.19426
       6     H     0.44956  0.44956  0.00000  0.10087
       7     H     0.43900  0.43900  0.00000  0.12200
       8     C     3.08626  3.08626  0.00000 -0.17251
       9     H     0.45214  0.45214  0.00000  0.09573
      10     H     0.44149  0.44149  0.00000  0.11701
      11     C     3.14874  3.14874  0.00000 -0.29749
      12     H     0.45281  0.45281  0.00000  0.09439
      13     H     0.45299  0.45299  0.00000  0.09402
      14     H     0.45497  0.45497  0.00000  0.09006
      15     H     0.45251  0.45251  0.00000  0.09499
      16     H     0.44766  0.44766  0.00000  0.10469
      17     H     0.43602  0.43602  0.00000  0.12795
      18     H     0.45098  0.45098  0.00000  0.09804
      19     H     0.44830  0.44830  0.00000  0.10340

   Total alpha = 28.00000, Total beta = 28.00000, Total charge =  0.00000
