  ==> Input File <==

--------------------------------------------------------------------------
set {
	reference rhf
	basis 6-31G*
}

set_num_threads( 4 )
memory 2 gb

molecule MOL {
0 1

H	 2.926858	 1.506421	 -0.891112
C	 2.211186	 1.305486	 -0.102210
C	 1.322923	 0.120767	 -0.479465
H	 2.768289	 1.108680	 0.808437
H	 1.624659	 2.206225	 0.050262
C	 0.306652	 -0.176050	 0.621399
H	 1.930249	 -0.763265	 -0.643994
H	 0.790672	 0.327584	 -1.400441
N	 -1.068537	 -0.011044	 0.085269
H	 0.372515	 -1.192590	 0.973735
H	 0.391664	 0.520566	 1.441230
O	 -1.656956	 -0.997225	 -0.235017
O	 -1.478635	 1.104830	 -0.018026

	symmetry c1
}
set optking {
	frozen_dihedral = ("
		7 3 6 9
	")
}

ee = optimize('scf')
oeprop('DIPOLE', 'QUADRUPOLE', 'MULLIKEN_CHARGES')
f=open( 'psi4out.xyz', 'w' )
f.write( "13  " )
f.write( str(ee) + "\n" )
f.write( MOL.save_string_xyz() )
f.close()
--------------------------------------------------------------------------

    Molecular point group: c1
  Charge       = 0
  Multiplicity = 1
  Basis Set: 6-31G*
  Basis Set:
  @DF-RHF Final Energy:  -321.72961773894269
    Total Energy =                       -321.7296177389425225
    Molecular point group: c1
  Basis Set: 6-31G*
  Basis Set:
  Basis Set: 6-31G*
  Basis Set:
  @DF-RHF Final Energy:  -321.72341810718046
    Total Energy =                       -321.7234181071804642
  Basis Set: 6-31G*
  Basis Set:
  Basis Set: 6-31G*
  Basis Set:
  @DF-RHF Final Energy:  -321.72361939634504
    Total Energy =                       -321.7236193963451569
  Basis Set: 6-31G*
  Basis Set:
  Basis Set: 6-31G*
  Basis Set:
  @DF-RHF Final Energy:  -321.72861243344738
    Total Energy =                       -321.7286124334474380
  Basis Set: 6-31G*
  Basis Set:
  @DF-RHF Final Energy:  -321.72954130779704
    Total Energy =                       -321.7295413077971489
  @DF-RHF Final Energy:  -321.73014568397218
    Total Energy =                       -321.7301456839721823
  @DF-RHF Final Energy:  -321.73019771963061
    Total Energy =                       -321.7301977196304392
  @DF-RHF Final Energy:  -321.73024150890285
    Total Energy =                       -321.7302415089027363
  Basis Set: 6-31G*
  Basis Set:
  @DF-RHF Final Energy:  -321.73026492425328
    Total Energy =                       -321.7302649242532766
  Basis Set: 6-31G*
  Basis Set:
  Basis Set: 6-31G*
  Basis Set:
  @DF-RHF Final Energy:  -321.73026849677751
    Total Energy =                       -321.7302684967773416
  Basis Set: 6-31G*
  Basis Set:
  Basis Set: 6-31G*
  Basis Set:
  @DF-RHF Final Energy:  -321.73027713560452
    Total Energy =                       -321.7302771356044104
  Basis Set: 6-31G*
  Basis Set:
  Charge       = 0
  Multiplicity = 1
  Basis Set: 6-31G*
  Basis Set:

    Orbital Energies (a.u.)
    -----------------------

    Doubly Occupied:

       1A    -20.604040     2A    -20.598802     3A    -15.847968
       4A    -11.300137     5A    -11.254359     6A    -11.233429
       7A     -1.631472     8A     -1.416878     9A     -1.130736
      10A     -1.025720    11A     -0.885383    12A     -0.830090
      13A     -0.761311    14A     -0.735074    15A     -0.722957
      16A     -0.657553    17A     -0.613573    18A     -0.587358
      19A     -0.540557    20A     -0.518247    21A     -0.511960
      22A     -0.482723    23A     -0.474101    24A     -0.448815

  @DF-RHF Final Energy:  -321.73027806572941

   => Energetics <=

    Nuclear Repulsion Energy =            248.5495657460394057
    One-Electron Energy =                -930.9332005373485117
    Two-Electron Energy =                 360.6533567255797266
    DFT Exchange-Correlation Energy =       0.0000000000000000
    Empirical Dispersion Energy =           0.0000000000000000
    PCM Polarization Energy =               0.0000000000000000
    EFP Energy =                            0.0000000000000000
    Total Energy =                       -321.7302780657293511
    Molecular point group: c1
  Basis Set: 6-31G*
  Basis Set:

  -Total Gradient:
     Atom            X                  Y                   Z
    ------   -----------------  -----------------  -----------------
       1        0.000003482486     0.000004208391    -0.000013764744
       2        0.000013723059     0.000031103671     0.000032086701
       3        0.000824754742     0.000023616673     0.000742531890
       4        0.000001644273     0.000012648018    -0.000019294110
       5        0.000008822996     0.000011248533     0.000033107065
       6       -0.000152481463     0.000923920430     0.000159051132
       7       -0.000664828832    -0.000266311159    -0.000744898299
       8        0.000024789017    -0.000036552116     0.000024106756
       9        0.000004645459    -0.000832556187    -0.000113639972
      10        0.000004744767    -0.000010115746     0.000007488495
      11       -0.000023104817    -0.000003028301     0.000000076340
      12        0.000026236283     0.000060410780    -0.000040759335
      13       -0.000072427964     0.000081407011    -0.000066091917

  **** Optimization is complete! (in 12 steps) ****
    Final optimized geometry and variables:
    Molecular point group: c1

    Geometry (in Angstrom), charge = 0, multiplicity = 1:

    H            3.056476265417     1.330582042416    -0.840853231581
    C            2.332153247628     1.107306190343    -0.065352576083
    C            1.444771375454    -0.064844901383    -0.480451682097
    H            2.880100864486     0.886169883376     0.845988145405
    H            1.735848443613     1.997296000099     0.104696919606
    C            0.405616772812    -0.440548324793     0.591336865440
    H            2.050554470169    -0.938794372644    -0.691437713021
    H            0.931536786892     0.184300802655    -1.400035657982
    N           -0.987741050802    -0.257417333201     0.099787351668
    H            0.466079208957    -1.468756122197     0.904456874149
    H            0.469592921948     0.203807669314     1.457266793677
    O           -1.732375810456    -1.182536379534     0.189549904075
    O           -1.271076813283     0.818039256147    -0.335019717308

  Mulliken Charges: (a.u.)
   Center  Symbol    Alpha    Beta     Spin     Total
       1     H     0.41107  0.41107  0.00000  0.17786
       2     C     3.24735  3.24735  0.00000 -0.49469
       3     C     3.17284  3.17284  0.00000 -0.34567
       4     H     0.41868  0.41868  0.00000  0.16263
       5     H     0.40732  0.40732  0.00000  0.18536
       6     C     3.09147  3.09147  0.00000 -0.18294
       7     H     0.40748  0.40748  0.00000  0.18504
       8     H     0.39268  0.39268  0.00000  0.21464
       9     N     3.22451  3.22451  0.00000  0.55097
      10     H     0.38317  0.38317  0.00000  0.23366
      11     H     0.38537  0.38537  0.00000  0.22926
      12     O     4.22641  4.22641  0.00000 -0.45282
      13     O     4.23165  4.23165  0.00000 -0.46329

   Total alpha = 24.00000, Total beta = 24.00000, Total charge =  0.00000
