  ==> Input File <==

--------------------------------------------------------------------------
set {
	reference rhf
	basis cc-pvtz
}

set_num_threads( 4 )
memory 2 gb

molecule MOL {
0 1

H	 -2.413922	 1.021787	 2.232841
C	 -2.113969	 0.016135	 1.947228
O	 -0.842774	 0.004024	 1.389146
H	 -2.092996	 -0.604520	 2.831103
H	 -2.857064	 -0.381712	 1.258451
C	 -0.718530	 0.758693	 0.228682
C	 0.718529	 0.758687	 -0.228709
H	 -1.340615	 0.339840	 -0.562230
H	 -1.039193	 1.783985	 0.400091
O	 1.401606	 -0.295166	 0.366636
H	 0.748705	 0.673477	 -1.312803
H	 1.176496	 1.708671	 0.046552
C	 2.714315	 -0.441627	 -0.061017
H	 2.765292	 -0.641548	 -1.128869
H	 3.305661	 0.447341	 0.150952
H	 3.143725	 -1.278506	 0.470147

	symmetry c1
}
set optking {
	frozen_dihedral = ("
		3 6 7 11
	")
}

ee = optimize('scf')
oeprop('DIPOLE', 'QUADRUPOLE', 'MULLIKEN_CHARGES')
f=open( 'psi4out.xyz', 'w' )
f.write( "16  " )
f.write( str(ee) + "\n" )
f.write( MOL.save_string_xyz() )
f.close()
--------------------------------------------------------------------------

    Molecular point group: c1
  Charge       = 0
  Multiplicity = 1
  Basis Set: CC-PVTZ
  Basis Set:
  @DF-RHF Final Energy:  -307.08537796309560
    Total Energy =                       -307.0853779630955387
    Molecular point group: c1
  Basis Set: CC-PVTZ
  Basis Set:
  Basis Set: CC-PVTZ
  Basis Set:
  @DF-RHF Final Energy:  -307.08622553515391
    Total Energy =                       -307.0862255351540853
  Basis Set: CC-PVTZ
  Basis Set:
  Basis Set: CC-PVTZ
  Basis Set:
  @DF-RHF Final Energy:  -307.08694118147554
    Total Energy =                       -307.0869411814756518
  Basis Set: CC-PVTZ
  Basis Set:
  Basis Set: CC-PVTZ
  Basis Set:
  @DF-RHF Final Energy:  -307.08695597610716
    Total Energy =                       -307.0869559761071059
  Basis Set: CC-PVTZ
  Basis Set:
  Charge       = 0
  Multiplicity = 1
  Basis Set: CC-PVTZ
  Basis Set:

    Orbital Energies (a.u.)
    -----------------------

    Doubly Occupied:

       1A    -20.545783     2A    -20.544693     3A    -11.269883
       4A    -11.269283     5A    -11.260515     6A    -11.260067
       7A     -1.392345     8A     -1.371393     9A     -1.025834
      10A     -0.934341    11A     -0.896627    12A     -0.819294
      13A     -0.690692    14A     -0.674789    15A     -0.659867
      16A     -0.646637    17A     -0.618463    18A     -0.592521
      19A     -0.573388    20A     -0.519564    21A     -0.508150
      22A     -0.470296    23A     -0.469350    24A     -0.425384
      25A     -0.403214

  @DF-RHF Final Energy:  -307.08695669351602

   => Energetics <=

    Nuclear Repulsion Energy =            260.1488844287273992
    One-Electron Energy =                -934.7869365239043873
    Two-Electron Energy =                 367.5510954016609730
    DFT Exchange-Correlation Energy =       0.0000000000000000
    Empirical Dispersion Energy =           0.0000000000000000
    PCM Polarization Energy =               0.0000000000000000
    EFP Energy =                            0.0000000000000000
    Total Energy =                       -307.0869566935160719
    Molecular point group: c1
  Basis Set: CC-PVTZ
  Basis Set:

  -Total Gradient:
     Atom            X                  Y                   Z
    ------   -----------------  -----------------  -----------------
       1        0.000001554046    -0.000000785174     0.000002876906
       2        0.000008106211     0.000012261662    -0.000011443725
       3       -0.001100616983    -0.004953393143    -0.003049431540
       4        0.000003966813    -0.000003445807    -0.000000674078
       5       -0.000007850310    -0.000006387935    -0.000002102151
       6        0.001481479143     0.004980757927     0.004235173734
       7       -0.000515495805     0.007290808728    -0.001911036672
       8        0.000015721001     0.000004412084    -0.000002970291
       9        0.000010390194    -0.000020525882     0.000026822367
      10       -0.000068653125     0.000053210759    -0.000048839606
      11        0.000186703896    -0.007378019931     0.000784768969
      12       -0.000027316003     0.000026780356    -0.000015211048
      13        0.000032138801    -0.000015628707    -0.000027172238
      14       -0.000001222370    -0.000000520923     0.000005802855
      15       -0.000006099725     0.000004644656     0.000007285361
      16       -0.000012805782     0.000005831330     0.000006151160

  **** Optimization is complete! (in 5 steps) ****
    Final optimized geometry and variables:
    Molecular point group: c1

    Geometry (in Angstrom), charge = 0, multiplicity = 1:

    H           -2.712656074984     0.905865778833     1.554830619603
    C           -2.357790887044    -0.097019500565     1.324533894671
    O           -1.058700253576    -0.082107174639     0.837079717625
    H           -2.362054869032    -0.683926920062     2.231290790924
    H           -3.045935746721    -0.548411429314     0.612251727847
    C           -0.911875862240     0.628228640577    -0.343165969162
    C            0.542390453270     0.611486973669    -0.832430594479
    H           -1.550796888471     0.186752645691    -1.106838378964
    H           -1.232353446139     1.661508663963    -0.218346102422
    O            1.232196306304    -0.464256898145    -0.288264285120
    H            0.535500874690     0.495017657147    -1.914900880073
    H            1.043833826462     1.543065225269    -0.580732620363
    C            2.546931494285    -0.562450181306    -0.719875877988
    H            2.606914866381    -0.697956598273    -1.798476809379
    H            3.122675479103     0.322168889066    -0.454149028990
    H            2.988698377125    -1.421778501793    -0.236961030028

  Mulliken Charges: (a.u.)
   Center  Symbol    Alpha    Beta     Spin     Total
       1     H     0.47320  0.47320  0.00000  0.05360
       2     C     3.03157  3.03157  0.00000 -0.06315
       3     O     4.15745  4.15745  0.00000 -0.31491
       4     H     0.44560  0.44560  0.00000  0.10880
       5     H     0.47300  0.47300  0.00000  0.05400
       6     C     2.96463  2.96463  0.00000  0.07074
       7     C     2.96605  2.96605  0.00000  0.06790
       8     H     0.47705  0.47705  0.00000  0.04591
       9     H     0.47705  0.47705  0.00000  0.04590
      10     O     4.15877  4.15877  0.00000 -0.31754
      11     H     0.47704  0.47704  0.00000  0.04593
      12     H     0.47443  0.47443  0.00000  0.05115
      13     C     3.03127  3.03127  0.00000 -0.06254
      14     H     0.47411  0.47411  0.00000  0.05178
      15     H     0.47304  0.47304  0.00000  0.05392
      16     H     0.44574  0.44574  0.00000  0.10851

   Total alpha = 25.00000, Total beta = 25.00000, Total charge = -0.00000
