                              Psi4 1.0.54 Driver

  ==> Input File <==

--------------------------------------------------------------------------
set {
	reference rhf
	basis cc-pvtz
}

set_num_threads( 4 )
memory 2 gb

molecule MOL {
0 1

H	 -3.113745	 -0.772503	 -0.814404
O	 -2.321472	 -0.864941	 -0.318626
C	 -2.021813	 0.336996	 0.342658
C	 -0.669613	 0.837286	 -0.127252
H	 -2.780861	 1.084746	 0.127159
H	 -2.006390	 0.184138	 1.420053
C	 0.490865	 -0.082543	 0.241244
H	 -0.708709	 0.967192	 -1.204587
H	 -0.507562	 1.822272	 0.303070
C	 1.839800	 0.429565	 -0.255472
H	 0.305636	 -1.070211	 -0.165276
H	 0.527397	 -0.195943	 1.322876
C	 3.001144	 -0.485193	 0.119072
H	 1.804373	 0.541073	 -1.335756
H	 2.020437	 1.423114	 0.146921
H	 2.866892	 -1.477297	 -0.298806
H	 3.943543	 -0.095749	 -0.249061
H	 3.085064	 -0.590459	 1.195790

	symmetry c1
}
set optking {
	frozen_dihedral = ("
		1 2 3 4
	")
}

ee,wfn = optimize('scf', return_wfn=True)
oeprop( wfn, 'DIPOLE', 'QUADRUPOLE', 'MULLIKEN_CHARGES')
f=open( 'psi4out.xyz', 'w' )
f.write( "18  " )
f.write( str(ee) + "\n" )
f.write( MOL.save_string_xyz() )
f.close()
--------------------------------------------------------------------------

    Molecular point group: c1
  Charge       = 0
  Multiplicity = 1
  Basis Set: CC-PVTZ
  Basis Set:
  @DF-RHF Final Energy:  -271.28465953152977
    Total Energy =                       -271.2846595315296554
    Molecular point group: c1
  Basis Set: CC-PVTZ
  Basis Set:
  Basis Set: CC-PVTZ
  Basis Set:
  @DF-RHF Final Energy:  -271.26392764218213
    Total Energy =                       -271.2639276421820114
  Basis Set: CC-PVTZ
  Basis Set:
  Basis Set: CC-PVTZ
  Basis Set:
  @DF-RHF Final Energy:  -271.28486397681399
    Total Energy =                       -271.2848639768138241
  Basis Set: CC-PVTZ
  Basis Set:
  Basis Set: CC-PVTZ
  Basis Set:
  @DF-RHF Final Energy:  -271.28512103409378
    Total Energy =                       -271.2851210340937200
  Basis Set: CC-PVTZ
  Basis Set:
  Basis Set: CC-PVTZ
  Basis Set:
  @DF-RHF Final Energy:  -271.28512491627657
    Total Energy =                       -271.2851249162764589
  Basis Set: CC-PVTZ
  Basis Set:
  Charge       = 0
  Multiplicity = 1
  Basis Set: CC-PVTZ
  Basis Set:

    Orbital Energies (a.u.)
    -----------------------

    Doubly Occupied:

       1A    -20.545087     2A    -11.266386     3A    -11.210370
       4A    -11.209415     5A    -11.204996     6A    -11.202768
       7A     -1.362630     8A     -1.076613     9A     -1.009962
      10A     -0.914740    11A     -0.821433    12A     -0.787542
      13A     -0.701074    14A     -0.650489    15A     -0.615489
      16A     -0.589283    17A     -0.576396    18A     -0.551820
      19A     -0.524874    20A     -0.510012    21A     -0.489728
      22A     -0.468358    23A     -0.459409    24A     -0.447749
      25A     -0.428877

  @DF-RHF Final Energy:  -271.28512510259520

   => Energetics <=

    Nuclear Repulsion Energy =            249.0419391177038904
    One-Electron Energy =                -861.4031263975243746
    Two-Electron Energy =                 341.0760621772251397
    DFT Exchange-Correlation Energy =       0.0000000000000000
    Empirical Dispersion Energy =           0.0000000000000000
    PCM Polarization Energy =               0.0000000000000000
    EFP Energy =                            0.0000000000000000
    Total Energy =                       -271.2851251025953161
    Molecular point group: c1
  Basis Set: CC-PVTZ
  Basis Set:

  -Total Gradient:
     Atom            X                  Y                   Z
    ------   -----------------  -----------------  -----------------
       1        0.000011383095    -0.000003622829    -0.000028090217
       2       -0.000017231088    -0.000011606199    -0.000003455259
       3        0.000016472166    -0.000005677497     0.000023830919
       4       -0.000016129264    -0.000003678301     0.000011449167
       5       -0.000005468185    -0.000002413438    -0.000010048038
       6        0.000019252089     0.000028768236     0.000003750095
       7       -0.000000046935     0.000013549702     0.000002041202
       8       -0.000005754579    -0.000001929427     0.000001561605
       9       -0.000003043641     0.000000173399     0.000005355138
      10        0.000005661617    -0.000010424615    -0.000002713646
      11        0.000002603131    -0.000006967337     0.000005173547
      12       -0.000006358825     0.000003830488     0.000002281996
      13        0.000000632605     0.000002919056    -0.000010072438
      14        0.000001129089     0.000003582296    -0.000008820677
      15       -0.000002158240     0.000000601971     0.000005002180
      16        0.000001309638    -0.000006491234    -0.000000574892
      17       -0.000000733860    -0.000002242888    -0.000000156274
      18       -0.000001518816     0.000001628615     0.000003485594

  **** Optimization is complete! (in 6 steps) ****
    Final optimized geometry and variables:
    Molecular point group: c1

    Geometry (in Angstrom), charge = 0, multiplicity = 1:

    H           -3.083852043891    -1.145104487363    -0.437402114971
    O           -2.273408971295    -1.068426480937     0.027103275231
    C           -2.023475057225     0.275159283559     0.365258902764
    C           -0.725685769739     0.765738695795    -0.253102610972
    H           -2.843955316404     0.906995901954     0.040149371865
    H           -1.969641909395     0.350082384065     1.447064214435
    C            0.504681666032     0.001524129329     0.226510034057
    H           -0.805303270856     0.691145463523    -1.334208934106
    H           -0.615645953668     1.821923793951    -0.017268564880
    C            1.799318042563     0.480525250081    -0.423786597016
    H            0.367031706570    -1.055125800794     0.026108236942
    H            0.587786111385     0.101658898365     1.306681876203
    C            3.028892884320    -0.280422843992     0.060751986286
    H            1.716634517287     0.379623019318    -1.502627616219
    H            1.932219397684     1.541313893119    -0.227097064353
    H            2.940686543476    -1.340532187012    -0.151989054889
    H            3.930368315247     0.080203640249    -0.421528438541
    H            3.160270547456    -0.170007461576     1.132118435618

  Mulliken Charges: (a.u.)
   Center  Symbol    Alpha    Beta     Spin     Total
       1     H     0.39228  0.39228  0.00000  0.21544
       2     O     4.20491  4.20491  0.00000 -0.40982
       3     C     2.97726  2.97726  0.00000  0.04548
       4     C     3.08300  3.08300  0.00000 -0.16601
       5     H     0.46442  0.46442  0.00000  0.07116
       6     H     0.46734  0.46734  0.00000  0.06532
       7     C     3.08936  3.08936  0.00000 -0.17872
       8     H     0.45827  0.45827  0.00000  0.08345
       9     H     0.45694  0.45694  0.00000  0.08612
      10     C     3.08314  3.08314  0.00000 -0.16627
      11     H     0.44439  0.44439  0.00000  0.11121
      12     H     0.45773  0.45773  0.00000  0.08453
      13     C     3.14967  3.14967  0.00000 -0.29935
      14     H     0.45489  0.45489  0.00000  0.09021
      15     H     0.45686  0.45686  0.00000  0.08628
      16     H     0.45438  0.45438  0.00000  0.09124
      17     H     0.44952  0.44952  0.00000  0.10096
      18     H     0.45563  0.45563  0.00000  0.08874

   Total alpha = 25.00000, Total beta = 25.00000, Total charge = -0.00000

*** Psi4 exiting successfully. Buy a developer a beer!
