                              Psi4 1.0.54 Driver

  ==> Input File <==

--------------------------------------------------------------------------
set {
	reference rhf
	basis cc-pvtz
}

set_num_threads( 4 )
memory 2 gb

molecule MOL {
0 1

H	 -2.266619	 1.169943	 0.000098
O	 -1.438073	 1.611259	 0.000041
C	 -0.408657	 0.734701	 0.000005
C	 -0.447107	 -0.273817	 0.944897
C	 0.645394	 0.830069	 -0.901102
H	 -1.277419	 -0.313294	 1.622359
C	 0.569885	 -1.203016	 1.002203
C	 1.653360	 -0.117055	 -0.820555
C	 0.685875	 1.931222	 -1.931649
H	 0.533300	 -1.983158	 1.738423
C	 1.628423	 -1.129614	 0.117590
H	 2.475026	 -0.057095	 -1.509930
H	 0.701182	 2.914709	 -1.470306
H	 1.573025	 1.849372	 -2.542964
H	 -0.170777	 1.890802	 -2.598610
H	 2.423067	 -1.848930	 0.156268

	symmetry c1
}
set optking {
	frozen_dihedral = ("
		4 3 2 1
	")
}

ee,wfn = optimize('scf', return_wfn=True)
oeprop( wfn, 'DIPOLE', 'QUADRUPOLE', 'MULLIKEN_CHARGES')
f=open( 'psi4out.xyz', 'w' )
f.write( "16  " )
f.write( str(ee) + "\n" )
f.write( MOL.save_string_xyz() )
f.close()
--------------------------------------------------------------------------

    Molecular point group: c1
  Charge       = 0
  Multiplicity = 1
  Basis Set: CC-PVTZ
  Basis Set:
  @DF-RHF Final Energy:  -344.71595353520462
    Total Energy =                       -344.7159535352044486
    Molecular point group: c1
  Basis Set: CC-PVTZ
  Basis Set:
  Basis Set: CC-PVTZ
  Basis Set:
  @DF-RHF Final Energy:  -344.71767115185207
    Total Energy =                       -344.7176711518517322
  Basis Set: CC-PVTZ
  Basis Set:
  Basis Set: CC-PVTZ
  Basis Set:
  @DF-RHF Final Energy:  -344.71778589380699
    Total Energy =                       -344.7177858938069903
  Basis Set: CC-PVTZ
  Basis Set:
  Basis Set: CC-PVTZ
  Basis Set:
  @DF-RHF Final Energy:  -344.71779394958457
    Total Energy =                       -344.7177939495846886
  Basis Set: CC-PVTZ
  Basis Set:
  Charge       = 0
  Multiplicity = 1
  Basis Set: CC-PVTZ
  Basis Set:

    Orbital Energies (a.u.)
    -----------------------

    Doubly Occupied:

       1A    -20.575311     2A    -11.286391     3A    -11.230792
       4A    -11.228070     5A    -11.225789     6A    -11.223694
       7A    -11.220164     8A    -11.214012     9A     -1.403258
      10A     -1.153144    11A     -1.047347    12A     -1.006503
      13A     -0.932722    14A     -0.841459    15A     -0.803894
      16A     -0.733226    17A     -0.672265    18A     -0.656705
      19A     -0.621004    20A     -0.595824    21A     -0.574950
      22A     -0.563594    23A     -0.543756    24A     -0.532139
      25A     -0.502317    26A     -0.486313    27A     -0.471900
      28A     -0.333356    29A     -0.315788

  @DF-RHF Final Energy:  -344.71779625950001

   => Energetics <=

    Nuclear Repulsion Energy =            350.6611220771376338
    One-Electron Energy =               -1162.7664607738136056
    Two-Electron Energy =                 467.3875424371757390
    DFT Exchange-Correlation Energy =       0.0000000000000000
    Empirical Dispersion Energy =           0.0000000000000000
    PCM Polarization Energy =               0.0000000000000000
    EFP Energy =                            0.0000000000000000
    Total Energy =                       -344.7177962595002327
    Molecular point group: c1
  Basis Set: CC-PVTZ
  Basis Set:

  -Total Gradient:
     Atom            X                  Y                   Z
    ------   -----------------  -----------------  -----------------
       1        0.000035204633    -0.000078649674    -0.002514684924
       2        0.000441160376     0.000648189971     0.003693628513
       3       -0.001314049595    -0.001667085789    -0.002356799128
       4        0.000898423471     0.001143109796     0.001111969468
       5       -0.000127150036     0.000124604151     0.000046109248
       6        0.000044915078    -0.000017488762    -0.000016530364
       7        0.000009812417    -0.000053598244     0.000020066871
       8        0.000009007366    -0.000136160431     0.000001380032
       9        0.000050858352     0.000035851896    -0.000050800420
      10        0.000038655696    -0.000029286231    -0.000002294249
      11        0.000019779478     0.000069279101    -0.000021342430
      12       -0.000011200557     0.000010527415     0.000007587401
      13       -0.000015827108     0.000007714213     0.000006975882
      14       -0.000037364189    -0.000027513127     0.000041252502
      15       -0.000020874536     0.000002295909    -0.000014298064
      16       -0.000021350852    -0.000031790191     0.000047779662

  **** Optimization is complete! (in 5 steps) ****
    Final optimized geometry and variables:
    Molecular point group: c1

    Geometry (in Angstrom), charge = 0, multiplicity = 1:

    H           -2.557649233232     0.896812205967     0.179024484043
    O           -1.707104473531     1.297409259444     0.167735636113
    C           -0.726379532151     0.351847090361     0.217052881439
    C           -0.754280725563    -0.645957620377     1.170182194143
    C            0.332023754084     0.462837997008    -0.676246263161
    H           -1.572587202484    -0.687266041220     1.864740311210
    C            0.267002052605    -1.575701366063     1.230498141833
    C            1.348577339195    -0.472246653990    -0.587854156815
    C            0.358999235378     1.570480630743    -1.696848637010
    H            0.236960838264    -2.353481973694     1.969338539528
    C            1.323908477093    -1.489344924985     0.349789931636
    H            2.175192672054    -0.405395720344    -1.270323846741
    H            0.358502972902     2.542542164234    -1.219134520872
    H            1.242333750081     1.495383359599    -2.316483850693
    H           -0.512701828009     1.531825150030    -2.338784962261
    H            2.125032043181    -2.201757363074     0.391260989943

  Mulliken Charges: (a.u.)
   Center  Symbol    Alpha    Beta     Spin     Total
       1     H     0.38479  0.38479  0.00000  0.23042
       2     O     4.18597  4.18597  0.00000 -0.37195
       3     C     2.87955  2.87955  0.00000  0.24090
       4     C     3.12160  3.12160  0.00000 -0.24321
       5     C     2.99326  2.99326  0.00000  0.01349
       6     H     0.42660  0.42660  0.00000  0.14680
       7     C     3.07465  3.07465  0.00000 -0.14930
       8     C     3.08888  3.08888  0.00000 -0.17775
       9     C     3.13938  3.13938  0.00000 -0.27876
      10     H     0.42251  0.42251  0.00000  0.15498
      11     C     3.08405  3.08405  0.00000 -0.16810
      12     H     0.42475  0.42475  0.00000  0.15051
      13     H     0.44527  0.44527  0.00000  0.10946
      14     H     0.45384  0.45384  0.00000  0.09231
      15     H     0.45044  0.45044  0.00000  0.09912
      16     H     0.42447  0.42447  0.00000  0.15107

   Total alpha = 29.00000, Total beta = 29.00000, Total charge = -0.00000

*** Psi4 exiting successfully. Buy a developer a beer!
