                              Psi4 1.0.54 Driver

  ==> Input File <==

--------------------------------------------------------------------------
set {
	reference rhf
	basis cc-pvtz
}

set_num_threads( 4 )
memory 2 gb

molecule MOL {
0 1

H	 3.060126	 -3.042166	 -2.684572
C	 2.953775	 -1.969658	 -2.799825
C	 1.659601	 -1.472617	 -2.164696
H	 3.816986	 -1.500443	 -2.340565
H	 2.981775	 -1.746643	 -3.861560
C	 1.470306	 0.034979	 -2.317314
H	 1.654720	 -1.732842	 -1.112462
H	 0.816068	 -1.987205	 -2.619091
C	 0.179823	 0.560351	 -1.696406
H	 2.311500	 0.552586	 -1.873125
H	 1.466754	 0.286123	 -3.374053
C	 0.166485	 0.574257	 -0.177158
H	 0.011898	 1.587836	 -2.009202
H	 -0.679553	 0.000360	 -2.053338
C	 -1.180025	 0.697761	 0.509157
O	 1.170493	 0.512207	 0.456398
C	 -2.285431	 -0.137488	 -0.145671
H	 -1.447360	 1.745713	 0.496200
H	 -1.065514	 0.394096	 1.546399
C	 -3.646545	 0.082747	 0.508954
H	 -2.348635	 0.118247	 -1.199806
H	 -2.034895	 -1.192387	 -0.096473
C	 -4.757412	 -0.737227	 -0.138149
H	 -3.900211	 1.137405	 0.459735
H	 -3.580878	 -0.166775	 1.564416
H	 -4.867876	 -0.486707	 -1.187777
H	 -4.549650	 -1.800049	 -0.072540
H	 -5.709585	 -0.556397	 0.346597

	symmetry c1
}
set optking {
	frozen_dihedral = ("
		16 12 15 17
	")
}

ee,wfn = optimize('scf', return_wfn=True)
oeprop( wfn, 'DIPOLE', 'QUADRUPOLE', 'MULLIKEN_CHARGES')
f=open( 'psi4out.xyz', 'w' )
f.write( "28  " )
f.write( str(ee) + "\n" )
f.write( MOL.save_string_xyz() )
f.close()
--------------------------------------------------------------------------

    Molecular point group: c1
  Charge       = 0
  Multiplicity = 1
  Basis Set: CC-PVTZ
  Basis Set:
  @DF-RHF Final Energy:  -426.31533237597421
    Total Energy =                       -426.3153323759743216
    Molecular point group: c1
  Basis Set: CC-PVTZ
  Basis Set:
  Basis Set: CC-PVTZ
  Basis Set:
  @DF-RHF Final Energy:  -426.26847880931984
    Total Energy =                       -426.2684788093195039
  Basis Set: CC-PVTZ
  Basis Set:
  Basis Set: CC-PVTZ
  Basis Set:
  @DF-RHF Final Energy:  -426.31460496393072
    Total Energy =                       -426.3146049639304920
  Basis Set: CC-PVTZ
  Basis Set:
  Basis Set: CC-PVTZ
  Basis Set:
  @DF-RHF Final Energy:  -426.30112413526376
    Total Energy =                       -426.3011241352642173
  Basis Set: CC-PVTZ
  Basis Set:
  @DF-RHF Final Energy:  -426.31752359343579
    Total Energy =                       -426.3175235934357943
  @DF-RHF Final Energy:  -426.31251982635729
    Total Energy =                       -426.3125198263568336
  @DF-RHF Final Energy:  -426.30729261617716
    Total Energy =                       -426.3072926161770511
  @DF-RHF Final Energy:  -426.31847261196310
    Total Energy =                       -426.3184726119634433
  @DF-RHF Final Energy:  -426.31874289193638
    Total Energy =                       -426.3187428919362674
  @DF-RHF Final Energy:  -426.31883169457353
    Total Energy =                       -426.3188316945731913
  Basis Set: CC-PVTZ
  Basis Set:
  @DF-RHF Final Energy:  -426.31888919800269
    Total Energy =                       -426.3188891980032622
  Basis Set: CC-PVTZ
  Basis Set:
  Basis Set: CC-PVTZ
  Basis Set:
  @DF-RHF Final Energy:  -426.31887885538958
    Total Energy =                       -426.3188788553893573
  Basis Set: CC-PVTZ
  Basis Set:
  Basis Set: CC-PVTZ
  Basis Set:
  @DF-RHF Final Energy:  -426.31889551464349
    Total Energy =                       -426.3188955146433727
  Basis Set: CC-PVTZ
  Basis Set:
  Charge       = 0
  Multiplicity = 1
  Basis Set: CC-PVTZ
  Basis Set:

    Orbital Energies (a.u.)
    -----------------------

    Doubly Occupied:

       1A    -20.536247     2A    -11.317448     3A    -11.229054
       4A    -11.228784     5A    -11.227618     6A    -11.223999
       7A    -11.214644     8A    -11.214286     9A    -11.208433
      10A    -11.202598    11A     -1.396738    12A     -1.096520
      13A     -1.077891    14A     -1.023432    15A     -0.991212
      16A     -0.908053    17A     -0.874735    18A     -0.809830
      19A     -0.800014    20A     -0.723401    21A     -0.670472
      22A     -0.655948    23A     -0.630548    24A     -0.620702
      25A     -0.609299    26A     -0.589120    27A     -0.579339
      28A     -0.571913    29A     -0.547077    30A     -0.526555
      31A     -0.525540    32A     -0.509451    33A     -0.498764
      34A     -0.486229    35A     -0.478717    36A     -0.475842
      37A     -0.470910    38A     -0.465325    39A     -0.457308
      40A     -0.394298

  @DF-RHF Final Energy:  -426.31889597365000

   => Energetics <=

    Nuclear Repulsion Energy =            533.0593669107307733
    One-Electron Energy =               -1634.6199474291472598
    Two-Electron Energy =                 675.2416845447669402
    DFT Exchange-Correlation Energy =       0.0000000000000000
    Empirical Dispersion Energy =           0.0000000000000000
    PCM Polarization Energy =               0.0000000000000000
    EFP Energy =                            0.0000000000000000
    Total Energy =                       -426.3188959736494326
    Molecular point group: c1
  Basis Set: CC-PVTZ
  Basis Set:

  -Total Gradient:
     Atom            X                  Y                   Z
    ------   -----------------  -----------------  -----------------
       1       -0.000004191988     0.000001330364    -0.000003324349
       2       -0.000011343004     0.000002812959    -0.000004761625
       3        0.000008288053    -0.000017333233     0.000033619400
       4        0.000001759485    -0.000002393411     0.000000940894
       5        0.000004844104     0.000003892100     0.000003030667
       6       -0.000004069960     0.000000912979     0.000003267552
       7        0.000004861081    -0.000003699921    -0.000003483930
       8       -0.000004324521    -0.000000186882     0.000001838963
       9       -0.000006179872    -0.000016610528    -0.000029072923
      10       -0.000001801275    -0.000000626995    -0.000006346435
      11        0.000005207780     0.000008316199     0.000004336332
      12       -0.000411148839    -0.000460104406    -0.000849609193
      13       -0.000002079085     0.000005536969     0.000002629013
      14       -0.000008314531     0.000011776715    -0.000000451495
      15        0.000248316578    -0.000732243501    -0.000098049609
      16        0.000269583150     0.000543472959     0.000692288962
      17       -0.000081519653     0.000650993113     0.000258631421
      18       -0.000004805833     0.000000413880    -0.000004570168
      19        0.000002332023    -0.000000979028     0.000002084264
      20       -0.000007581174     0.000000535328     0.000006806028
      21       -0.000005920430    -0.000019484764     0.000007022299
      22       -0.000008377140     0.000008773196     0.000014557197
      23       -0.000007856254     0.000002573332    -0.000006815306
      24        0.000010194936    -0.000001934716    -0.000018870850
      25        0.000008334628     0.000023465396    -0.000005865320
      26        0.000003250733    -0.000020391698     0.000004726071
      27       -0.000006706817     0.000007421199     0.000012454294
      28        0.000009247826     0.000003762397    -0.000017012155

  **** Optimization is complete! (in 14 steps) ****
    Final optimized geometry and variables:
    Molecular point group: c1

    Geometry (in Angstrom), charge = 0, multiplicity = 1:

    H            3.382183428467     0.738910536431    -3.859280028805
    C            3.197258305405     1.313966513663    -2.959268604847
    C            1.972084535275     0.793621233846    -2.215387266863
    H            4.084503939631     1.250548513040    -2.338676536879
    H            3.070509768715     2.351929376295    -3.250192246357
    C            1.670399705161     1.593243673903    -0.949555686178
    H            2.122730109040    -0.247107649021    -1.957346696890
    H            1.108548536432     0.833195524133    -2.875492785315
    C            0.447754061607     1.101319875870    -0.180661230694
    H            2.534007825272     1.574902385673    -0.295464259966
    H            1.503793395801     2.631611863411    -1.221764203592
    C            0.660480455595    -0.173442190949     0.614487521109
    H            0.114586808023     1.856177619366     0.528186915577
    H           -0.389566317921     0.950406964857    -0.854758278192
    C           -0.488845833670    -0.680600203910     1.469533123970
    O            1.707662071923    -0.735965473351     0.630716432859
    C           -1.881079507470    -0.649250376104     0.838167675943
    H           -0.490884980083    -0.070347175225     2.370848446052
    H           -0.227811564541    -1.685798987483     1.772143580295
    C           -2.938714356955    -1.278883002046     1.741088036856
    H           -2.170176327752     0.372472870265     0.616044609594
    H           -1.862875425324    -1.178917916315    -0.110946829120
    C           -4.335059592678    -1.254890273408     1.129121657613
    H           -2.952608351545    -0.756594582066     2.693752061041
    H           -2.657750233088    -2.304656035034     1.960152623200
    H           -4.659462162421    -0.238637074059     0.931717071000
    H           -4.360264894020    -1.797560099056     0.190157069534
    H           -5.060625795219    -1.709969006614     1.792941327596

  Mulliken Charges: (a.u.)
   Center  Symbol    Alpha    Beta     Spin     Total
       1     H     0.44874  0.44874  0.00000  0.10252
       2     C     3.15198  3.15198  0.00000 -0.30397
       3     C     3.08389  3.08389  0.00000 -0.16778
       4     H     0.45212  0.45212  0.00000  0.09576
       5     H     0.45745  0.45745  0.00000  0.08509
       6     C     3.08565  3.08565  0.00000 -0.17130
       7     H     0.44334  0.44334  0.00000  0.11332
       8     H     0.45940  0.45940  0.00000  0.08120
       9     C     3.13153  3.13153  0.00000 -0.26306
      10     H     0.44679  0.44679  0.00000  0.10641
      11     H     0.44809  0.44809  0.00000  0.10382
      12     C     2.87179  2.87179  0.00000  0.25643
      13     H     0.43465  0.43465  0.00000  0.13069
      14     H     0.44002  0.44002  0.00000  0.11996
      15     C     3.08721  3.08721  0.00000 -0.17442
      16     O     4.17769  4.17769  0.00000 -0.35538
      17     C     3.10241  3.10241  0.00000 -0.20483
      18     H     0.44737  0.44737  0.00000  0.10527
      19     H     0.43698  0.43698  0.00000  0.12604
      20     C     3.08737  3.08737  0.00000 -0.17473
      21     H     0.44977  0.44977  0.00000  0.10047
      22     H     0.44770  0.44770  0.00000  0.10459
      23     C     3.14922  3.14922  0.00000 -0.29844
      24     H     0.45328  0.45328  0.00000  0.09343
      25     H     0.44993  0.44993  0.00000  0.10015
      26     H     0.45512  0.45512  0.00000  0.08975
      27     H     0.45392  0.45392  0.00000  0.09216
      28     H     0.44658  0.44658  0.00000  0.10683

   Total alpha = 40.00000, Total beta = 40.00000, Total charge = -0.00000

*** Psi4 exiting successfully. Buy a developer a beer!
