  ==> Input File <==

--------------------------------------------------------------------------
set {
	reference rhf
	basis cc-pvtz
}

set_num_threads( 4 )
memory 2 gb

molecule MOL {
0 1

H	 -2.266619	 1.169943	 0.000098
O	 -1.438073	 1.611259	 0.000041
C	 -0.408657	 0.734701	 0.000005
C	 0.679464	 1.049216	 0.792773
C	 -0.428898	 -0.431568	 -0.755983
H	 0.656825	 1.958263	 1.361150
C	 1.764838	 0.200324	 0.840870
C	 0.675159	 -1.265845	 -0.688387
C	 -1.617098	 -0.773368	 -1.620596
H	 2.606024	 0.451028	 1.458554
C	 1.768734	 -0.964835	 0.098698
H	 0.674951	 -2.171085	 -1.266753
H	 -1.794623	 -0.016289	 -2.379303
H	 -1.458738	 -1.711101	 -2.133450
H	 -2.526124	 -0.875345	 -1.034424
H	 2.609533	 -1.629945	 0.131156

	symmetry c1
}
set optking {
	frozen_dihedral = ("
		4 3 2 1
	")
}

ee = optimize('scf')
oeprop('DIPOLE', 'QUADRUPOLE', 'MULLIKEN_CHARGES')
f=open( 'psi4out.xyz', 'w' )
f.write( "16  " )
f.write( str(ee) + "\n" )
f.write( MOL.save_string_xyz() )
f.close()
--------------------------------------------------------------------------

    Molecular point group: c1
  Charge       = 0
  Multiplicity = 1
  Basis Set: CC-PVTZ
  Basis Set:
  @DF-RHF Final Energy:  -344.71776340178030
    Total Energy =                       -344.7177634017802461
    Molecular point group: c1
  Basis Set: CC-PVTZ
  Basis Set:
  Basis Set: CC-PVTZ
  Basis Set:
  @DF-RHF Final Energy:  -344.71796825899810
    Total Energy =                       -344.7179682589984395
  Basis Set: CC-PVTZ
  Basis Set:
  Basis Set: CC-PVTZ
  Basis Set:
  @DF-RHF Final Energy:  -344.71800254045309
    Total Energy =                       -344.7180025404533126
  Basis Set: CC-PVTZ
  Basis Set:
  Basis Set: CC-PVTZ
  Basis Set:
  @DF-RHF Final Energy:  -344.71800810764813
    Total Energy =                       -344.7180081076480747
  Basis Set: CC-PVTZ
  Basis Set:
  Charge       = 0
  Multiplicity = 1
  Basis Set: CC-PVTZ
  Basis Set:

    Orbital Energies (a.u.)
    -----------------------

    Doubly Occupied:

       1A    -20.576815     2A    -11.287476     3A    -11.233940
       4A    -11.228260     5A    -11.227881     6A    -11.227107
       7A    -11.219502     8A    -11.219341     9A     -1.405346
      10A     -1.153657    11A     -1.050793    12A     -1.007725
      13A     -0.941398    14A     -0.828551    15A     -0.819850
      16A     -0.732768    17A     -0.678181    18A     -0.649984
      19A     -0.621753    20A     -0.598536    21A     -0.576234
      22A     -0.572719    23A     -0.553217    24A     -0.539757
      25A     -0.504632    26A     -0.487458    27A     -0.474132
      28A     -0.333436    29A     -0.314896

  @DF-RHF Final Energy:  -344.71800884654010

   => Energetics <=

    Nuclear Repulsion Energy =            350.8444531209760271
    One-Electron Energy =               -1162.9942347161290854
    Two-Electron Energy =                 467.4317727486129570
    DFT Exchange-Correlation Energy =       0.0000000000000000
    Empirical Dispersion Energy =           0.0000000000000000
    PCM Polarization Energy =               0.0000000000000000
    EFP Energy =                            0.0000000000000000
    Total Energy =                       -344.7180088465401013
    Molecular point group: c1
  Basis Set: CC-PVTZ
  Basis Set:

  -Total Gradient:
     Atom            X                  Y                   Z
    ------   -----------------  -----------------  -----------------
       1       -0.000021040837     0.000052824121     0.001910045685
       2       -0.000354638628    -0.000277125680    -0.001882411398
       3        0.001006638922     0.000804682408    -0.001112453086
       4       -0.000621772045    -0.000627383033     0.001082872667
       5       -0.000060069570     0.000036854889     0.000016578580
       6        0.000005478567    -0.000000744909    -0.000014619777
       7        0.000009533200     0.000000920967     0.000009328803
       8        0.000032100756    -0.000019689306     0.000040681048
       9        0.000031213027     0.000010600201    -0.000045794872
      10        0.000006469813    -0.000014355950    -0.000007647119
      11       -0.000009607892     0.000012270757    -0.000037480546
      12        0.000000045768     0.000012982945     0.000002425159
      13       -0.000010400826     0.000004173037    -0.000011302502
      14       -0.000004692629     0.000012428743     0.000024633515
      15       -0.000022341038    -0.000010601386     0.000010889890
      16        0.000013083415     0.000002162198     0.000014253955

  **** Optimization is complete! (in 5 steps) ****
    Final optimized geometry and variables:
    Molecular point group: c1

    Geometry (in Angstrom), charge = 0, multiplicity = 1:

    H           -2.309036121524     1.123217570653     0.153267717719
    O           -1.480548054708     1.567456414680     0.150750199751
    C           -0.448845206946     0.682064346564     0.186986936127
    C            0.637064716069     0.998679754673     0.977690896909
    C           -0.473787513469    -0.488101512900    -0.562941532281
    H            0.614464191824     1.909650067413     1.542970541250
    C            1.727007409146     0.152069537975     1.023977272360
    C            0.625820702879    -1.326378377013    -0.489719909340
    C           -1.661675441233    -0.820406102169    -1.429662562225
    H            2.571113082294     0.405093032472     1.636557535166
    C            1.723228754757    -1.017645554385     0.291682418660
    H            0.624801027539    -2.235190546360    -1.062280901578
    H           -1.879933042180    -0.016076527621    -2.122574662590
    H           -1.477930073811    -1.718025637706    -2.002987571429
    H           -2.557392333926    -0.994974529579    -0.838744654839
    H            2.563868599427    -1.683294831005     0.324929604069

  Mulliken Charges: (a.u.)
   Center  Symbol    Alpha    Beta     Spin     Total
       1     H     0.38530  0.38530  0.00000  0.22940
       2     O     4.18209  4.18209  0.00000 -0.36419
       3     C     2.87970  2.87970  0.00000  0.24061
       4     C     3.11062  3.11062  0.00000 -0.22123
       5     C     3.00409  3.00409  0.00000 -0.00817
       6     H     0.41840  0.41840  0.00000  0.16320
       7     C     3.06957  3.06957  0.00000 -0.13913
       8     C     3.08828  3.08828  0.00000 -0.17657
       9     C     3.15658  3.15658  0.00000 -0.31317
      10     H     0.42237  0.42237  0.00000  0.15525
      11     C     3.08600  3.08600  0.00000 -0.17200
      12     H     0.42526  0.42526  0.00000  0.14947
      13     H     0.44103  0.44103  0.00000  0.11794
      14     H     0.44826  0.44826  0.00000  0.10348
      15     H     0.45785  0.45785  0.00000  0.08431
      16     H     0.42460  0.42460  0.00000  0.15081

   Total alpha = 29.00000, Total beta = 29.00000, Total charge = -0.00000
