  ==> Input File <==

--------------------------------------------------------------------------
set {
	reference rhf
	basis 6-31G*
}

set_num_threads( 4 )
memory 2 gb

molecule MOL {
0 1

H	 2.873109	 0.360357	 0.426577
C	 1.951159	 -0.223429	 0.317018
C	 0.692068	 0.589600	 0.160137
O	 1.992055	 -1.411012	 0.327243
C	 -0.558097	 -0.297372	 0.091132
H	 0.791645	 1.202255	 -0.728243
H	 0.616171	 1.253469	 1.020572
C	 -1.850991	 0.512573	 -0.019058
H	 -0.476753	 -0.965681	 -0.762987
H	 -0.604799	 -0.930658	 0.975228
C	 -3.096943	 -0.368295	 -0.099594
H	 -1.800724	 1.150330	 -0.898172
H	 -1.931651	 1.177355	 0.838044
H	 -3.060452	 -1.020287	 -0.967456
H	 -3.996858	 0.233488	 -0.175704
H	 -3.191959	 -0.995686	 0.782074

	symmetry c1
}
set optking {
	frozen_dihedral = ("
		4 2 3 6
	")
}

ee = optimize('scf')
oeprop('DIPOLE', 'QUADRUPOLE', 'MULLIKEN_CHARGES')
f=open( 'psi4out.xyz', 'w' )
f.write( "16  " )
f.write( str(ee) + "\n" )
f.write( MOL.save_string_xyz() )
f.close()
--------------------------------------------------------------------------

    Molecular point group: c1
  Charge       = 0
  Multiplicity = 1
  Basis Set: 6-31G*
  Basis Set:
  @DF-RHF Final Energy:  -270.02085692886618
    Total Energy =                       -270.0208569288661806
    Molecular point group: c1
  Basis Set: 6-31G*
  Basis Set:
  Basis Set: 6-31G*
  Basis Set:
  @DF-RHF Final Energy:  -270.02133073361927
    Total Energy =                       -270.0213307336193793
  Basis Set: 6-31G*
  Basis Set:
  Basis Set: 6-31G*
  Basis Set:
  @DF-RHF Final Energy:  -270.02135410110668
    Total Energy =                       -270.0213541011068514
  Basis Set: 6-31G*
  Basis Set:
  Basis Set: 6-31G*
  Basis Set:
  @DF-RHF Final Energy:  -270.02141483285072
    Total Energy =                       -270.0214148328509509
  Basis Set: 6-31G*
  Basis Set:
  Basis Set: 6-31G*
  Basis Set:
  @DF-RHF Final Energy:  -270.02143081742088
    Total Energy =                       -270.0214308174206508
  Basis Set: 6-31G*
  Basis Set:
  Charge       = 0
  Multiplicity = 1
  Basis Set: 6-31G*
  Basis Set:

    Orbital Energies (a.u.)
    -----------------------

    Doubly Occupied:

       1A    -20.563926     2A    -11.328521     3A    -11.237594
       4A    -11.222565     5A    -11.221825     6A    -11.212296
       7A     -1.404122     8A     -1.088832     9A     -1.015410
      10A     -0.908621    11A     -0.814098    12A     -0.770855
      13A     -0.674684    14A     -0.656898    15A     -0.628790
      16A     -0.598157    17A     -0.585322    18A     -0.534192
      19A     -0.528503    20A     -0.495607    21A     -0.484805
      22A     -0.477700    23A     -0.472032    24A     -0.411405

  @DF-RHF Final Energy:  -270.02143173858241

   => Energetics <=

    Nuclear Repulsion Energy =            231.8151771547264275
    One-Electron Energy =                -824.9996930484148834
    Two-Electron Energy =                 323.1630841551061621
    DFT Exchange-Correlation Energy =       0.0000000000000000
    Empirical Dispersion Energy =           0.0000000000000000
    PCM Polarization Energy =               0.0000000000000000
    EFP Energy =                            0.0000000000000000
    Total Energy =                       -270.0214317385823506
    Molecular point group: c1
  Basis Set: 6-31G*
  Basis Set:

  -Total Gradient:
     Atom            X                  Y                   Z
    ------   -----------------  -----------------  -----------------
       1        0.000004094061    -0.000006656678     0.000014385620
       2       -0.000061051951    -0.000039837431     0.000470400024
       3        0.000148404522     0.000245074915     0.000128732995
       4        0.000039939616     0.000015779965    -0.000354049179
       5       -0.000020091981    -0.000003052146    -0.000115434410
       6       -0.000124731184    -0.000234421046    -0.000189484519
       7        0.000032853745     0.000026548585    -0.000024168342
       8       -0.000000704877    -0.000011767580     0.000034521808
       9       -0.000007385992     0.000001173133     0.000019320415
      10        0.000003175427    -0.000002844730     0.000010780743
      11       -0.000007169460     0.000008667582     0.000003616756
      12        0.000002258831    -0.000008363680    -0.000000760381
      13       -0.000010993645     0.000008769555    -0.000001768744
      14        0.000005963384     0.000002191747     0.000002517646
      15       -0.000003062646    -0.000000762163     0.000001295722
      16       -0.000001497855    -0.000000500024     0.000000093845

  **** Optimization is complete! (in 6 steps) ****
    Final optimized geometry and variables:
    Molecular point group: c1

    Geometry (in Angstrom), charge = 0, multiplicity = 1:

    H            3.016611329224     0.612539913262     0.290862465550
    C            2.114297741517    -0.000297390772     0.182878043630
    C            0.828488476266     0.776963056725     0.059764385085
    O            2.197702581058    -1.185542366132     0.162432077956
    C           -0.422094976842    -0.093279097145    -0.021736417084
    H            0.921430370102     1.410510624760    -0.822582433087
    H            0.778503353223     1.463125341142     0.904655221762
    C           -1.705016573636     0.729587935463    -0.148694279833
    H           -0.331503288149    -0.767785748639    -0.867400748577
    H           -0.475202604521    -0.723360715513     0.861127579116
    C           -2.958574618413    -0.140622042361    -0.228678678199
    H           -1.646507571176     1.359059258286    -1.034406069714
    H           -1.789181694643     1.405199595225     0.700188031000
    H           -2.920410039485    -0.803829904631    -1.087914719248
    H           -3.853280966128     0.467370593666    -0.318649870798
    H           -3.064451079169    -0.757094069371     0.659230718244

  Mulliken Charges: (a.u.)
   Center  Symbol    Alpha    Beta     Spin     Total
       1     H     0.42792  0.42792  0.00000  0.14416
       2     C     2.83376  2.83376  0.00000  0.33248
       3     C     3.21519  3.21519  0.00000 -0.43039
       4     O     4.23752  4.23752  0.00000 -0.47505
       5     C     3.14847  3.14847  0.00000 -0.29694
       6     H     0.40730  0.40730  0.00000  0.18539
       7     H     0.40844  0.40844  0.00000  0.18312
       8     C     3.15362  3.15362  0.00000 -0.30725
       9     H     0.41109  0.41109  0.00000  0.17781
      10     H     0.41257  0.41257  0.00000  0.17486
      11     C     3.23952  3.23952  0.00000 -0.47904
      12     H     0.42321  0.42321  0.00000  0.15357
      13     H     0.42330  0.42330  0.00000  0.15341
      14     H     0.41967  0.41967  0.00000  0.16065
      15     H     0.41860  0.41860  0.00000  0.16279
      16     H     0.41980  0.41980  0.00000  0.16040

   Total alpha = 24.00000, Total beta = 24.00000, Total charge =  0.00000
