  ==> Input File <==

--------------------------------------------------------------------------
set {
	reference rhf
	basis 6-31G*
}

set_num_threads( 4 )
memory 2 gb

molecule MOL {
0 1

O	 -2.821601	 1.309235	 -0.001213
C	 -2.668563	 0.129746	 -0.000350
C	 -3.801572	 -0.864014	 -0.000442
O	 -1.481751	 -0.454642	 0.000584
H	 -4.417280	 -0.689587	 -0.874708
H	 -3.443784	 -1.883046	 -0.000565
H	 -4.417179	 -0.689832	 0.873954
C	 -0.334255	 0.388708	 0.000906
C	 0.891947	 -0.504646	 0.000751
H	 -0.365390	 1.025305	 -0.873475
H	 -0.365484	 1.024911	 0.875569
C	 1.621711	 -0.481212	 1.345134
H	 1.561373	 -0.181946	 -0.791823
H	 0.587081	 -1.519390	 -0.239692
C	 2.862449	 -1.375910	 1.365364
H	 1.913324	 0.540286	 1.583020
H	 0.940867	 -0.795787	 2.134170
C	 3.592055	 -1.351426	 2.707728
H	 3.544061	 -1.062710	 0.577718
H	 2.572527	 -2.397513	 1.130113
H	 3.924656	 -0.347346	 2.955145
H	 4.466354	 -1.994507	 2.690903
H	 2.945956	 -1.692492	 3.511618

	symmetry c1
}
set optking {
	frozen_dihedral = ("
		13 9 8 10
	")
}

ee = optimize('scf')
oeprop('DIPOLE', 'QUADRUPOLE', 'MULLIKEN_CHARGES')
f=open( 'psi4out.xyz', 'w' )
f.write( "23  " )
f.write( str(ee) + "\n" )
f.write( MOL.save_string_xyz() )
f.close()
--------------------------------------------------------------------------

    Molecular point group: c1
  Charge       = 0
  Multiplicity = 1
  Basis Set: 6-31G*
  Basis Set:
  @DF-RHF Final Energy:  -422.97396716757243
    Total Energy =                       -422.9739671675720274
    Molecular point group: c1
  Basis Set: 6-31G*
  Basis Set:
  Basis Set: 6-31G*
  Basis Set:
  @DF-RHF Final Energy:  -422.97435209551548
    Total Energy =                       -422.9743520955155418
  Basis Set: 6-31G*
  Basis Set:
  Basis Set: 6-31G*
  Basis Set:
  @DF-RHF Final Energy:  -422.97447463376278
    Total Energy =                       -422.9744746337635206
  Basis Set: 6-31G*
  Basis Set:
  Basis Set: 6-31G*
  Basis Set:
  @DF-RHF Final Energy:  -422.97427281543344
    Total Energy =                       -422.9742728154337783
  Basis Set: 6-31G*
  Basis Set:
  Basis Set: 6-31G*
  Basis Set:
  @DF-RHF Final Energy:  -422.97448270230495
    Total Energy =                       -422.9744827023060907
  Basis Set: 6-31G*
  Basis Set:
  Basis Set: 6-31G*
  Basis Set:
  @DF-RHF Final Energy:  -422.97448402118965
    Total Energy =                       -422.9744840211901646
  Basis Set: 6-31G*
  Basis Set:
  Basis Set: 6-31G*
  Basis Set:
  @DF-RHF Final Energy:  -422.97448384661527
    Total Energy =                       -422.9744838466150441
  Basis Set: 6-31G*
  Basis Set:
  Charge       = 0
  Multiplicity = 1
  Basis Set: 6-31G*
  Basis Set:

    Orbital Energies (a.u.)
    -----------------------

    Doubly Occupied:

       1A    -20.603475     2A    -20.540714     3A    -11.374093
       4A    -11.281677     5A    -11.232609     6A    -11.224135
       7A    -11.221697     8A    -11.220268     9A    -11.212282
      10A     -1.468025    11A     -1.360792    12A     -1.091541
      13A     -1.040966    14A     -1.002502    15A     -0.930814
      16A     -0.842856    17A     -0.799995    18A     -0.781110
      19A     -0.687974    20A     -0.680490    21A     -0.667020
      22A     -0.644509    23A     -0.607693    24A     -0.582883
      25A     -0.579251    26A     -0.572903    27A     -0.558683
      28A     -0.534742    29A     -0.526934    30A     -0.500963
      31A     -0.499812    32A     -0.474377    33A     -0.470630
      34A     -0.464189    35A     -0.444549    36A     -0.435893

  @DF-RHF Final Energy:  -422.97448427822707

   => Energetics <=

    Nuclear Repulsion Energy =            452.9621897185864441
    One-Electron Energy =               -1473.5472549664664257
    Two-Electron Energy =                 597.6105809696525739
    DFT Exchange-Correlation Energy =       0.0000000000000000
    Empirical Dispersion Energy =           0.0000000000000000
    PCM Polarization Energy =               0.0000000000000000
    EFP Energy =                            0.0000000000000000
    Total Energy =                       -422.9744842782274645
    Molecular point group: c1
  Basis Set: 6-31G*
  Basis Set:

  -Total Gradient:
     Atom            X                  Y                   Z
    ------   -----------------  -----------------  -----------------
       1       -0.000014124484    -0.000007088627    -0.000003476938
       2        0.000033718301    -0.000013938311     0.000001806891
       3       -0.000005142708     0.000010201999    -0.000002935035
       4       -0.000053403479     0.000002418877    -0.000003899853
       5        0.000003957279     0.000000151073     0.000006615666
       6       -0.000001745316     0.000000456027     0.000000408816
       7        0.000003935235    -0.000002414866    -0.000003688878
       8       -0.002328837128    -0.003497024110    -0.002515813408
       9        0.002136122986     0.003202848753     0.002952338485
      10        0.001604705845     0.002381135475     0.001614529207
      11        0.000001530191    -0.000004179890    -0.000005286541
      12       -0.000004957532    -0.000001669967    -0.000004691888
      13       -0.001379539435    -0.002073662659    -0.002039130892
      14       -0.000001117259     0.000000942415     0.000000893086
      15        0.000004933201     0.000004826599     0.000000652716
      16       -0.000002016258    -0.000002830661    -0.000000087054
      17        0.000000946884    -0.000000437037     0.000000101403
      18        0.000002436196    -0.000003187321     0.000001024587
      19        0.000000260827     0.000000865241     0.000000346168
      20       -0.000000861316     0.000002387877     0.000000098332
      21        0.000001086900    -0.000000027973    -0.000000969584
      22       -0.000001204355    -0.000000451442     0.000000809176
      23       -0.000000684575     0.000000678526     0.000000355541

  **** Optimization is complete! (in 8 steps) ****
    Final optimized geometry and variables:
    Molecular point group: c1

    Geometry (in Angstrom), charge = 0, multiplicity = 1:

    O           -2.579567654774     1.652513031416    -0.620343010123
    C           -2.415145581072     0.474606417350    -0.602106645142
    C           -3.539008765421    -0.528997153860    -0.567804085980
    O           -1.223444553039    -0.099428029394    -0.610427196640
    H           -4.169402157779    -0.375148317420    -1.435418388775
    H           -3.172239696329    -1.544783455287    -0.555978748788
    H           -4.142850094854    -0.345138335494     0.312781188468
    C           -0.083721155860     0.755516223509    -0.641366853345
    C            1.175195675106    -0.114183035317    -0.611360939739
    H           -0.129190873321     1.381911310967    -1.521132349019
    H           -0.130247007576     1.416596630747     0.214012353535
    C            1.888774549252    -0.118379110692     0.741209385925
    H            1.854119738311     0.205888335377    -1.396982415600
    H            0.885252360030    -1.127085144409    -0.872384917721
    C            3.117390543302    -1.027973643088     0.768242303590
    H            2.187274877884     0.896994359046     0.996390940059
    H            1.187236880208    -0.433990402116     1.511281531661
    C            3.830396768057    -1.026775471472     2.119895829400
    H            3.813539154422    -0.715724061043    -0.007447929324
    H            2.817945380789    -2.043513061177     0.518545393762
    H            4.173376620331    -0.029820435968     2.381614953080
    H            4.696058639838    -1.681560251784     2.107860513049
    H            3.169357113541    -1.366770933123     2.911996933817

  Mulliken Charges: (a.u.)
   Center  Symbol    Alpha    Beta     Spin     Total
       1     O     4.28407  4.28407  0.00000 -0.56814
       2     C     2.61511  2.61511  0.00000  0.76979
       3     C     3.28754  3.28754  0.00000 -0.57509
       4     O     4.31050  4.31050  0.00000 -0.62100
       5     H     0.39740  0.39740  0.00000  0.20520
       6     H     0.40020  0.40020  0.00000  0.19960
       7     H     0.39750  0.39750  0.00000  0.20499
       8     C     3.00503  3.00503  0.00000 -0.01005
       9     C     3.17047  3.17047  0.00000 -0.34093
      10     H     0.40790  0.40790  0.00000  0.18420
      11     H     0.40790  0.40790  0.00000  0.18420
      12     C     3.15649  3.15649  0.00000 -0.31298
      13     H     0.41644  0.41644  0.00000  0.16712
      14     H     0.40627  0.40627  0.00000  0.18746
      15     C     3.15297  3.15297  0.00000 -0.30594
      16     H     0.42190  0.42190  0.00000  0.15620
      17     H     0.41877  0.41877  0.00000  0.16245
      18     C     3.23962  3.23962  0.00000 -0.47924
      19     H     0.42227  0.42227  0.00000  0.15546
      20     H     0.42141  0.42141  0.00000  0.15718
      21     H     0.42105  0.42105  0.00000  0.15790
      22     H     0.41832  0.41832  0.00000  0.16336
      23     H     0.42087  0.42087  0.00000  0.15826

   Total alpha = 36.00000, Total beta = 36.00000, Total charge = -0.00000
