  ==> Input File <==

--------------------------------------------------------------------------
set {
	reference rhf
	basis cc-pvtz
}

set_num_threads( 4 )
memory 2 gb

molecule MOL {
0 1

H	 1.834595	 -0.845567	 0.894241
O	 1.583947	 -0.677544	 -0.001533
C	 0.489979	 0.078084	 0.002623
C	 -0.763662	 -0.754014	 0.000816
O	 0.539051	 1.259395	 -0.000088
C	 -2.038001	 0.074705	 -0.000833
H	 -0.712945	 -1.405886	 -0.864342
H	 -0.715137	 -1.405770	 0.866182
H	 -2.087267	 0.710831	 -0.874232
H	 -2.903419	 -0.576199	 -0.001922
H	 -2.089467	 0.710909	 0.872389

	symmetry c1
}
set optking {
	frozen_dihedral = ("
		1 2 3 5
	")
}

ee = optimize('scf')
oeprop('DIPOLE', 'QUADRUPOLE', 'MULLIKEN_CHARGES')
f=open( 'psi4out.xyz', 'w' )
f.write( "11  " )
f.write( str(ee) + "\n" )
f.write( MOL.save_string_xyz() )
f.close()
--------------------------------------------------------------------------

    Molecular point group: c1
  Charge       = 0
  Multiplicity = 1
  Basis Set: CC-PVTZ
  Basis Set:
  @DF-RHF Final Energy:  -266.93193066472855
    Total Energy =                       -266.9319306647282133
    Molecular point group: c1
  Basis Set: CC-PVTZ
  Basis Set:
  Basis Set: CC-PVTZ
  Basis Set:
  @DF-RHF Final Energy:  -266.93264561757121
    Total Energy =                       -266.9326456175713247
  Basis Set: CC-PVTZ
  Basis Set:
  Basis Set: CC-PVTZ
  Basis Set:
  @DF-RHF Final Energy:  -266.93340938343260
    Total Energy =                       -266.9334093834324335
  Basis Set: CC-PVTZ
  Basis Set:
  Basis Set: CC-PVTZ
  Basis Set:
  @DF-RHF Final Energy:  -266.93359285450629
    Total Energy =                       -266.9335928545062302
  Basis Set: CC-PVTZ
  Basis Set:
  Charge       = 0
  Multiplicity = 1
  Basis Set: CC-PVTZ
  Basis Set:

    Orbital Energies (a.u.)
    -----------------------

    Doubly Occupied:

       1A    -20.586740     2A    -20.551861     3A    -11.375036
       4A    -11.245132     5A    -11.220394     6A     -1.464329
       7A     -1.371593     8A     -1.065706     9A     -0.911570
      10A     -0.809740    11A     -0.714548    12A     -0.678094
      13A     -0.661958    14A     -0.615655    15A     -0.569975
      16A     -0.530633    17A     -0.523325    18A     -0.501102
      19A     -0.497792    20A     -0.449476

  @DF-RHF Final Energy:  -266.93359487767589

   => Energetics <=

    Nuclear Repulsion Energy =            179.3773409437240502
    One-Electron Energy =                -719.9325530604896812
    Two-Electron Energy =                 273.6216172390896872
    DFT Exchange-Correlation Energy =       0.0000000000000000
    Empirical Dispersion Energy =           0.0000000000000000
    PCM Polarization Energy =               0.0000000000000000
    EFP Energy =                            0.0000000000000000
    Total Energy =                       -266.9335948776760006
    Molecular point group: c1
  Basis Set: CC-PVTZ
  Basis Set:

  -Total Gradient:
     Atom            X                  Y                   Z
    ------   -----------------  -----------------  -----------------
       1       -0.001275044459    -0.001912264101    -0.000028223622
       2        0.001339349691     0.002395971408    -0.000866005299
       3       -0.000022143117    -0.000532239213     0.002887112492
       4        0.000035421621     0.000002431550     0.000001933174
       5       -0.000189739914     0.000048442628    -0.002014592311
       6        0.000076937614     0.000046305330     0.000009208356
       7        0.000033596577    -0.000016665523    -0.000015894219
       8       -0.000028993000    -0.000022406643     0.000003162841
       9        0.000008164435    -0.000007789943     0.000009463706
      10        0.000035645164    -0.000022421258     0.000001477165
      11       -0.000013194608     0.000020635766     0.000012357717

  **** Optimization is complete! (in 5 steps) ****
    Final optimized geometry and variables:
    Molecular point group: c1

    Geometry (in Angstrom), charge = 0, multiplicity = 1:

    H            1.949115733728    -0.845829134337     0.848773865071
    O            1.622380851059    -0.668035630810    -0.017462599746
    C            0.491605577467     0.087036706087     0.010595175552
    C           -0.769109265330    -0.736278809138    -0.005110501186
    O            0.534639735424     1.259663280242    -0.015117808382
    C           -2.044122133679     0.090371604301    -0.024852591635
    H           -0.702864075433    -1.389285710043    -0.868819486256
    H           -0.737470452073    -1.394060633526     0.858734595771
    H           -2.078925804185     0.726988188911    -0.898563637213
    H           -2.910071209194    -0.559878883043    -0.040074776146
    H           -2.110065286848     0.726881326943     0.847634631658

  Mulliken Charges: (a.u.)
   Center  Symbol    Alpha    Beta     Spin     Total
       1     H     0.38763  0.38763  0.00000  0.22474
       2     O     4.17541  4.17541  0.00000 -0.35082
       3     C     2.80237  2.80237  0.00000  0.39527
       4     C     3.10246  3.10246  0.00000 -0.20491
       5     O     4.16076  4.16076  0.00000 -0.32152
       6     C     3.13924  3.13924  0.00000 -0.27848
       7     H     0.43783  0.43783  0.00000  0.12435
       8     H     0.44930  0.44930  0.00000  0.10139
       9     H     0.44598  0.44598  0.00000  0.10804
      10     H     0.45003  0.45003  0.00000  0.09993
      11     H     0.44899  0.44899  0.00000  0.10202

   Total alpha = 20.00000, Total beta = 20.00000, Total charge = -0.00000
