  ==> Input File <==

--------------------------------------------------------------------------
set {
	reference rhf
	basis 6-31G*
}

set_num_threads( 4 )
memory 2 gb

molecule MOL {
0 1

H	 -3.135461	 -1.215070	 0.001379
O	 -2.310168	 -0.871793	 -0.309793
C	 -2.026376	 0.340750	 0.341611
C	 -0.673256	 0.843270	 -0.132153
H	 -2.792215	 1.080697	 0.115987
H	 -2.013526	 0.200402	 1.421792
C	 0.486613	 -0.083066	 0.235839
H	 -0.715586	 0.970948	 -1.210718
H	 -0.508072	 1.829858	 0.297090
C	 1.840406	 0.433480	 -0.254303
H	 0.300215	 -1.068318	 -0.178947
H	 0.519509	 -0.203625	 1.318070
C	 2.576014	 -0.571623	 -1.139922
H	 1.693215	 1.359379	 -0.806357
H	 2.464798	 0.684640	 0.600973
H	 1.991526	 -0.816528	 -2.022127
H	 3.530980	 -0.177696	 -1.474296
H	 2.769176	 -1.497561	 -0.605283

	symmetry c1
}
set optking {
	frozen_dihedral = ("
		14 10 7 11
	")
}

ee = optimize('scf')
oeprop('DIPOLE', 'QUADRUPOLE', 'MULLIKEN_CHARGES')
f=open( 'psi4out.xyz', 'w' )
f.write( "18  " )
f.write( str(ee) + "\n" )
f.write( MOL.save_string_xyz() )
f.close()
--------------------------------------------------------------------------

    Molecular point group: c1
  Charge       = 0
  Multiplicity = 1
  Basis Set: 6-31G*
  Basis Set:
  @DF-RHF Final Energy:  -271.17410559307450
    Total Energy =                       -271.1741055930746143
    Molecular point group: c1
  Basis Set: 6-31G*
  Basis Set:
  Basis Set: 6-31G*
  Basis Set:
  @DF-RHF Final Energy:  -271.17433762517419
    Total Energy =                       -271.1743376251739619
  Basis Set: 6-31G*
  Basis Set:
  Basis Set: 6-31G*
  Basis Set:
  @DF-RHF Final Energy:  -271.17441440106154
    Total Energy =                       -271.1744144010614832
  Basis Set: 6-31G*
  Basis Set:
  Charge       = 0
  Multiplicity = 1
  Basis Set: 6-31G*
  Basis Set:

    Orbital Energies (a.u.)
    -----------------------

    Doubly Occupied:

       1A    -20.553123     2A    -11.267842     3A    -11.212414
       4A    -11.210261     5A    -11.205957     6A    -11.203696
       7A     -1.359791     8A     -1.072057     9A     -1.007544
      10A     -0.912103    11A     -0.819900    12A     -0.782712
      13A     -0.704274    14A     -0.640350    15A     -0.618835
      16A     -0.584214    17A     -0.570515    18A     -0.561223
      19A     -0.510772    20A     -0.503218    21A     -0.496756
      22A     -0.464912    23A     -0.451565    24A     -0.446514
      25A     -0.428483

  @DF-RHF Final Energy:  -271.17441418523663

   => Energetics <=

    Nuclear Repulsion Energy =            249.7422342146603569
    One-Electron Energy =                -862.6552421831794391
    Two-Electron Energy =                 341.7385937832824538
    DFT Exchange-Correlation Energy =       0.0000000000000000
    Empirical Dispersion Energy =           0.0000000000000000
    PCM Polarization Energy =               0.0000000000000000
    EFP Energy =                            0.0000000000000000
    Total Energy =                       -271.1744141852366283
    Molecular point group: c1
  Basis Set: 6-31G*
  Basis Set:

  -Total Gradient:
     Atom            X                  Y                   Z
    ------   -----------------  -----------------  -----------------
       1        0.000000129035    -0.000000828699     0.000001730095
       2        0.000009864986     0.000006287683     0.000020251940
       3       -0.000014790792     0.000004789580    -0.000042446568
       4        0.000000602175     0.000001441940     0.000042611431
       5       -0.000025228345    -0.000009158570    -0.000001815110
       6       -0.000001421175    -0.000005336747    -0.000014288906
       7       -0.000536215664     0.000693266438    -0.000806684038
       8        0.000030138088     0.000019151104     0.000001654997
       9       -0.000005154632    -0.000015754921     0.000024370022
      10       -0.000045752459    -0.000806728105    -0.000953567380
      11        0.000457031981    -0.000446852096     0.000859644166
      12       -0.000000935387     0.000012938342    -0.000012050073
      13        0.000028617959     0.000000819728     0.000007696605
      14        0.000113086917     0.000537040219     0.000871547819
      15       -0.000003529261    -0.000011584642    -0.000008089030
      16       -0.000005132129     0.000014720457     0.000007935666
      17        0.000011135870     0.000002564078     0.000001605769
      18       -0.000012447167     0.000003224215    -0.000000107403

  **** Optimization is complete! (in 4 steps) ****
    Final optimized geometry and variables:
    Molecular point group: c1

    Geometry (in Angstrom), charge = 0, multiplicity = 1:

    H           -3.070861322052    -1.200288706179     0.220378697626
    O           -2.246166797338    -0.856226206968    -0.091526592196
    C           -1.961206274024     0.354949615360     0.562033854279
    C           -0.609518248557     0.858987688251     0.086663802007
    H           -2.727888745164     1.095146200878     0.339879535205
    H           -1.945890908124     0.212112118994     1.641888999543
    C            0.552322233854    -0.069203821774     0.446402297305
    H           -0.652823125178     0.991351705477    -0.991460979867
    H           -0.441676777702     1.843536400923     0.519503717146
    C            1.922837113006     0.445666556929    -0.049336968273
    H            0.354560273864    -1.053402855625     0.036674737762
    H            0.576533759801    -0.197130622581     1.526441679790
    C            2.669100604209    -0.559288868373    -0.926841401485
    H            1.789964361107     1.371665221667    -0.603635522282
    H            2.548271515848     0.704037418563     0.800883139708
    H            2.090817715816    -0.808187689693    -1.812127387014
    H            3.626209377146    -0.163982420427    -1.254131371551
    H            2.858435493048    -1.483189579073    -0.387680734198

  Mulliken Charges: (a.u.)
   Center  Symbol    Alpha    Beta     Spin     Total
       1     H     0.28055  0.28055  0.00000  0.43889
       2     O     4.36963  4.36963  0.00000 -0.73925
       3     C     2.99782  2.99782  0.00000  0.00436
       4     C     3.16196  3.16196  0.00000 -0.32391
       5     H     0.42922  0.42922  0.00000  0.14155
       6     H     0.43264  0.43264  0.00000  0.13471
       7     C     3.15837  3.15837  0.00000 -0.31673
       8     H     0.41505  0.41505  0.00000  0.16991
       9     H     0.42364  0.42364  0.00000  0.15272
      10     C     3.15512  3.15512  0.00000 -0.31023
      11     H     0.40450  0.40450  0.00000  0.19101
      12     H     0.42497  0.42497  0.00000  0.15007
      13     C     3.23936  3.23936  0.00000 -0.47872
      14     H     0.42154  0.42154  0.00000  0.15693
      15     H     0.42178  0.42178  0.00000  0.15645
      16     H     0.42012  0.42012  0.00000  0.15975
      17     H     0.42213  0.42213  0.00000  0.15574
      18     H     0.42162  0.42162  0.00000  0.15677

   Total alpha = 25.00000, Total beta = 25.00000, Total charge = -0.00000
