  ==> Input File <==

--------------------------------------------------------------------------
set {
	reference rhf
	basis 6-31G*
}

set_num_threads( 4 )
memory 2 gb

molecule MOL {
0 1

O	 0.422607	 1.124111	 0.706356
C	 0.486307	 0.169203	 0.000779
C	 1.608116	 -0.841643	 0.000302
O	 -0.438583	 -0.137522	 -0.898168
C	 2.990107	 -0.200498	 -0.000684
H	 1.468623	 -1.481519	 -0.865924
H	 1.469683	 -1.481289	 0.866878
H	 3.129736	 0.423364	 -0.875135
H	 3.757882	 -0.966877	 -0.001197
H	 3.130964	 0.423383	 0.873533
C	 -1.560503	 0.731976	 -1.010724
C	 -2.460469	 0.173828	 -2.092779
H	 -1.212592	 1.726671	 -1.253880
H	 -2.066044	 0.780709	 -0.055923
H	 -1.937830	 0.126385	 -3.041333
H	 -3.332185	 0.809023	 -2.212309
H	 -2.796064	 -0.824747	 -1.836886

	symmetry c1
}
set optking {
	frozen_dihedral = ("
		4 2 3 6
	")
}

ee = optimize('scf')
oeprop('DIPOLE', 'QUADRUPOLE', 'MULLIKEN_CHARGES')
f=open( 'psi4out.xyz', 'w' )
f.write( "17  " )
f.write( str(ee) + "\n" )
f.write( MOL.save_string_xyz() )
f.close()
--------------------------------------------------------------------------

    Molecular point group: c1
  Charge       = 0
  Multiplicity = 1
  Basis Set: 6-31G*
  Basis Set:
  @DF-RHF Final Energy:  -344.91013785621220
    Total Energy =                       -344.9101378562122591
    Molecular point group: c1
  Basis Set: 6-31G*
  Basis Set:
  Basis Set: 6-31G*
  Basis Set:
  @DF-RHF Final Energy:  -344.91057296012809
    Total Energy =                       -344.9105729601282633
  Basis Set: 6-31G*
  Basis Set:
  Basis Set: 6-31G*
  Basis Set:
  @DF-RHF Final Energy:  -344.91047776766089
    Total Energy =                       -344.9104777676603817
  Basis Set: 6-31G*
  Basis Set:
  Basis Set: 6-31G*
  Basis Set:
  @DF-RHF Final Energy:  -344.91059558514104
    Total Energy =                       -344.9105955851409817
  Basis Set: 6-31G*
  Basis Set:
  Basis Set: 6-31G*
  Basis Set:
  @DF-RHF Final Energy:  -344.91060322818845
    Total Energy =                       -344.9106032281881085
  Basis Set: 6-31G*
  Basis Set:
  Basis Set: 6-31G*
  Basis Set:
  @DF-RHF Final Energy:  -344.91060467778453
    Total Energy =                       -344.9106046777845904
  Basis Set: 6-31G*
  Basis Set:
  Charge       = 0
  Multiplicity = 1
  Basis Set: 6-31G*
  Basis Set:

    Orbital Energies (a.u.)
    -----------------------

    Doubly Occupied:

       1A    -20.603150     2A    -20.541605     3A    -11.371089
       4A    -11.284854     5A    -11.236469     6A    -11.222518
       7A    -11.220226     8A     -1.468048     9A     -1.360852
      10A     -1.069797    11A     -1.032351    12A     -0.909895
      13A     -0.850016    14A     -0.775214    15A     -0.694351
      16A     -0.687213    17A     -0.665799    18A     -0.622796
      19A     -0.590068    20A     -0.574560    21A     -0.556392
      22A     -0.528958    23A     -0.524464    24A     -0.510731
      25A     -0.502625    26A     -0.491956    27A     -0.451874
      28A     -0.433828

  @DF-RHF Final Energy:  -344.91060530389450

   => Energetics <=

    Nuclear Repulsion Energy =            314.9070982960275842
    One-Electron Energy =               -1094.0720124897591177
    Two-Electron Energy =                 434.2543088898370343
    DFT Exchange-Correlation Energy =       0.0000000000000000
    Empirical Dispersion Energy =           0.0000000000000000
    PCM Polarization Energy =               0.0000000000000000
    EFP Energy =                            0.0000000000000000
    Total Energy =                       -344.9106053038944992
    Molecular point group: c1
  Basis Set: 6-31G*
  Basis Set:

  -Total Gradient:
     Atom            X                  Y                   Z
    ------   -----------------  -----------------  -----------------
       1        0.000008468498    -0.000011001512    -0.000003442401
       2       -0.000730895547    -0.000797872068     0.001039988476
       3        0.000926890148     0.001012719166    -0.000989889062
       4        0.000423140963     0.000491888014    -0.000667954066
       5       -0.000006466652     0.000005017309     0.000006830666
       6       -0.000632324651    -0.000690171142     0.000613186617
       7        0.000001365943     0.000001607998    -0.000000524409
       8       -0.000000923409    -0.000002041155     0.000001269662
       9       -0.000003656989    -0.000001139762    -0.000000072068
      10        0.000003904228     0.000004169749     0.000000926811
      11        0.000015246516    -0.000014442517     0.000004692295
      12       -0.000001866322    -0.000000233606    -0.000002106049
      13       -0.000001626524     0.000001357607    -0.000000533535
      14       -0.000002155422     0.000001790935    -0.000001238930
      15       -0.000000206572    -0.000000736014    -0.000001640830
      16        0.000001698534     0.000000051861     0.000001144805
      17       -0.000000592741    -0.000000964864    -0.000000637983

  **** Optimization is complete! (in 7 steps) ****
    Final optimized geometry and variables:
    Molecular point group: c1

    Geometry (in Angstrom), charge = 0, multiplicity = 1:

    O            0.303909066075     0.953664897192     1.167563851952
    C            0.353637565753     0.002627175837     0.453856482741
    C            1.475660559483    -1.009957724886     0.467314833146
    O           -0.580363280491    -0.288216034357    -0.438027937289
    C            2.850180237027    -0.342545217621     0.504921253299
    H            1.371904582116    -1.674437383699    -0.380246869143
    H            1.336430685435    -1.610540697519     1.362514455044
    H            3.028511260602     0.238105377287    -0.394257346580
    H            3.629778353025    -1.092764537754     0.578500301235
    H            2.928552859272     0.321535375367     1.355846885184
    C           -1.704768916514     0.582226670222    -0.519158766922
    C           -2.621267559832     0.040218375226    -1.595522791921
    H           -1.360404796907     1.580522526031    -0.751700585300
    H           -2.194592378039     0.615559410041     0.444389121937
    H           -2.113607795415     0.008006958695    -2.552848546285
    H           -3.494962046421     0.676677052133    -1.691441508401
    H           -2.952453708268    -0.962427461265    -1.350109151234

  Mulliken Charges: (a.u.)
   Center  Symbol    Alpha    Beta     Spin     Total
       1     O     4.28747  4.28747  0.00000 -0.57494
       2     C     2.60511  2.60511  0.00000  0.78978
       3     C     3.20535  3.20535  0.00000 -0.41070
       4     O     4.31115  4.31115  0.00000 -0.62231
       5     C     3.24559  3.24559  0.00000 -0.49119
       6     H     0.40051  0.40051  0.00000  0.19899
       7     H     0.40066  0.40066  0.00000  0.19867
       8     H     0.41552  0.41552  0.00000  0.16897
       9     H     0.41541  0.41541  0.00000  0.16918
      10     H     0.40188  0.40188  0.00000  0.19623
      11     C     3.00346  3.00346  0.00000 -0.00693
      12     C     3.24858  3.24858  0.00000 -0.49716
      13     H     0.40955  0.40955  0.00000  0.18089
      14     H     0.41000  0.41000  0.00000  0.18000
      15     H     0.41178  0.41178  0.00000  0.17644
      16     H     0.41618  0.41618  0.00000  0.16763
      17     H     0.41178  0.41178  0.00000  0.17643

   Total alpha = 28.00000, Total beta = 28.00000, Total charge = -0.00000
