  ==> Input File <==

--------------------------------------------------------------------------
set {
	reference rhf
	basis 6-31G*
}

set_num_threads( 1 )
memory 2 gb

molecule MOL {
0 1

H	 2.591676	 2.013956	 0.335017
O	 3.341076	 1.666752	 -0.126416
C	 3.569581	 0.339145	 0.272707
C	 2.539767	 -0.640285	 -0.279495
H	 4.553106	 0.084646	 -0.100901
H	 3.608576	 0.269204	 1.359154
C	 2.443101	 -0.646242	 -1.807071
H	 2.787942	 -1.637555	 0.074383
H	 1.569230	 -0.385987	 0.143301
C	 1.363579	 -1.599422	 -2.327551
H	 3.406229	 -0.926098	 -2.224720
H	 2.229199	 0.362633	 -2.160281
C	 1.166522	 -1.580575	 -3.847799
H	 1.596717	 -2.613345	 -2.007465
H	 0.417978	 -1.342658	 -1.854675
C	 2.353758	 -2.108128	 -4.658129
H	 0.290370	 -2.180004	 -4.086249
H	 0.933919	 -0.565922	 -4.167503
C	 2.070328	 -2.168267	 -6.160623
H	 2.616796	 -3.103540	 -4.303055
H	 3.228187	 -1.483947	 -4.490570
C	 3.256043	 -2.688479	 -6.972487
H	 1.205191	 -2.803384	 -6.338530
H	 1.797861	 -1.176390	 -6.515346
H	 3.532400	 -3.692644	 -6.663451
H	 3.023472	 -2.721166	 -8.032429
H	 4.128000	 -2.053021	 -6.845015

	symmetry c1
}
set optking {
	frozen_dihedral = ("
		14 10 7 4,
		14 10 13 16,
		10 7 4 8,
		10 13 16 20,
		20 16 19 22,
		4 3 2 1
	")
}

ee = energy('scf')
oeprop('DIPOLE', 'QUADRUPOLE', 'MULLIKEN_CHARGES')
f=open( 'psi4out.xyz', 'w' )
f.write( "27  " )
f.write( str(ee) + "\n" )
f.write( MOL.save_string_xyz() )
f.close()
--------------------------------------------------------------------------

    Molecular point group: c1

    Geometry (in Angstrom), charge = 0, multiplicity = 1:

       Center              X                  Y                   Z               Mass
    ------------   -----------------  -----------------  -----------------  -----------------
           H          0.113881040184     3.017447640065     3.176039399914     1.007825032070
           O          0.863281040184     2.670243640065     2.714606399914    15.994914619560
           C          1.091786040184     1.342636640065     3.113729399914    12.000000000000
           C          0.061972040184     0.363206640065     2.561527399914    12.000000000000
           H          2.075311040184     1.088137640065     2.740121399914     1.007825032070
           H          1.130781040184     1.272695640065     4.200176399914     1.007825032070
           C         -0.034693959816     0.357249640065     1.033951399914    12.000000000000
           H          0.310147040184    -0.634063359935     2.915405399914     1.007825032070
           H         -0.908564959816     0.617504640065     2.984323399914     1.007825032070
           C         -1.114215959816    -0.595930359935     0.513471399914    12.000000000000
           H          0.928434040184     0.077393640065     0.616302399914     1.007825032070
           H         -0.248595959816     1.366124640065     0.680741399914     1.007825032070
           C         -1.311272959816    -0.577083359935    -1.006776600086    12.000000000000
           H         -0.881077959816    -1.609853359935     0.833557399914     1.007825032070
           H         -2.059816959816    -0.339166359935     0.986347399914     1.007825032070
           C         -0.124036959816    -1.104636359935    -1.817106600086    12.000000000000
           H         -2.187424959816    -1.176512359935    -1.245226600086     1.007825032070
           H         -1.543875959816     0.437569640065    -1.326480600086     1.007825032070
           C         -0.407466959816    -1.164775359935    -3.319600600086    12.000000000000
           H          0.139001040184    -2.100048359935    -1.462032600086     1.007825032070
           H          0.750392040184    -0.480455359935    -1.649547600086     1.007825032070
           C          0.778248040184    -1.684987359935    -4.131464600086    12.000000000000
           H         -1.272603959816    -1.799892359935    -3.497507600086     1.007825032070
           H         -0.679933959816    -0.172898359935    -3.674323600086     1.007825032070
           H          1.054605040184    -2.689152359935    -3.822428600086     1.007825032070
           H          0.545677040184    -1.717674359935    -5.191406600086     1.007825032070
           H          1.650205040184    -1.049529359935    -4.003992600086     1.007825032070

  Charge       = 0
  Multiplicity = 1
  Basis Set: 6-31G*
  Basis Set:

    Orbital Energies (a.u.)
    -----------------------

    Doubly Occupied:

       1A    -20.553665     2A    -11.267801     3A    -11.215954
       4A    -11.212423     5A    -11.211877     6A    -11.211044
       7A    -11.209872     8A    -11.209724     9A    -11.206275
      10A     -1.360319    11A     -1.090238    12A     -1.057800
      13A     -1.008968    14A     -0.944658    15A     -0.882902
      16A     -0.819435    17A     -0.800016    18A     -0.773560
      19A     -0.683130    20A     -0.651354    21A     -0.638547
      22A     -0.608526    23A     -0.605535    24A     -0.583753
      25A     -0.570222    26A     -0.555167    27A     -0.537680
      28A     -0.516445    29A     -0.510377    30A     -0.491518
      31A     -0.478689    32A     -0.467901    33A     -0.463986
      34A     -0.455981    35A     -0.453551    36A     -0.438647
      37A     -0.420301

  @DF-RHF Final Energy:  -388.28199919643237

   => Energetics <=

    Nuclear Repulsion Energy =            458.6056453983441088
    One-Electron Energy =               -1435.4395666241048275
    Two-Electron Energy =                 588.5519220293291482
    DFT Exchange-Correlation Energy =       0.0000000000000000
    Empirical Dispersion Energy =           0.0000000000000000
    PCM Polarization Energy =               0.0000000000000000
    EFP Energy =                            0.0000000000000000
    Total Energy =                       -388.2819991964315705

  Mulliken Charges: (a.u.)
   Center  Symbol    Alpha    Beta     Spin     Total
       1     H     0.28285  0.28285  0.00000  0.43430
       2     O     4.36831  4.36831  0.00000 -0.73662
       3     C     2.99752  2.99752  0.00000  0.00497
       4     C     3.16621  3.16621  0.00000 -0.33242
       5     H     0.41688  0.41688  0.00000  0.16624
       6     H     0.42830  0.42830  0.00000  0.14339
       7     C     3.15389  3.15389  0.00000 -0.30777
       8     H     0.42258  0.42258  0.00000  0.15484
       9     H     0.42844  0.42844  0.00000  0.14311
      10     C     3.15285  3.15285  0.00000 -0.30570
      11     H     0.42161  0.42161  0.00000  0.15679
      12     H     0.41267  0.41267  0.00000  0.17465
      13     C     3.15278  3.15278  0.00000 -0.30556
      14     H     0.42555  0.42555  0.00000  0.14890
      15     H     0.42369  0.42369  0.00000  0.15261
      16     C     3.15287  3.15287  0.00000 -0.30574
      17     H     0.42273  0.42273  0.00000  0.15454
      18     H     0.42340  0.42340  0.00000  0.15320
      19     C     3.15109  3.15109  0.00000 -0.30218
      20     H     0.42535  0.42535  0.00000  0.14931
      21     H     0.42099  0.42099  0.00000  0.15802
      22     C     3.23915  3.23915  0.00000 -0.47829
      23     H     0.42371  0.42371  0.00000  0.15258
      24     H     0.42287  0.42287  0.00000  0.15427
      25     H     0.42229  0.42229  0.00000  0.15542
      26     H     0.41978  0.41978  0.00000  0.16044
      27     H     0.42165  0.42165  0.00000  0.15671

   Total alpha = 37.00000, Total beta = 37.00000, Total charge =  0.00000
