  ==> Input File <==

--------------------------------------------------------------------------
set {
	reference rhf
	basis cc-pvtz
}

set_num_threads( 4 )
memory 2 gb

molecule MOL {
0 1

O	 -1.510770	 1.240811	 -0.054933
C	 -1.081510	 0.147522	 0.122720
C	 0.327029	 -0.064006	 0.641890
C	 -1.903028	 -1.084121	 -0.174656
C	 1.349460	 -0.017068	 -0.500215
H	 0.399029	 -1.014606	 1.159950
H	 0.538021	 0.726928	 1.350471
C	 2.747988	 -0.419367	 -0.046322
H	 1.030032	 -0.672394	 -1.305418
H	 1.369026	 0.987513	 -0.906122
H	 3.451995	 -0.366771	 -0.868294
H	 2.760532	 -1.434162	 0.336804
H	 3.105831	 0.236225	 0.739820
H	 -1.341891	 -1.779207	 -0.789259
H	 -2.820449	 -0.808163	 -0.671328
H	 -2.133314	 -1.593056	 0.755831

	symmetry c1
}
set optking {
	frozen_dihedral = ("
		9 5 3 2
	")
}

ee = optimize('scf')
oeprop('DIPOLE', 'QUADRUPOLE', 'MULLIKEN_CHARGES')
f=open( 'psi4out.xyz', 'w' )
f.write( "16  " )
f.write( str(ee) + "\n" )
f.write( MOL.save_string_xyz() )
f.close()
--------------------------------------------------------------------------

    Molecular point group: c1
  Charge       = 0
  Multiplicity = 1
  Basis Set: CC-PVTZ
  Basis Set:
  @DF-RHF Final Energy:  -270.12915127011217
    Total Energy =                       -270.1291512701121178
    Molecular point group: c1
  Basis Set: CC-PVTZ
  Basis Set:
  Basis Set: CC-PVTZ
  Basis Set:
  @DF-RHF Final Energy:  -270.12918668668453
    Total Energy =                       -270.1291866866843634
  Basis Set: CC-PVTZ
  Basis Set:
  Basis Set: CC-PVTZ
  Basis Set:
  @DF-RHF Final Energy:  -270.12908003711527
    Total Energy =                       -270.1290800371153864
  Basis Set: CC-PVTZ
  Basis Set:
  Basis Set: CC-PVTZ
  Basis Set:
  @DF-RHF Final Energy:  -270.12919698937139
    Total Energy =                       -270.1291969893711666
  Basis Set: CC-PVTZ
  Basis Set:
  Basis Set: CC-PVTZ
  Basis Set:
  @DF-RHF Final Energy:  -270.12919896142944
    Total Energy =                       -270.1291989614292675
  Basis Set: CC-PVTZ
  Basis Set:
  Charge       = 0
  Multiplicity = 1
  Basis Set: CC-PVTZ
  Basis Set:

    Orbital Energies (a.u.)
    -----------------------

    Doubly Occupied:

       1A    -20.537335     2A    -11.319798     3A    -11.231798
       4A    -11.228537     5A    -11.227388     6A    -11.218107
       7A     -1.397363     8A     -1.084194     9A     -1.014183
      10A     -0.950902    11A     -0.830066    12A     -0.736787
      13A     -0.660044    14A     -0.652287    15A     -0.614166
      16A     -0.608586    17A     -0.577867    18A     -0.560541
      19A     -0.536023    20A     -0.521451    21A     -0.505823
      22A     -0.484428    23A     -0.474786    24A     -0.400499

  @DF-RHF Final Energy:  -270.12919951414926

   => Energetics <=

    Nuclear Repulsion Energy =            237.5972922702925700
    One-Electron Energy =                -836.7070740211961493
    Two-Electron Energy =                 328.9805822367544579
    DFT Exchange-Correlation Energy =       0.0000000000000000
    Empirical Dispersion Energy =           0.0000000000000000
    PCM Polarization Energy =               0.0000000000000000
    EFP Energy =                            0.0000000000000000
    Total Energy =                       -270.1291995141491498
    Molecular point group: c1
  Basis Set: CC-PVTZ
  Basis Set:

  -Total Gradient:
     Atom            X                  Y                   Z
    ------   -----------------  -----------------  -----------------
       1       -0.000000847132     0.000005496072    -0.000013611291
       2       -0.000113519327    -0.001192703465    -0.000195617276
       3       -0.000041518993     0.001879741055     0.000027777308
       4       -0.000040660421     0.000012027384     0.000076359579
       5        0.001061062815    -0.001965529490     0.000894069032
       6        0.000011669354    -0.000005604416     0.000028462029
       7        0.000010435297    -0.000005938408    -0.000016214124
       8       -0.000053746985    -0.000021078309    -0.000026698417
       9       -0.000856377439     0.001270143178    -0.000711962945
      10       -0.000000428228     0.000035055136    -0.000021144748
      11       -0.000005320778    -0.000004479728     0.000002153836
      12        0.000008396822     0.000000293768     0.000007877367
      13       -0.000011243927     0.000005283076    -0.000006269315
      14        0.000014633322     0.000004638626    -0.000016339942
      15        0.000006063460    -0.000000544617    -0.000008478027
      16        0.000011402158    -0.000016799857    -0.000020363066

  **** Optimization is complete! (in 6 steps) ****
    Final optimized geometry and variables:
    Molecular point group: c1

    Geometry (in Angstrom), charge = 0, multiplicity = 1:

    O           -1.509728657106     1.281528641941    -0.030323172710
    C           -1.074983862098     0.188124238766     0.133079901089
    C            0.333013715584    -0.027127245258     0.650337312913
    C           -1.891471896822    -1.043263851404    -0.180358969798
    C            1.351270062187     0.004441791765    -0.497110126982
    H            0.395072603151    -0.979244207931     1.167563801324
    H            0.555046355045     0.760084254307     1.359089551429
    C            2.755256359063    -0.380141406045    -0.047437255902
    H            1.026773825833    -0.655179568018    -1.296744560953
    H            1.360006540991     1.003198906518    -0.918398142983
    H            3.455710337821    -0.323279225053    -0.872111672867
    H            2.780481367239    -1.392666886537     0.340781340900
    H            3.108711478678     0.283240129702     0.734329888741
    H           -1.322605680684    -1.739376584429    -0.786222835262
    H           -2.801103900581    -0.765581880964    -0.690232418760
    H           -2.137366880560    -1.551593193589     0.746517002454

  Mulliken Charges: (a.u.)
   Center  Symbol    Alpha    Beta     Spin     Total
       1     O     4.17678  4.17678  0.00000 -0.35355
       2     C     2.85803  2.85803  0.00000  0.28395
       3     C     3.09800  3.09800  0.00000 -0.19599
       4     C     3.15503  3.15503  0.00000 -0.31006
       5     C     3.09111  3.09111  0.00000 -0.18222
       6     H     0.45117  0.45117  0.00000  0.09766
       7     H     0.43859  0.43859  0.00000  0.12281
       8     C     3.14929  3.14929  0.00000 -0.29857
       9     H     0.45228  0.45228  0.00000  0.09544
      10     H     0.44160  0.44160  0.00000  0.11680
      11     H     0.44607  0.44607  0.00000  0.10786
      12     H     0.45496  0.45496  0.00000  0.09008
      13     H     0.45193  0.45193  0.00000  0.09613
      14     H     0.45091  0.45091  0.00000  0.09817
      15     H     0.43602  0.43602  0.00000  0.12795
      16     H     0.44824  0.44824  0.00000  0.10353

   Total alpha = 24.00000, Total beta = 24.00000, Total charge = -0.00000
