  ==> Input File <==

--------------------------------------------------------------------------
set {
	reference rhf
	basis cc-pvtz
}

set_num_threads( 4 )
memory 2 gb

molecule MOL {
0 1

H	 -2.578939	 0.733823	 -0.882690
C	 -1.774556	 1.324580	 -1.300057
C	 -0.481641	 0.525633	 -1.353621
H	 -1.661706	 2.204638	 -0.681205
H	 -2.062543	 1.640549	 -2.295613
C	 0.000000	 0.039916	 0.000014
H	 0.317896	 1.113843	 -1.795941
H	 -0.591328	 -0.344188	 -1.995705
C	 1.286532	 -0.763243	 0.000268
O	 -0.595055	 0.274646	 1.000609
C	 2.547023	 0.087626	 -0.000114
H	 1.264245	 -1.421103	 -0.864380
H	 1.264290	 -1.420353	 0.865489
H	 2.584452	 0.725630	 -0.872909
H	 3.427035	 -0.544422	 0.000125
H	 2.584484	 0.726356	 0.872143

	symmetry c1
}
set optking {
	frozen_dihedral = ("
		3 6 9 12
	")
}

ee = optimize('scf')
oeprop('DIPOLE', 'QUADRUPOLE', 'MULLIKEN_CHARGES')
f=open( 'psi4out.xyz', 'w' )
f.write( "16  " )
f.write( str(ee) + "\n" )
f.write( MOL.save_string_xyz() )
f.close()
--------------------------------------------------------------------------

    Molecular point group: c1
  Charge       = 0
  Multiplicity = 1
  Basis Set: CC-PVTZ
  Basis Set:
  @DF-RHF Final Energy:  -270.12897137649537
    Total Energy =                       -270.1289713764952012
    Molecular point group: c1
  Basis Set: CC-PVTZ
  Basis Set:
  Basis Set: CC-PVTZ
  Basis Set:
  @DF-RHF Final Energy:  -270.12945986717602
    Total Energy =                       -270.1294598671757967
  Basis Set: CC-PVTZ
  Basis Set:
  Basis Set: CC-PVTZ
  Basis Set:
  @DF-RHF Final Energy:  -270.12790980818301
    Total Energy =                       -270.1279098081829488
  Basis Set: CC-PVTZ
  Basis Set:
  Basis Set: CC-PVTZ
  Basis Set:
  @DF-RHF Final Energy:  -270.12967256453214
    Total Energy =                       -270.1296725645321430
  Basis Set: CC-PVTZ
  Basis Set:
  Basis Set: CC-PVTZ
  Basis Set:
  @DF-RHF Final Energy:  -270.12969593684079
    Total Energy =                       -270.1296959368408466
  Basis Set: CC-PVTZ
  Basis Set:
  Basis Set: CC-PVTZ
  Basis Set:
  @DF-RHF Final Energy:  -270.12969737717390
    Total Energy =                       -270.1296973771737839
  Basis Set: CC-PVTZ
  Basis Set:
  Charge       = 0
  Multiplicity = 1
  Basis Set: CC-PVTZ
  Basis Set:

    Orbital Energies (a.u.)
    -----------------------

    Doubly Occupied:

       1A    -20.537881     2A    -11.317058     3A    -11.232271
       4A    -11.230581     5A    -11.226799     6A    -11.211659
       7A     -1.397750     8A     -1.073005     9A     -1.037136
      10A     -0.912137    11A     -0.858512    12A     -0.727548
      13A     -0.665383    14A     -0.643839    15A     -0.626724
      16A     -0.605711    17A     -0.565027    18A     -0.541290
      19A     -0.534421    20A     -0.511198    21A     -0.504209
      22A     -0.499069    23A     -0.481965    24A     -0.398492

  @DF-RHF Final Energy:  -270.12969767813973

   => Energetics <=

    Nuclear Repulsion Energy =            241.0028816714576010
    One-Electron Energy =                -843.5858214553468315
    Two-Electron Energy =                 332.4532421057494957
    DFT Exchange-Correlation Energy =       0.0000000000000000
    Empirical Dispersion Energy =           0.0000000000000000
    PCM Polarization Energy =               0.0000000000000000
    EFP Energy =                            0.0000000000000000
    Total Energy =                       -270.1296976781397916
    Molecular point group: c1
  Basis Set: CC-PVTZ
  Basis Set:

  -Total Gradient:
     Atom            X                  Y                   Z
    ------   -----------------  -----------------  -----------------
       1       -0.000007120956    -0.000000687201     0.000003170719
       2        0.000005188028     0.000001918578    -0.000002619820
       3        0.000373473103     0.000656106179     0.000134078895
       4        0.000001608868    -0.000005605869    -0.000001085146
       5        0.000001584344    -0.000003201640     0.000001090022
       6       -0.000661166780    -0.001137935896    -0.000075077309
       7        0.000008778916     0.000000755435    -0.000001018242
       8        0.000001927717     0.000007496374    -0.000005130428
       9        0.000702239302     0.001242866410    -0.000627226777
      10       -0.000008023974     0.000005421343     0.000021687690
      11        0.000028764049     0.000018566184     0.000003158649
      12       -0.000438887917    -0.000760583857     0.000542936749
      13        0.000005823352    -0.000011725913     0.000006591655
      14       -0.000006834991    -0.000009595363     0.000004050459
      15        0.000000763171     0.000003994486    -0.000000918757
      16       -0.000008116230    -0.000007789248    -0.000003688358

  **** Optimization is complete! (in 7 steps) ****
    Final optimized geometry and variables:
    Molecular point group: c1

    Geometry (in Angstrom), charge = 0, multiplicity = 1:

    H           -2.709902645491     0.629060404572    -0.530125986015
    C           -1.881435830469     1.143869787923    -0.996847348064
    C           -0.660841957554     0.241481261587    -1.087070877725
    H           -1.669912444416     2.024784455570    -0.404786468001
    H           -2.187838362703     1.462835231690    -1.985937594229
    C           -0.170712411292    -0.271035282266     0.252471730543
    H            0.162314677674     0.748015363909    -1.581486394368
    H           -0.872611890742    -0.631861079907    -1.699782361145
    C            1.141853428883    -1.031416554642     0.263024990154
    O           -0.774388230065    -0.079993810061     1.257927871977
    C            2.348492892743    -0.088290847491     0.290895193641
    H            1.197237997501    -1.681160422990    -0.604120739459
    H            1.144456274892    -1.652820453223     1.148093281992
    H            2.393177438898     0.538318806019    -0.591773557804
    H            3.267588594247    -0.658603363221     0.335930314536
    H            2.309747356375     0.555188146276     1.161048249798

  Mulliken Charges: (a.u.)
   Center  Symbol    Alpha    Beta     Spin     Total
       1     H     0.44578  0.44578  0.00000  0.10844
       2     C     3.14122  3.14122  0.00000 -0.28244
       3     C     3.10617  3.10617  0.00000 -0.21235
       4     H     0.44951  0.44951  0.00000  0.10098
       5     H     0.45078  0.45078  0.00000  0.09844
       6     C     2.86236  2.86236  0.00000  0.27528
       7     H     0.44534  0.44534  0.00000  0.10932
       8     H     0.44532  0.44532  0.00000  0.10936
       9     C     3.09515  3.09515  0.00000 -0.19031
      10     O     4.17582  4.17582  0.00000 -0.35163
      11     C     3.15116  3.15116  0.00000 -0.30232
      12     H     0.45039  0.45039  0.00000  0.09921
      13     H     0.43777  0.43777  0.00000  0.12446
      14     H     0.45365  0.45365  0.00000  0.09269
      15     H     0.44500  0.44500  0.00000  0.11000
      16     H     0.44456  0.44456  0.00000  0.11087

   Total alpha = 24.00000, Total beta = 24.00000, Total charge = -0.00000
