                              Psi4 1.0.54 Driver

  ==> Input File <==

--------------------------------------------------------------------------
set {
	reference rhf
	basis cc-pvtz
}

set_num_threads( 4 )
memory 2 gb

molecule MOL {
0 1

O	 2.882693	 1.329837	 -0.233309
C	 2.841259	 0.166180	 -0.000295
C	 1.542794	 -0.614730	 -0.000853
C	 4.094140	 -0.619350	 0.315070
C	 0.288398	 0.247429	 0.000314
H	 1.557171	 -1.273139	 -0.866508
H	 1.557484	 -1.274998	 0.863344
C	 -0.993089	 -0.581367	 -0.000217
H	 0.305153	 0.900562	 -0.864701
H	 0.305567	 0.898805	 0.866656
C	 -2.258482	 0.271340	 0.000669
H	 -1.002280	 -1.233920	 -0.870484
H	 -1.002061	 -1.235367	 0.868958
C	 -3.544441	 -0.550271	 -0.000253
H	 -2.250545	 0.925250	 -0.867923
H	 -2.250598	 0.923423	 0.870642
C	 -4.804551	 0.308747	 0.000556
H	 -3.553737	 -1.201524	 -0.870151
H	 -3.553831	 -1.203282	 0.868313
H	 -4.842050	 0.949078	 -0.874436
H	 -5.698404	 -0.304480	 -0.000254
H	 -4.842277	 0.947103	 0.876982
H	 4.222266	 -1.422878	 -0.401850
H	 4.952699	 0.033674	 0.286288
H	 4.013552	 -1.073344	 1.296618

	symmetry c1
}
set optking {
	frozen_dihedral = ("
		1 2 3 6
	")
}

ee,wfn = optimize('scf', return_wfn=True)
oeprop( wfn, 'DIPOLE', 'QUADRUPOLE', 'MULLIKEN_CHARGES')
f=open( 'psi4out.xyz', 'w' )
f.write( "25  " )
f.write( str(ee) + "\n" )
f.write( MOL.save_string_xyz() )
f.close()
--------------------------------------------------------------------------

    Molecular point group: c1
  Charge       = 0
  Multiplicity = 1
  Basis Set: CC-PVTZ
  Basis Set:
  @DF-RHF Final Energy:  -387.27439887464902
    Total Energy =                       -387.2743988746485684
    Molecular point group: c1
  Basis Set: CC-PVTZ
  Basis Set:
  Basis Set: CC-PVTZ
  Basis Set:
  @DF-RHF Final Energy:  -387.27359310717600
    Total Energy =                       -387.2735931071765663
  Basis Set: CC-PVTZ
  Basis Set:
  Basis Set: CC-PVTZ
  Basis Set:
  @DF-RHF Final Energy:  -387.27448149642186
    Total Energy =                       -387.2744814964219131
  Basis Set: CC-PVTZ
  Basis Set:
  Basis Set: CC-PVTZ
  Basis Set:
  @DF-RHF Final Energy:  -387.27455081551068
    Total Energy =                       -387.2745508155109064
  Basis Set: CC-PVTZ
  Basis Set:
  Basis Set: CC-PVTZ
  Basis Set:
  @DF-RHF Final Energy:  -387.27456679646099
    Total Energy =                       -387.2745667964607037
  Basis Set: CC-PVTZ
  Basis Set:
  Basis Set: CC-PVTZ
  Basis Set:
  @DF-RHF Final Energy:  -387.27458203282794
    Total Energy =                       -387.2745820328282207
  Basis Set: CC-PVTZ
  Basis Set:
  Basis Set: CC-PVTZ
  Basis Set:
  @DF-RHF Final Energy:  -387.27458305461937
    Total Energy =                       -387.2745830546193702
  Basis Set: CC-PVTZ
  Basis Set:
  Charge       = 0
  Multiplicity = 1
  Basis Set: CC-PVTZ
  Basis Set:

    Orbital Energies (a.u.)
    -----------------------

    Doubly Occupied:

       1A    -20.538465     2A    -11.320556     3A    -11.230198
       4A    -11.226715     5A    -11.215488     6A    -11.214859
       7A    -11.213625     8A    -11.211641     9A    -11.206525
      10A     -1.398721    11A     -1.095337    12A     -1.057766
      13A     -1.015642    14A     -0.970285    15A     -0.891660
      16A     -0.814840    17A     -0.791536    18A     -0.730992
      19A     -0.663221    20A     -0.653780    21A     -0.633695
      22A     -0.626000    23A     -0.597190    24A     -0.585331
      25A     -0.568022    26A     -0.560363    27A     -0.541593
      28A     -0.527641    29A     -0.513345    30A     -0.491417
      31A     -0.490252    32A     -0.473876    33A     -0.464069
      34A     -0.463150    35A     -0.452860    36A     -0.400949

  @DF-RHF Final Energy:  -387.27458320389604

   => Energetics <=

    Nuclear Repulsion Energy =            439.1156557781125116
    One-Electron Energy =               -1395.0772627603544151
    Two-Electron Energy =                 568.6870237783457469
    DFT Exchange-Correlation Energy =       0.0000000000000000
    Empirical Dispersion Energy =           0.0000000000000000
    PCM Polarization Energy =               0.0000000000000000
    EFP Energy =                            0.0000000000000000
    Total Energy =                       -387.2745832038960998
    Molecular point group: c1
  Basis Set: CC-PVTZ
  Basis Set:

  -Total Gradient:
     Atom            X                  Y                   Z
    ------   -----------------  -----------------  -----------------
       1        0.000079646047    -0.000111076675    -0.000534688601
       2       -0.000199027106     0.000250665319     0.000687888381
       3        0.000295482550    -0.000506822380     0.000120793304
       4       -0.000001753076     0.000008285274    -0.000017019234
       5        0.000005411927    -0.000002465435    -0.000011471784
       6       -0.000217176114     0.000384805162    -0.000292363276
       7       -0.000003814491     0.000002518445     0.000002096603
       8       -0.000003775091     0.000000021689     0.000013931265
       9        0.000001691572     0.000006729922     0.000000353179
      10       -0.000000679924    -0.000005235012     0.000001693796
      11       -0.000001456427    -0.000001570054     0.000002851523
      12        0.000003642504    -0.000002344838     0.000003604876
      13       -0.000004217754     0.000000629382     0.000004691592
      14        0.000001858671     0.000001125575    -0.000005979259
      15       -0.000001961874     0.000004933976     0.000001314885
      16        0.000000205595    -0.000004440173     0.000001925891
      17       -0.000000557233     0.000000438489    -0.000005728447
      18       -0.000001333113    -0.000003905514    -0.000000235135
      19        0.000002350389     0.000003679661     0.000000795391
      20       -0.000001481453     0.000001343782    -0.000000510841
      21       -0.000000697624     0.000000283771    -0.000001275051
      22        0.000000725452    -0.000000971250     0.000000818696
      23        0.000015108214     0.000006804164     0.000011734473
      24        0.000004995924    -0.000026367871     0.000012918551
      25        0.000026812440    -0.000007065406     0.000001859220

  **** Optimization is complete! (in 8 steps) ****
    Final optimized geometry and variables:
    Molecular point group: c1

    Geometry (in Angstrom), charge = 0, multiplicity = 1:

    O            2.890398138529     1.317425934093    -0.119326046298
    C            2.840282738719     0.152213943429     0.103614841155
    C            1.539309908289    -0.623925883913     0.069335154474
    C            4.084656918077    -0.642876491828     0.427038645801
    C            0.289598649751     0.244392942467     0.018719006316
    H            1.586613187053    -1.269615234036    -0.805813751572
    H            1.515142291913    -1.293075266915     0.925205578188
    C           -0.994636254659    -0.577854299823    -0.041852014584
    H            0.349099352546     0.901289643101    -0.840495177774
    H            0.270140829426     0.891273741315     0.889576647752
    C           -2.254692493454     0.281204917018    -0.092301038252
    H           -0.967992937665    -1.225276874669    -0.915560810372
    H           -1.045396107231    -1.236804195834     0.822152066971
    C           -3.543121309580    -0.533928201603    -0.156977809898
    H           -2.204240559532     0.940801460570    -0.955107120426
    H           -2.283272269272     0.927472044574     0.781649910605
    C           -4.797902423752     0.331347084146    -0.207795218325
    H           -3.515913948921    -1.179534267980    -1.030688407607
    H           -3.595076635639    -1.192440539989     0.705946826299
    H           -4.792522192914     0.977435622675    -1.079337167379
    H           -5.693658402099    -0.277415671028    -0.253315819680
    H           -4.872512302265     0.964281282497     0.670225807145
    H            4.131428207642    -1.546341289501    -0.170094446348
    H            4.962563906856    -0.039445872461     0.254523754528
    H            4.056651974468    -0.945589529633     1.468704463177

  Mulliken Charges: (a.u.)
   Center  Symbol    Alpha    Beta     Spin     Total
       1     O     4.17164  4.17164  0.00000 -0.34328
       2     C     2.86168  2.86168  0.00000  0.27664
       3     C     3.11438  3.11438  0.00000 -0.22876
       4     C     3.15185  3.15185  0.00000 -0.30370
       5     C     3.08405  3.08405  0.00000 -0.16810
       6     H     0.44468  0.44468  0.00000  0.11064
       7     H     0.44563  0.44563  0.00000  0.10874
       8     C     3.08991  3.08991  0.00000 -0.17983
       9     H     0.44294  0.44294  0.00000  0.11412
      10     H     0.44887  0.44887  0.00000  0.10225
      11     C     3.08618  3.08618  0.00000 -0.17236
      12     H     0.45565  0.45565  0.00000  0.08870
      13     H     0.45623  0.45623  0.00000  0.08754
      14     C     3.08432  3.08432  0.00000 -0.16863
      15     H     0.45351  0.45351  0.00000  0.09299
      16     H     0.45412  0.45412  0.00000  0.09176
      17     C     3.15037  3.15037  0.00000 -0.30073
      18     H     0.45507  0.45507  0.00000  0.08986
      19     H     0.45526  0.45526  0.00000  0.08948
      20     H     0.45468  0.45468  0.00000  0.09064
      21     H     0.44866  0.44866  0.00000  0.10267
      22     H     0.45489  0.45489  0.00000  0.09022
      23     H     0.45098  0.45098  0.00000  0.09803
      24     H     0.43559  0.43559  0.00000  0.12882
      25     H     0.44886  0.44886  0.00000  0.10229

   Total alpha = 36.00000, Total beta = 36.00000, Total charge = -0.00000

*** Psi4 exiting successfully. Buy a developer a beer!
