                              Psi4 1.0.54 Driver

  ==> Input File <==

--------------------------------------------------------------------------
set {
	reference rhf
	basis cc-pvtz
}

set_num_threads( 4 )
memory 2 gb

molecule MOL {
0 1

H	 -2.362939	 -1.309000	 -0.383250
C	 -1.359344	 -1.272457	 0.020748
C	 -0.684082	 0.000127	 -0.464918
H	 -0.825835	 -2.151141	 -0.318537
H	 -1.416276	 -1.292399	 1.099455
C	 -1.359089	 1.272668	 0.021259
N	 0.742439	 -0.000109	 0.007333
H	 -0.596914	 0.000345	 -1.538146
H	 -2.362696	 1.309620	 -0.382686
H	 -0.825392	 2.151374	 -0.317674
H	 -1.415983	 1.292181	 1.099973
O	 1.584864	 0.182717	 -0.805402
O	 0.935709	 -0.182941	 1.162975

	symmetry c1
}
set optking {
	frozen_dihedral = ("
		12 7 3 8
	")
}

ee,wfn = optimize('scf', return_wfn=True)
oeprop( wfn, 'DIPOLE', 'QUADRUPOLE', 'MULLIKEN_CHARGES')
f=open( 'psi4out.xyz', 'w' )
f.write( "13  " )
f.write( str(ee) + "\n" )
f.write( MOL.save_string_xyz() )
f.close()
--------------------------------------------------------------------------

    Molecular point group: c1
  Charge       = 0
  Multiplicity = 1
  Basis Set: CC-PVTZ
  Basis Set:
  @DF-RHF Final Energy:  -321.86450715769342
    Total Energy =                       -321.8645071576934242
    Molecular point group: c1
  Basis Set: CC-PVTZ
  Basis Set:
  Basis Set: CC-PVTZ
  Basis Set:
  @DF-RHF Final Energy:  -321.85740729366773
    Total Energy =                       -321.8574072936677339
  Basis Set: CC-PVTZ
  Basis Set:
  Basis Set: CC-PVTZ
  Basis Set:
  @DF-RHF Final Energy:  -321.86416007424941
    Total Energy =                       -321.8641600742494688
  Basis Set: CC-PVTZ
  Basis Set:
  Basis Set: CC-PVTZ
  Basis Set:
  @DF-RHF Final Energy:  -321.86452062928646
    Total Energy =                       -321.8645206292864032
  Basis Set: CC-PVTZ
  Basis Set:
  Basis Set: CC-PVTZ
  Basis Set:
  @DF-RHF Final Energy:  -321.86448105278339
    Total Energy =                       -321.8644810527835034
  Basis Set: CC-PVTZ
  Basis Set:
  Basis Set: CC-PVTZ
  Basis Set:
  @DF-RHF Final Energy:  -321.86458468190671
    Total Energy =                       -321.8645846819067629
  Basis Set: CC-PVTZ
  Basis Set:
  Charge       = 0
  Multiplicity = 1
  Basis Set: CC-PVTZ
  Basis Set:

    Orbital Energies (a.u.)
    -----------------------

    Doubly Occupied:

       1A    -20.590322     2A    -20.587848     3A    -15.832588
       4A    -11.304168     5A    -11.244421     6A    -11.241857
       7A     -1.633905     8A     -1.418213     9A     -1.142618
      10A     -0.974250    11A     -0.957237    12A     -0.816644
      13A     -0.751680    14A     -0.732971    15A     -0.726595
      16A     -0.650529    17A     -0.595204    18A     -0.588614
      19A     -0.570900    20A     -0.529866    21A     -0.522786
      22A     -0.485651    23A     -0.469662    24A     -0.452304

  @DF-RHF Final Energy:  -321.86458500284732

   => Energetics <=

    Nuclear Repulsion Energy =            257.3362151105282010
    One-Electron Energy =                -948.7599381997699766
    Two-Electron Energy =                 369.5591380863943414
    DFT Exchange-Correlation Energy =       0.0000000000000000
    Empirical Dispersion Energy =           0.0000000000000000
    PCM Polarization Energy =               0.0000000000000000
    EFP Energy =                            0.0000000000000000
    Total Energy =                       -321.8645850028474342
    Molecular point group: c1
  Basis Set: CC-PVTZ
  Basis Set:

  -Total Gradient:
     Atom            X                  Y                   Z
    ------   -----------------  -----------------  -----------------
       1        0.000002062836    -0.000003097276    -0.000000827115
       2       -0.000032759349    -0.000053746855     0.000017561517
       3        0.000009388288     0.000489853582     0.000081633366
       4        0.000002978633     0.000004916907    -0.000002842212
       5       -0.000001014705     0.000002570456    -0.000007896165
       6       -0.000000716202    -0.000028184178    -0.000026479799
       7        0.000147161462    -0.000402777746    -0.000080580498
       8        0.000022674170    -0.000272470916     0.000005011597
       9       -0.000003631783     0.000008557991     0.000000461728
      10       -0.000000523937     0.000008104226     0.000003044363
      11        0.000002619158    -0.000007339489    -0.000007921244
      12       -0.000082225521     0.000256401433     0.000029840696
      13       -0.000066013046    -0.000002788132    -0.000011006235

  **** Optimization is complete! (in 7 steps) ****
    Final optimized geometry and variables:
    Molecular point group: c1

    Geometry (in Angstrom), charge = 0, multiplicity = 1:

    H           -2.374812443148    -1.298279880717    -0.400170868959
    C           -1.373949930841    -1.274211785063     0.011984686148
    C           -0.685343073222    -0.006276540831    -0.462662218697
    H           -0.846869993147    -2.156295975308    -0.328408595006
    H           -1.438707760426    -1.301976719849     1.089597739385
    C           -1.344780399012     1.270770875480     0.036949884919
    N            0.742825577392    -0.004832392496     0.005159700996
    H           -0.600958959709     0.005823825507    -1.536140581418
    H           -2.352388732911     1.320046998659    -0.355077684247
    H           -0.805508483791     2.145671955570    -0.302311338589
    H           -1.390847115206     1.282598486926     1.116892170861
    O            1.580131671124     0.190865524865    -0.810028858397
    O            0.941538375130    -0.179192568995     1.160996596020

  Mulliken Charges: (a.u.)
   Center  Symbol    Alpha    Beta     Spin     Total
       1     H     0.44953  0.44953  0.00000  0.10094
       2     C     3.14472  3.14472  0.00000 -0.28943
       3     C     3.00766  3.00766  0.00000 -0.01532
       4     H     0.44128  0.44128  0.00000  0.11743
       5     H     0.43813  0.43813  0.00000  0.12374
       6     C     3.14366  3.14366  0.00000 -0.28733
       7     N     3.27525  3.27525  0.00000  0.44951
       8     H     0.42480  0.42480  0.00000  0.15041
       9     H     0.44870  0.44870  0.00000  0.10260
      10     H     0.43977  0.43977  0.00000  0.12047
      11     H     0.43984  0.43984  0.00000  0.12033
      12     O     4.16913  4.16913  0.00000 -0.33825
      13     O     4.17755  4.17755  0.00000 -0.35510

   Total alpha = 24.00000, Total beta = 24.00000, Total charge =  0.00000

*** Psi4 exiting successfully. Buy a developer a beer!
