                              Psi4 1.0.54 Driver

  ==> Input File <==

--------------------------------------------------------------------------
set {
	reference rhf
	basis cc-pvtz
}

set_num_threads( 4 )
memory 2 gb

molecule MOL {
0 1

H	 3.459101	 0.139266	 -0.762951
C	 2.749156	 -0.051729	 0.031265
C	 1.322304	 0.099773	 -0.484271
H	 2.929445	 -1.053887	 0.403481
H	 2.954281	 0.646699	 0.834672
C	 0.308557	 -0.162619	 0.622645
H	 1.143368	 -0.594400	 -1.295960
H	 1.169532	 1.100095	 -0.870217
N	 -1.069352	 -0.004081	 0.085342
H	 0.371632	 -1.172932	 0.991288
H	 0.400391	 0.548875	 1.426218
O	 -1.205075	 -0.077069	 -1.089745
O	 -1.934539	 0.213483	 0.865765

	symmetry c1
}
set optking {
	frozen_dihedral = ("
		12 9 6 3
	")
}

ee,wfn = optimize('scf', return_wfn=True)
oeprop( wfn, 'DIPOLE', 'QUADRUPOLE', 'MULLIKEN_CHARGES')
f=open( 'psi4out.xyz', 'w' )
f.write( "13  " )
f.write( str(ee) + "\n" )
f.write( MOL.save_string_xyz() )
f.close()
--------------------------------------------------------------------------

    Molecular point group: c1
  Charge       = 0
  Multiplicity = 1
  Basis Set: CC-PVTZ
  Basis Set:
  @DF-RHF Final Energy:  -321.85880253107786
    Total Energy =                       -321.8588025310777425
    Molecular point group: c1
  Basis Set: CC-PVTZ
  Basis Set:
  Basis Set: CC-PVTZ
  Basis Set:
  @DF-RHF Final Energy:  -321.85681389901924
    Total Energy =                       -321.8568138990192438
  Basis Set: CC-PVTZ
  Basis Set:
  Basis Set: CC-PVTZ
  Basis Set:
  @DF-RHF Final Energy:  -321.85561999382924
    Total Energy =                       -321.8556199938291797
  Basis Set: CC-PVTZ
  Basis Set:
  Basis Set: CC-PVTZ
  Basis Set:
  @DF-RHF Final Energy:  -321.85866333965248
    Total Energy =                       -321.8586633396525940
  Basis Set: CC-PVTZ
  Basis Set:
  Basis Set: CC-PVTZ
  Basis Set:
  @DF-RHF Final Energy:  -321.85930247385744
    Total Energy =                       -321.8593024738574400
  Basis Set: CC-PVTZ
  Basis Set:
  Basis Set: CC-PVTZ
  Basis Set:
  @DF-RHF Final Energy:  -321.86055893151183
    Total Energy =                       -321.8605589315117186
  Basis Set: CC-PVTZ
  Basis Set:
  Basis Set: CC-PVTZ
  Basis Set:
  @DF-RHF Final Energy:  -321.86059740501662
    Total Energy =                       -321.8605974050168470
  Basis Set: CC-PVTZ
  Basis Set:
  Charge       = 0
  Multiplicity = 1
  Basis Set: CC-PVTZ
  Basis Set:

    Orbital Energies (a.u.)
    -----------------------

    Doubly Occupied:

       1A    -20.592767     2A    -20.588544     3A    -15.838407
       4A    -11.299030     5A    -11.247400     6A    -11.235048
       7A     -1.637200     8A     -1.421236     9A     -1.131764
      10A     -1.026748    11A     -0.884873    12A     -0.827088
      13A     -0.763348    14A     -0.751341    15A     -0.730843
      16A     -0.658520    17A     -0.607153    18A     -0.577261
      19A     -0.553505    20A     -0.522311    21A     -0.509751
      22A     -0.488083    23A     -0.474513    24A     -0.453862

  @DF-RHF Final Energy:  -321.86059809505281

   => Energetics <=

    Nuclear Repulsion Energy =            247.6369906987278569
    One-Electron Energy =                -929.3539864066075324
    Two-Electron Energy =                 359.8563976128268678
    DFT Exchange-Correlation Energy =       0.0000000000000000
    Empirical Dispersion Energy =           0.0000000000000000
    PCM Polarization Energy =               0.0000000000000000
    EFP Energy =                            0.0000000000000000
    Total Energy =                       -321.8605980950528647
    Molecular point group: c1
  Basis Set: CC-PVTZ
  Basis Set:

  -Total Gradient:
     Atom            X                  Y                   Z
    ------   -----------------  -----------------  -----------------
       1        0.000003899739     0.000008351358     0.000002174372
       2        0.000021826398     0.000023331860     0.000009485786
       3       -0.000061252219    -0.000237273463    -0.000042094117
       4       -0.000012482794    -0.000002989457    -0.000010954919
       5       -0.000003325169    -0.000001113056     0.000003232013
       6        0.000073411908     0.000334351828     0.000091309335
       7       -0.000009443171    -0.000011543382     0.000027979678
       8       -0.000002226390     0.000017697068    -0.000001114080
       9        0.000044973178    -0.000386920835     0.000024202766
      10        0.000034694663    -0.000005159226    -0.000011419656
      11        0.000034716685     0.000000396605    -0.000015798432
      12       -0.000058744661     0.000272027307     0.000064707276
      13       -0.000066048168    -0.000011156605    -0.000141710021

  **** Optimization is complete! (in 8 steps) ****
    Final optimized geometry and variables:
    Molecular point group: c1

    Geometry (in Angstrom), charge = 0, multiplicity = 1:

    H            3.500039243197     0.079679223735    -0.782296764910
    C            2.771215739299    -0.113435549177    -0.006016866596
    C            1.357016841129     0.085618943284    -0.544589604065
    H            2.922217282151    -1.128957919957     0.343513996804
    H            2.981276146902     0.557676513179     0.819416902219
    C            0.332982359912    -0.180618475763     0.539935489638
    H            1.178362236895    -0.573586099877    -1.381700838101
    H            1.238056703349     1.098031804357    -0.910436954201
    N           -1.079331010554     0.025600771138     0.098312956316
    H            0.358432250697    -1.206881601943     0.880453491885
    H            0.451375815167     0.460791817994     1.397972077507
    O           -1.317124299401     0.010062047790    -1.061067806475
    O           -1.880718042187     0.168842247263     0.959884089271

  Mulliken Charges: (a.u.)
   Center  Symbol    Alpha    Beta     Spin     Total
       1     H     0.44128  0.44128  0.00000  0.11744
       2     C     3.15254  3.15254  0.00000 -0.30508
       3     C     3.09166  3.09166  0.00000 -0.18333
       4     H     0.45305  0.45305  0.00000  0.09390
       5     H     0.45294  0.45294  0.00000  0.09413
       6     C     3.04589  3.04589  0.00000 -0.09178
       7     H     0.43635  0.43635  0.00000  0.12729
       8     H     0.44209  0.44209  0.00000  0.11581
       9     N     3.27370  3.27370  0.00000  0.45261
      10     H     0.43518  0.43518  0.00000  0.12965
      11     H     0.43209  0.43209  0.00000  0.13581
      12     O     4.16980  4.16980  0.00000 -0.33959
      13     O     4.17343  4.17343  0.00000 -0.34687

   Total alpha = 24.00000, Total beta = 24.00000, Total charge =  0.00000

*** Psi4 exiting successfully. Buy a developer a beer!
