                              Psi4 1.0.54 Driver

  ==> Input File <==

--------------------------------------------------------------------------
set {
	reference rhf
	basis cc-pvtz
}

set_num_threads( 4 )
memory 2 gb

molecule MOL {
0 1

H	 -2.781808	 -1.056415	 -0.169428
N	 -1.849889	 -0.932170	 0.163978
C	 -1.376901	 0.414041	 -0.100862
H	 -1.270628	 -1.596146	 -0.304626
C	 0.038895	 0.586414	 0.399597
H	 -1.403360	 0.682884	 -1.156119
H	 -2.011483	 1.115566	 0.429438
O	 0.881195	 -0.248324	 -0.336237
H	 0.347640	 1.624520	 0.284773
H	 0.086766	 0.331336	 1.455804
C	 2.208068	 -0.234417	 0.074171
H	 2.725499	 -1.027054	 -0.446768
H	 2.688377	 0.712084	 -0.164856
H	 2.295137	 -0.403407	 1.144883

	symmetry c1
}
set optking {
	frozen_dihedral = ("
		5 8 11 13
	")
}

ee,wfn = optimize('scf', return_wfn=True)
oeprop( wfn, 'DIPOLE', 'QUADRUPOLE', 'MULLIKEN_CHARGES')
f=open( 'psi4out.xyz', 'w' )
f.write( "14  " )
f.write( str(ee) + "\n" )
f.write( MOL.save_string_xyz() )
f.close()
--------------------------------------------------------------------------

    Molecular point group: c1
  Charge       = 0
  Multiplicity = 1
  Basis Set: CC-PVTZ
  Basis Set:
  @DF-RHF Final Energy:  -248.22597632404728
    Total Energy =                       -248.2259763240476218
    Molecular point group: c1
  Basis Set: CC-PVTZ
  Basis Set:
  Basis Set: CC-PVTZ
  Basis Set:
  @DF-RHF Final Energy:  -248.22598593061264
    Total Energy =                       -248.2259859306124667
  Basis Set: CC-PVTZ
  Basis Set:
  Charge       = 0
  Multiplicity = 1
  Basis Set: CC-PVTZ
  Basis Set:

    Orbital Energies (a.u.)
    -----------------------

    Doubly Occupied:

       1A    -20.550634     2A    -15.523516     3A    -11.263987
       4A    -11.263605     5A    -11.239886     6A     -1.384387
       7A     -1.176003     8A     -1.000665     9A     -0.907679
      10A     -0.815721    11A     -0.685179    12A     -0.676226
      13A     -0.647319    14A     -0.611943    15A     -0.607975
      16A     -0.541985    17A     -0.530820    18A     -0.497851
      19A     -0.474319    20A     -0.420087    21A     -0.383873

  @DF-RHF Final Energy:  -248.22598676567557

   => Energetics <=

    Nuclear Repulsion Energy =            194.6743862245832304
    One-Electron Energy =                -723.3934203638921190
    Two-Electron Energy =                 280.4930473736333170
    DFT Exchange-Correlation Energy =       0.0000000000000000
    Empirical Dispersion Energy =           0.0000000000000000
    PCM Polarization Energy =               0.0000000000000000
    EFP Energy =                            0.0000000000000000
    Total Energy =                       -248.2259867656755432
    Molecular point group: c1
  Basis Set: CC-PVTZ
  Basis Set:

  -Total Gradient:
     Atom            X                  Y                   Z
    ------   -----------------  -----------------  -----------------
       1       -0.000005259461     0.000003722846     0.000001880476
       2       -0.000002138726    -0.000005858400     0.000006849696
       3        0.000028090141     0.000000011303    -0.000046551395
       4        0.000000770446     0.000006080480     0.000006288563
       5       -0.000218547841    -0.000800108877     0.000744743202
       6       -0.000020000009     0.000003324043    -0.000012065755
       7        0.000011552655    -0.000005405735    -0.000001210338
       8        0.000386587875     0.000986054552    -0.001262236356
       9        0.000003662712    -0.000007689519    -0.000015893464
      10        0.000000553021     0.000008660909     0.000002752454
      11       -0.000526969843     0.000295938028     0.001737840316
      12       -0.000000898736     0.000012785030     0.000005376232
      13        0.000366688743    -0.000480945004    -0.001172033945
      14       -0.000024090977    -0.000016569655     0.000004260314

  **** Optimization is complete! (in 3 steps) ****
    Final optimized geometry and variables:
    Molecular point group: c1

    Geometry (in Angstrom), charge = 0, multiplicity = 1:

    H           -2.772490983497    -0.956643259192    -0.207381077349
    N           -1.841612528029    -0.832024474712     0.128745115240
    C           -1.367620352524     0.513788789534    -0.136170656516
    H           -1.261053858363    -1.496693227448    -0.337193615772
    C            0.047102319370     0.686056441801     0.367610352355
    H           -1.391534211372     0.781783023886    -1.191709383829
    H           -2.003131086467     1.216154282427     0.391935595043
    O            0.890108973320    -0.151417064184    -0.364428649082
    H            0.355915790943     1.724262518958     0.252213993280
    H            0.092698811268     0.432122369874     1.423928052066
    C            2.218749654719    -0.134604670421     0.040944585298
    H            2.735505636702    -0.925036021257    -0.484621552466
    H            2.697294270285     0.810861922882    -0.205497920137
    H            2.313039774486    -0.306910303126     1.110010331338

  Mulliken Charges: (a.u.)
   Center  Symbol    Alpha    Beta     Spin     Total
       1     H     0.43024  0.43024  0.00000  0.13953
       2     N     3.69420  3.69420  0.00000 -0.38839
       3     C     3.02197  3.02197  0.00000 -0.04394
       4     H     0.42247  0.42247  0.00000  0.15507
       5     C     2.96946  2.96946  0.00000  0.06107
       6     H     0.46451  0.46451  0.00000  0.07097
       7     H     0.45869  0.45869  0.00000  0.08261
       8     O     4.18025  4.18025  0.00000 -0.36051
       9     H     0.47050  0.47050  0.00000  0.05901
      10     H     0.46767  0.46767  0.00000  0.06466
      11     C     3.03162  3.03162  0.00000 -0.06324
      12     H     0.44795  0.44795  0.00000  0.10410
      13     H     0.46926  0.46926  0.00000  0.06147
      14     H     0.47121  0.47121  0.00000  0.05758

   Total alpha = 21.00000, Total beta = 21.00000, Total charge = -0.00000

*** Psi4 exiting successfully. Buy a developer a beer!
