  ==> Input File <==

--------------------------------------------------------------------------
set {
	reference rhf
	basis 6-31G*
}

set_num_threads( 1 )
memory 2 gb

molecule MOL {
0 1

O	 -2.821601	 1.309235	 -0.001213
C	 -2.668563	 0.129746	 -0.000350
C	 -3.801572	 -0.864014	 -0.000442
O	 -1.481751	 -0.454642	 0.000584
H	 -4.417280	 -0.689587	 -0.874708
H	 -3.443784	 -1.883046	 -0.000565
H	 -4.417179	 -0.689832	 0.873954
C	 -0.334255	 0.388708	 0.000906
C	 0.891947	 -0.504646	 0.000751
H	 -0.365390	 1.025305	 -0.873475
H	 -0.365484	 1.024911	 0.875569
C	 2.191998	 0.301789	 0.000897
H	 0.855148	 -1.151283	 -0.871571
H	 0.855132	 -1.151660	 0.872805
C	 3.409431	 -0.530257	 -0.406394
H	 2.094803	 1.148744	 -0.676086
H	 2.360126	 0.720695	 0.991520
C	 4.707688	 0.275593	 -0.407529
H	 3.243255	 -0.949337	 -1.396259
H	 3.509411	 -1.375782	 0.270482
H	 4.650969	 1.109774	 -1.101027
H	 5.551858	 -0.340799	 -0.700230
H	 4.919303	 0.679829	 0.578281

	symmetry c1
}
set optking {
	frozen_dihedral = ("
		13 9 8 10,
		2 4 8 10,
		19 15 12 16,
		1 2 4 8
	")
}

ee = energy('scf')
oeprop('DIPOLE', 'QUADRUPOLE', 'MULLIKEN_CHARGES')
f=open( 'psi4out.xyz', 'w' )
f.write( "23  " )
f.write( str(ee) + "\n" )
f.write( MOL.save_string_xyz() )
f.close()
--------------------------------------------------------------------------

    Molecular point group: c1

    Geometry (in Angstrom), charge = 0, multiplicity = 1:

       Center              X                  Y                   Z               Mass
    ------------   -----------------  -----------------  -----------------  -----------------
           O         -2.814505234905     1.297779397290     0.089511474594    15.994914619560
           C         -2.661467234905     0.118290397290     0.090374474594    12.000000000000
           C         -3.794476234905    -0.875469602710     0.090282474594    12.000000000000
           O         -1.474655234905    -0.466097602710     0.091308474594    15.994914619560
           H         -4.410184234905    -0.701042602710    -0.783983525406     1.007825032070
           H         -3.436688234905    -1.894501602710     0.090159474594     1.007825032070
           H         -4.410083234905    -0.701287602710     0.964678474594     1.007825032070
           C         -0.327159234905     0.377252397290     0.091630474594    12.000000000000
           C          0.899042765095    -0.516101602710     0.091475474594    12.000000000000
           H         -0.358294234905     1.013849397290    -0.782750525406     1.007825032070
           H         -0.358388234905     1.013455397290     0.966293474594     1.007825032070
           C          2.199093765095     0.290333397290     0.091621474594    12.000000000000
           H          0.862243765095    -1.162738602710    -0.780846525406     1.007825032070
           H          0.862227765095    -1.163115602710     0.963529474594     1.007825032070
           C          3.416526765095    -0.541712602710    -0.315669525406    12.000000000000
           H          2.101898765095     1.137288397290    -0.585361525406     1.007825032070
           H          2.367221765095     0.709239397290     1.082244474594     1.007825032070
           C          4.714783765095     0.264137397290    -0.316804525406    12.000000000000
           H          3.250350765095    -0.960792602710    -1.305534525406     1.007825032070
           H          3.516506765095    -1.387237602710     0.361206474594     1.007825032070
           H          4.658064765095     1.098318397290    -1.010302525406     1.007825032070
           H          5.558953765095    -0.352254602710    -0.609505525406     1.007825032070
           H          4.926398765095     0.668373397290     0.669005474594     1.007825032070

  Charge       = 0
  Multiplicity = 1
  Basis Set: 6-31G*
  Basis Set:

    Orbital Energies (a.u.)
    -----------------------

    Doubly Occupied:

       1A    -20.602975     2A    -20.540576     3A    -11.374090
       4A    -11.281602     5A    -11.232410     6A    -11.224177
       7A    -11.223583     8A    -11.221751     9A    -11.212910
      10A     -1.467980    11A     -1.360758    12A     -1.094296
      13A     -1.042220    14A     -1.003431    15A     -0.930895
      16A     -0.841760    17A     -0.802720    18A     -0.774616
      19A     -0.691903    20A     -0.685058    21A     -0.668405
      22A     -0.645773    23A     -0.606639    24A     -0.588189
      25A     -0.582127    26A     -0.567286    27A     -0.558796
      28A     -0.536772    29A     -0.523496    30A     -0.504560
      31A     -0.491564    32A     -0.478231    33A     -0.470368
      34A     -0.465413    35A     -0.451142    36A     -0.435343

  @DF-RHF Final Energy:  -422.97860754608308

   => Energetics <=

    Nuclear Repulsion Energy =            449.8075353830993777
    One-Electron Energy =               -1467.2048507657830214
    Two-Electron Energy =                 594.4187078365997650
    DFT Exchange-Correlation Energy =       0.0000000000000000
    Empirical Dispersion Energy =           0.0000000000000000
    PCM Polarization Energy =               0.0000000000000000
    EFP Energy =                            0.0000000000000000
    Total Energy =                       -422.9786075460839356

  Mulliken Charges: (a.u.)
   Center  Symbol    Alpha    Beta     Spin     Total
       1     O     4.28390  4.28390  0.00000 -0.56779
       2     C     2.61535  2.61535  0.00000  0.76930
       3     C     3.28775  3.28775  0.00000 -0.57551
       4     O     4.31267  4.31267  0.00000 -0.62535
       5     H     0.39751  0.39751  0.00000  0.20499
       6     H     0.39985  0.39985  0.00000  0.20030
       7     H     0.39750  0.39750  0.00000  0.20499
       8     C     2.99658  2.99658  0.00000  0.00684
       9     C     3.16475  3.16475  0.00000 -0.32950
      10     H     0.41048  0.41048  0.00000  0.17905
      11     H     0.41065  0.41065  0.00000  0.17871
      12     C     3.16044  3.16044  0.00000 -0.32087
      13     H     0.41427  0.41427  0.00000  0.17146
      14     H     0.41343  0.41343  0.00000  0.17314
      15     C     3.15192  3.15192  0.00000 -0.30385
      16     H     0.42127  0.42127  0.00000  0.15746
      17     H     0.41941  0.41941  0.00000  0.16119
      18     C     3.24001  3.24001  0.00000 -0.48003
      19     H     0.42130  0.42130  0.00000  0.15739
      20     H     0.42128  0.42128  0.00000  0.15744
      21     H     0.42075  0.42075  0.00000  0.15850
      22     H     0.41801  0.41801  0.00000  0.16397
      23     H     0.42091  0.42091  0.00000  0.15817

   Total alpha = 36.00000, Total beta = 36.00000, Total charge =  0.00000
