  ==> Input File <==

--------------------------------------------------------------------------
set {
	reference rhf
	basis 6-31G*
}

set_num_threads( 4 )
memory 2 gb

molecule MOL {
0 1

H	 -4.236417	 0.340452	 0.288925
O	 -3.517110	 -0.026191	 -0.205115
C	 -2.306886	 0.532354	 0.237577
C	 -1.177863	 -0.397191	 -0.171080
H	 -2.156308	 1.517575	 -0.201710
H	 -2.315015	 0.655684	 1.319734
C	 0.198102	 0.111031	 0.262842
H	 -1.208843	 -0.518759	 -1.250427
H	 -1.368741	 -1.376554	 0.258909
C	 1.331804	 -0.827780	 -0.158768
H	 0.361943	 1.100838	 -0.156218
H	 0.217265	 0.229072	 1.345532
C	 2.723619	 -0.410569	 0.329459
H	 1.342964	 -0.912588	 -1.244120
H	 1.116806	 -1.824343	 0.220779
C	 3.243875	 0.895854	 -0.272975
H	 3.424222	 -1.207124	 0.091250
H	 2.714788	 -0.329854	 1.414619
H	 3.251977	 0.848779	 -1.358681
H	 2.637085	 1.747371	 0.016682
H	 4.259473	 1.094070	 0.055697

	symmetry c1
}
set optking {
	frozen_dihedral = ("
		1 2 3 5
	")
}

ee = optimize('scf')
oeprop('DIPOLE', 'QUADRUPOLE', 'MULLIKEN_CHARGES')
f=open( 'psi4out.xyz', 'w' )
f.write( "21  " )
f.write( str(ee) + "\n" )
f.write( MOL.save_string_xyz() )
f.close()
--------------------------------------------------------------------------

    Molecular point group: c1
  Charge       = 0
  Multiplicity = 1
  Basis Set: 6-31G*
  Basis Set:
  @DF-RHF Final Energy:  -310.21228528959398
    Total Energy =                       -310.2122852895938081
    Molecular point group: c1
  Basis Set: 6-31G*
  Basis Set:
  Basis Set: 6-31G*
  Basis Set:
  @DF-RHF Final Energy:  -310.21230634067746
    Total Energy =                       -310.2123063406775714
  Basis Set: 6-31G*
  Basis Set:
  Basis Set: 6-31G*
  Basis Set:
  @DF-RHF Final Energy:  -310.21231457666039
    Total Energy =                       -310.2123145766603329
  Basis Set: 6-31G*
  Basis Set:
  Charge       = 0
  Multiplicity = 1
  Basis Set: 6-31G*
  Basis Set:

    Orbital Energies (a.u.)
    -----------------------

    Doubly Occupied:

       1A    -20.551490     2A    -11.267140     3A    -11.215584
       4A    -11.215145     5A    -11.213574     6A    -11.210396
       7A    -11.208097     8A     -1.358239     9A     -1.086170
      10A     -1.033092    11A     -0.954363    12A     -0.875761
      13A     -0.807298    14A     -0.778907    15A     -0.694271
      16A     -0.659329    17A     -0.621005    18A     -0.608880
      19A     -0.585981    20A     -0.567961    21A     -0.538367
      22A     -0.520500    23A     -0.508318    24A     -0.489901
      25A     -0.476960    26A     -0.460374    27A     -0.455819
      28A     -0.447928    29A     -0.429772

  @DF-RHF Final Energy:  -310.21231431424314

   => Energetics <=

    Nuclear Repulsion Energy =            312.4220403020334516
    One-Electron Energy =               -1039.5874653707842299
    Two-Electron Energy =                 416.9531107545072359
    DFT Exchange-Correlation Energy =       0.0000000000000000
    Empirical Dispersion Energy =           0.0000000000000000
    PCM Polarization Energy =               0.0000000000000000
    EFP Energy =                            0.0000000000000000
    Total Energy =                       -310.2123143142435424
    Molecular point group: c1
  Basis Set: 6-31G*
  Basis Set:

  -Total Gradient:
     Atom            X                  Y                   Z
    ------   -----------------  -----------------  -----------------
       1        0.000145773362    -0.001187051190     0.001025066832
       2        0.000047925019     0.001290179560    -0.001522873300
       3       -0.000833184390     0.000586764323     0.001546433326
       4       -0.000002609402    -0.000012299306     0.000005750434
       5        0.000678624019    -0.000553498177    -0.001061939746
       6       -0.000013310754    -0.000067853305    -0.000045889558
       7       -0.000020148261     0.000001164716     0.000033268084
       8       -0.000016682362    -0.000016069618    -0.000004096982
       9        0.000029061186    -0.000019347271     0.000008496912
      10       -0.000003574035    -0.000014653664    -0.000007417531
      11       -0.000005063484     0.000004597107     0.000017813899
      12        0.000011167058    -0.000007955725     0.000027862906
      13        0.000007226094     0.000001729503    -0.000033399965
      14       -0.000006059150    -0.000023540218    -0.000002866077
      15        0.000011301941     0.000013736569     0.000014854771
      16       -0.000005841252     0.000002256261     0.000004842308
      17        0.000000305988     0.000001678739    -0.000007875899
      18       -0.000002328866    -0.000007831879    -0.000003361837
      19        0.000002460804    -0.000001940137     0.000003165896
      20       -0.000024304359     0.000004549161     0.000000071983
      21       -0.000000739141     0.000005384549     0.000002093546

  **** Optimization is complete! (in 4 steps) ****
    Final optimized geometry and variables:
    Molecular point group: c1

    Geometry (in Angstrom), charge = 0, multiplicity = 1:

    H           -4.242236484077     0.363671580941     0.246632411298
    O           -3.515452135810    -0.003872910549    -0.234513479312
    C           -2.306762987034     0.528847140092     0.245694691358
    C           -1.177596568159    -0.402731827904    -0.161178054361
    H           -2.136105564145     1.517967059956    -0.176278855568
    H           -2.332833269287     0.630694978120     1.328986249780
    C            0.198810748194     0.106249284980     0.270339278771
    H           -1.209084988059    -0.523862246642    -1.240702645239
    H           -1.368013232087    -1.382600187920     0.267904606433
    C            1.332732276795    -0.830972749394    -0.154230418589
    H            0.360455737614     1.096403738003    -0.148480086616
    H            0.220617199553     0.223924886995     1.353221887682
    C            2.725971700681    -0.408706420256     0.325516632860
    H            1.338413965735    -0.918799752770    -1.239375948808
    H            1.122362281662    -1.827050198738     0.229215904780
    C            3.238221158501     0.899022661895    -0.280933155822
    H            3.427875948488    -1.203070149993     0.083834919999
    H            2.723225703635    -0.327160244156     1.410669080692
    H            3.240554138930     0.850940615609    -1.366605122484
    H            2.629903244545     1.748591907305     0.011198184679
    H            4.254871078587     1.101227141385     0.042017264592

  Mulliken Charges: (a.u.)
   Center  Symbol    Alpha    Beta     Spin     Total
       1     H     0.28082  0.28082  0.00000  0.43836
       2     O     4.37245  4.37245  0.00000 -0.74490
       3     C     2.98989  2.98989  0.00000  0.02021
       4     C     3.15845  3.15845  0.00000 -0.31689
       5     H     0.43109  0.43109  0.00000  0.13781
       6     H     0.43330  0.43330  0.00000  0.13339
       7     C     3.16209  3.16209  0.00000 -0.32417
       8     H     0.41420  0.41420  0.00000  0.17159
       9     H     0.41646  0.41646  0.00000  0.16707
      10     C     3.15168  3.15168  0.00000 -0.30337
      11     H     0.42107  0.42107  0.00000  0.15786
      12     H     0.42473  0.42473  0.00000  0.15054
      13     C     3.15249  3.15249  0.00000 -0.30497
      14     H     0.42284  0.42284  0.00000  0.15432
      15     H     0.42120  0.42120  0.00000  0.15759
      16     C     3.24119  3.24119  0.00000 -0.48239
      17     H     0.42065  0.42065  0.00000  0.15871
      18     H     0.42370  0.42370  0.00000  0.15261
      19     H     0.42187  0.42187  0.00000  0.15627
      20     H     0.42056  0.42056  0.00000  0.15888
      21     H     0.41927  0.41927  0.00000  0.16146

   Total alpha = 29.00000, Total beta = 29.00000, Total charge =  0.00000
