                              Psi4 1.0.54 Driver

  ==> Input File <==

--------------------------------------------------------------------------
set {
	reference rhf
	basis cc-pvtz
}

set_num_threads( 4 )
memory 2 gb

molecule MOL {
0 1

H	 -3.556121	 0.399419	 -0.386883
O	 -3.096687	 -0.299633	 0.042771
C	 -1.770286	 -0.103384	 0.012028
C	 -1.202985	 1.011388	 -0.592860
C	 -0.967645	 -1.060151	 0.610815
H	 -1.832260	 1.749332	 -1.055329
C	 0.163225	 1.163557	 -0.595842
H	 -1.425321	 -1.912284	 1.071708
C	 0.398705	 -0.892886	 0.599177
H	 0.613174	 2.019113	 -1.059177
C	 0.981121	 0.213562	 0.000000
H	 1.022362	 -1.634535	 1.063425
C	 2.447402	 0.371303	 0.000000
O	 3.227427	 -0.521847	 0.000000
H	 2.796538	 1.409525	 0.000000

	symmetry c1
}
set optking {
	frozen_dihedral = ("
		7 11 13 14
	")
}

ee,wfn = optimize('scf', return_wfn=True)
oeprop( wfn, 'DIPOLE', 'QUADRUPOLE', 'MULLIKEN_CHARGES')
f=open( 'psi4out.xyz', 'w' )
f.write( "15  " )
f.write( str(ee) + "\n" )
f.write( MOL.save_string_xyz() )
f.close()
--------------------------------------------------------------------------

    Molecular point group: c1
  Charge       = 0
  Multiplicity = 1
  Basis Set: CC-PVTZ
  Basis Set:
  @DF-RHF Final Energy:  -418.43859187261290
    Total Energy =                       -418.4385918726133013
    Molecular point group: c1
  Basis Set: CC-PVTZ
  Basis Set:
  Basis Set: CC-PVTZ
  Basis Set:
  @DF-RHF Final Energy:  -418.43757857182669
    Total Energy =                       -418.4375785718266343
  Basis Set: CC-PVTZ
  Basis Set:
  Basis Set: CC-PVTZ
  Basis Set:
  @DF-RHF Final Energy:  -418.43908093239907
    Total Energy =                       -418.4390809323990652
  Basis Set: CC-PVTZ
  Basis Set:
  Basis Set: CC-PVTZ
  Basis Set:
  @DF-RHF Final Energy:  -418.43943405677720
    Total Energy =                       -418.4394340567769177
  Basis Set: CC-PVTZ
  Basis Set:
  Basis Set: CC-PVTZ
  Basis Set:
  @DF-RHF Final Energy:  -418.43944936188905
    Total Energy =                       -418.4394493618888191
  Basis Set: CC-PVTZ
  Basis Set:
  Charge       = 0
  Multiplicity = 1
  Basis Set: CC-PVTZ
  Basis Set:

    Orbital Energies (a.u.)
    -----------------------

    Doubly Occupied:

       1A    -20.603522     2A    -20.548441     3A    -11.324102
       4A    -11.320749     5A    -11.259616     6A    -11.251676
       7A    -11.242084     8A    -11.237853     9A    -11.235734
      10A     -1.436482    11A     -1.404253    12A     -1.174751
      13A     -1.045911    14A     -1.039867    15A     -0.896437
      16A     -0.861460    17A     -0.806071    18A     -0.760851
      19A     -0.699898    20A     -0.690686    21A     -0.644242
      22A     -0.630285    23A     -0.614022    24A     -0.611023
      25A     -0.590150    26A     -0.562319    27A     -0.550050
      28A     -0.508789    29A     -0.491394    30A     -0.422512
      31A     -0.361082    32A     -0.331258

  @DF-RHF Final Energy:  -418.43945187574417

   => Energetics <=

    Nuclear Repulsion Energy =            402.2974779852197003
    One-Electron Energy =               -1367.1587183916064987
    Two-Electron Energy =                 546.4217885306426297
    DFT Exchange-Correlation Energy =       0.0000000000000000
    Empirical Dispersion Energy =           0.0000000000000000
    PCM Polarization Energy =               0.0000000000000000
    EFP Energy =                            0.0000000000000000
    Total Energy =                       -418.4394518757441119
    Molecular point group: c1
  Basis Set: CC-PVTZ
  Basis Set:

  -Total Gradient:
     Atom            X                  Y                   Z
    ------   -----------------  -----------------  -----------------
       1        0.000005598141    -0.000003258141     0.000005059450
       2       -0.000016307307     0.000030163377    -0.000014729011
       3        0.000048001278    -0.000245038359     0.000103497061
       4        0.000174695959     0.000154172021    -0.000021285000
       5       -0.000207139554     0.000092448034    -0.000071743835
       6       -0.000019333275    -0.000011837456     0.000010222218
       7       -0.000145636040    -0.002657242143    -0.004377014892
       8        0.000022472494    -0.000010269733     0.000006895335
       9        0.000136063117     0.000187328176    -0.000042946615
      10        0.000004972771    -0.000004532261     0.000014635732
      11       -0.000135574702     0.003547190071     0.003516577288
      12       -0.000007131511    -0.000015405833     0.000008538386
      13        0.000358771495    -0.000738573374     0.007135469772
      14       -0.000240689945    -0.000387365172    -0.006243974312
      15        0.000021237081     0.000062220790    -0.000029201577

  **** Optimization is complete! (in 6 steps) ****
    Final optimized geometry and variables:
    Molecular point group: c1

    Geometry (in Angstrom), charge = 0, multiplicity = 1:

    H           -3.555630043455     0.403367188315    -0.438742611426
    O           -3.096106971236    -0.290986793158    -0.001490705521
    C           -1.771006910261    -0.079842746733    -0.009979188162
    C           -1.202063049781     1.034887427059    -0.598229763873
    C           -0.969297659365    -1.037192968600     0.601729496707
    H           -1.822131320534     1.768176577843    -1.079761290750
    C            0.169438371118     1.195994654871    -0.560282898464
    H           -1.432787948668    -1.895020515630     1.046607580035
    C            0.392190570099    -0.873333720658     0.612290337331
    H            0.608285799352     2.066022580520    -1.013236680255
    C            0.978229329045     0.256716634858     0.048974109678
    H            1.021711950549    -1.617987616710     1.058302038007
    C            2.448398640611     0.393977663235    -0.024216834744
    O            3.210955067065    -0.512765072094    -0.014859886387
    H            2.811433006826     1.420118751259    -0.150547808335

  Mulliken Charges: (a.u.)
   Center  Symbol    Alpha    Beta     Spin     Total
       1     H     0.38587  0.38587  0.00000  0.22825
       2     O     4.16659  4.16659  0.00000 -0.33319
       3     C     2.84619  2.84619  0.00000  0.30763
       4     C     3.13432  3.13432  0.00000 -0.26864
       5     C     3.10390  3.10390  0.00000 -0.20780
       6     H     0.43217  0.43217  0.00000  0.13566
       7     C     3.07616  3.07616  0.00000 -0.15232
       8     H     0.41585  0.41585  0.00000  0.16831
       9     C     3.06314  3.06314  0.00000 -0.12627
      10     H     0.42161  0.42161  0.00000  0.15679
      11     C     2.99196  2.99196  0.00000  0.01607
      12     H     0.41015  0.41015  0.00000  0.17970
      13     C     2.91887  2.91887  0.00000  0.16226
      14     O     4.17279  4.17279  0.00000 -0.34557
      15     H     0.46044  0.46044  0.00000  0.07913

   Total alpha = 32.00000, Total beta = 32.00000, Total charge = -0.00000

*** Psi4 exiting successfully. Buy a developer a beer!
