                              Psi4 1.0.54 Driver

  ==> Input File <==

--------------------------------------------------------------------------
set {
	reference rhf
	basis cc-pvtz
}

set_num_threads( 4 )
memory 2 gb

molecule MOL {
0 1

O	 -2.071633	 -1.227563	 -0.223463
C	 -1.652164	 -0.152425	 0.058082
C	 -0.327811	 0.006324	 0.778296
C	 -2.402515	 1.108629	 -0.298924
C	 0.843231	 -0.001575	 -0.211665
H	 -0.319484	 0.928173	 1.350354
H	 -0.227804	 -0.823091	 1.466705
C	 2.197693	 0.138030	 0.476937
H	 0.722944	 0.805202	 -0.930230
H	 0.813976	 -0.926978	 -0.776588
C	 3.184855	 -0.950801	 0.070586
H	 2.619942	 1.112502	 0.247514
H	 2.054486	 0.112506	 1.553217
H	 3.375696	 -0.928309	 -0.997172
H	 2.803407	 -1.935799	 0.316849
H	 4.134117	 -0.826968	 0.578490
H	 -3.240910	 0.874416	 -0.936711
H	 -1.747554	 1.818823	 -0.790984
H	 -2.760419	 1.579708	 0.610998

	symmetry c1
}
set optking {
	frozen_dihedral = ("
		11 8 5 9
	")
}

ee,wfn = optimize('scf', return_wfn=True)
oeprop( wfn, 'DIPOLE', 'QUADRUPOLE', 'MULLIKEN_CHARGES')
f=open( 'psi4out.xyz', 'w' )
f.write( "19  " )
f.write( str(ee) + "\n" )
f.write( MOL.save_string_xyz() )
f.close()
--------------------------------------------------------------------------

    Molecular point group: c1
  Charge       = 0
  Multiplicity = 1
  Basis Set: CC-PVTZ
  Basis Set:
  @DF-RHF Final Energy:  -309.17163053938071
    Total Energy =                       -309.1716305393808284
    Molecular point group: c1
  Basis Set: CC-PVTZ
  Basis Set:
  Basis Set: CC-PVTZ
  Basis Set:
  @DF-RHF Final Energy:  -309.17187952408210
    Total Energy =                       -309.1718795240821009
  Basis Set: CC-PVTZ
  Basis Set:
  Basis Set: CC-PVTZ
  Basis Set:
  @DF-RHF Final Energy:  -309.17189832822362
    Total Energy =                       -309.1718983282235058
  Basis Set: CC-PVTZ
  Basis Set:
  Basis Set: CC-PVTZ
  Basis Set:
  @DF-RHF Final Energy:  -309.17193853466921
    Total Energy =                       -309.1719385346692093
  Basis Set: CC-PVTZ
  Basis Set:
  Basis Set: CC-PVTZ
  Basis Set:
  @DF-RHF Final Energy:  -309.17194686482031
    Total Energy =                       -309.1719468648200859
  Basis Set: CC-PVTZ
  Basis Set:
  Basis Set: CC-PVTZ
  Basis Set:
  @DF-RHF Final Energy:  -309.17195019928812
    Total Energy =                       -309.1719501992878918
  Basis Set: CC-PVTZ
  Basis Set:
  Charge       = 0
  Multiplicity = 1
  Basis Set: CC-PVTZ
  Basis Set:

    Orbital Energies (a.u.)
    -----------------------

    Doubly Occupied:

       1A    -20.537020     2A    -11.319243     3A    -11.228761
       4A    -11.228141     5A    -11.227021     6A    -11.222828
       7A    -11.212569     8A     -1.397028     9A     -1.090509
      10A     -1.029588    11A     -0.984267    12A     -0.890864
      13A     -0.807249    14A     -0.735896    15A     -0.658537
      16A     -0.652534    17A     -0.618253    18A     -0.615038
      19A     -0.589439    20A     -0.578908    21A     -0.546499
      22A     -0.533855    23A     -0.524314    24A     -0.498331
      25A     -0.481332    26A     -0.475132    27A     -0.466268
      28A     -0.398857

  @DF-RHF Final Energy:  -309.17195099065202

   => Energetics <=

    Nuclear Repulsion Energy =            302.1382149417842129
    One-Electron Energy =               -1017.5237665546006838
    Two-Electron Energy =                 406.2136006221644493
    DFT Exchange-Correlation Energy =       0.0000000000000000
    Empirical Dispersion Energy =           0.0000000000000000
    PCM Polarization Energy =               0.0000000000000000
    EFP Energy =                            0.0000000000000000
    Total Energy =                       -309.1719509906520216
    Molecular point group: c1
  Basis Set: CC-PVTZ
  Basis Set:

  -Total Gradient:
     Atom            X                  Y                   Z
    ------   -----------------  -----------------  -----------------
       1        0.000012474596     0.000001056644    -0.000018555563
       2       -0.000033820981     0.000025435234     0.000055327055
       3        0.000015020345     0.000010083143    -0.000033035012
       4        0.000006156849    -0.000002735345    -0.000017150619
       5        0.000885289837    -0.001799556009    -0.001380227372
       6        0.000011307850    -0.000013704472     0.000023830951
       7       -0.000013401718    -0.000018358374    -0.000019261337
       8        0.000469664770     0.001525828554    -0.001239929678
       9       -0.000901975407     0.001158296814     0.001465752531
      10        0.000014631819    -0.000008043357     0.000011968879
      11       -0.000477018028    -0.000873581532     0.001154385972
      12        0.000006063176    -0.000004947154     0.000001175653
      13        0.000004475154     0.000003142448    -0.000002654712
      14       -0.000000167460     0.000001579271    -0.000000927388
      15       -0.000001173315     0.000000677824    -0.000000707333
      16        0.000000305207    -0.000004344672    -0.000000427337
      17        0.000001204731    -0.000000139458    -0.000000391737
      18        0.000001609213    -0.000004755066     0.000001344142
      19       -0.000000646641     0.000004065505    -0.000000517095

  **** Optimization is complete! (in 7 steps) ****
    Final optimized geometry and variables:
    Molecular point group: c1

    Geometry (in Angstrom), charge = 0, multiplicity = 1:

    O           -2.062531405724    -1.059296407391    -0.312091319024
    C           -1.633254717533     0.012202688266    -0.030970263696
    C           -0.308426947800     0.158461040373     0.690656571332
    C           -2.371322011569     1.279853417276    -0.390278411544
    C            0.865356240428     0.140025751777    -0.298642517036
    H           -0.291290081053     1.080387031216     1.262609756104
    H           -0.215449121921    -0.671742637481     1.379257504937
    C            2.234227555853     0.293505195924     0.394627545934
    H            0.727699719907     0.940703654311    -1.018145037602
    H            0.827187495070    -0.789546407421    -0.853026395532
    C            3.237826668663    -0.782868819937    -0.007905218983
    H            2.647874977525     1.272694295665     0.180287513233
    H            2.101199202669     0.255137634003     1.470920433466
    H            3.423996395684    -0.766794099946    -1.076602113017
    H            2.868650024532    -1.770316367180     0.246927635509
    H            4.187099690256    -0.641411239767     0.495945210059
    H           -3.207922027973     1.053275253130    -1.033170398422
    H           -1.708364841589     1.986207796815    -0.877014567457
    H           -2.731076093421     1.751654822686     0.518581298800

  Mulliken Charges: (a.u.)
   Center  Symbol    Alpha    Beta     Spin     Total
       1     O     4.17685  4.17685  0.00000 -0.35370
       2     C     2.85898  2.85898  0.00000  0.28205
       3     C     3.10059  3.10059  0.00000 -0.20118
       4     C     3.15520  3.15520  0.00000 -0.31041
       5     C     3.10232  3.10232  0.00000 -0.20465
       6     H     0.44788  0.44788  0.00000  0.10423
       7     H     0.43901  0.43901  0.00000  0.12198
       8     C     3.08883  3.08883  0.00000 -0.17766
       9     H     0.44834  0.44834  0.00000  0.10332
      10     H     0.44104  0.44104  0.00000  0.11792
      11     C     3.14681  3.14681  0.00000 -0.29362
      12     H     0.44975  0.44975  0.00000  0.10050
      13     H     0.45371  0.45371  0.00000  0.09258
      14     H     0.45355  0.45355  0.00000  0.09291
      15     H     0.45262  0.45262  0.00000  0.09476
      16     H     0.44906  0.44906  0.00000  0.10189
      17     H     0.43609  0.43609  0.00000  0.12782
      18     H     0.45100  0.45100  0.00000  0.09801
      19     H     0.44837  0.44837  0.00000  0.10325

   Total alpha = 28.00000, Total beta = 28.00000, Total charge =  0.00000

*** Psi4 exiting successfully. Buy a developer a beer!
