  ==> Input File <==

--------------------------------------------------------------------------
set {
	reference rhf
	basis 6-31G*
}

set_num_threads( 1 )
memory 2 gb

molecule MOL {
0 1

H	 -3.420663	 1.227371	 -1.044276
O	 -3.452007	 0.283848	 -0.965577
C	 -3.181085	 -0.079926	 0.364119
C	 -1.765924	 0.277073	 0.805136
H	 -3.327791	 -1.152017	 0.410903
H	 -3.905698	 0.375695	 1.036898
C	 -0.677594	 -0.417312	 -0.014550
H	 -1.637766	 1.358238	 0.744969
H	 -1.659588	 0.017670	 1.857098
C	 0.738335	 -0.034840	 0.421385
H	 -0.814977	 -0.178223	 -1.064632
H	 -0.802730	 -1.495410	 0.071702
C	 1.822265	 -0.738362	 -0.399735
H	 0.853533	 1.043532	 0.342250
H	 0.871597	 -0.279636	 1.474438
C	 2.944026	 0.178548	 -0.900817
H	 1.361385	 -1.238411	 -1.250167
H	 2.265085	 -1.523778	 0.209238
C	 2.499327	 1.228313	 -1.920935
H	 3.717630	 -0.438623	 -1.351292
H	 3.409252	 0.674805	 -0.051407
H	 2.018713	 0.761490	 -2.776637
H	 3.350476	 1.793144	 -2.288832
H	 1.798500	 1.938319	 -1.494441

	symmetry c1
}
set optking {
	frozen_dihedral = ("
		20 16 13 17,
		13 10 7 11,
		11 7 4 3,
		1 2 3 5,
		7 4 3 2
	")
}

ee = energy('scf')
oeprop('DIPOLE', 'QUADRUPOLE', 'MULLIKEN_CHARGES')
f=open( 'psi4out.xyz', 'w' )
f.write( "24  " )
f.write( str(ee) + "\n" )
f.write( MOL.save_string_xyz() )
f.close()
--------------------------------------------------------------------------

    Molecular point group: c1

    Geometry (in Angstrom), charge = 0, multiplicity = 1:

       Center              X                  Y                   Z               Mass
    ------------   -----------------  -----------------  -----------------  -----------------
           H         -3.226437418340     1.120509349009    -0.696327999652     1.007825032070
           O         -3.257781418340     0.176986349009    -0.617628999652    15.994914619560
           C         -2.986859418340    -0.186787650991     0.712067000348    12.000000000000
           C         -1.571698418340     0.170211349009     1.153084000348    12.000000000000
           H         -3.133565418340    -1.258878650991     0.758851000348     1.007825032070
           H         -3.711472418340     0.268833349009     1.384846000348     1.007825032070
           C         -0.483368418340    -0.524173650991     0.333398000348    12.000000000000
           H         -1.443540418340     1.251376349009     1.092917000348     1.007825032070
           H         -1.465362418340    -0.089191650991     2.205046000348     1.007825032070
           C          0.932560581660    -0.141701650991     0.769333000348    12.000000000000
           H         -0.620751418340    -0.285084650991    -0.716683999652     1.007825032070
           H         -0.608504418340    -1.602271650991     0.419650000348     1.007825032070
           C          2.016490581660    -0.845223650991    -0.051786999652    12.000000000000
           H          1.047758581660     0.936670349009     0.690198000348     1.007825032070
           H          1.065822581660    -0.386497650991     1.822386000348     1.007825032070
           C          3.138251581660     0.071686349009    -0.552868999652    12.000000000000
           H          1.555610581660    -1.345272650991    -0.902218999652     1.007825032070
           H          2.459310581660    -1.630639650991     0.557186000348     1.007825032070
           C          2.693552581660     1.121451349009    -1.572986999652    12.000000000000
           H          3.911855581660    -0.545484650991    -1.003343999652     1.007825032070
           H          3.603477581660     0.567943349009     0.296541000348     1.007825032070
           H          2.212938581660     0.654628349009    -2.428688999652     1.007825032070
           H          3.544701581660     1.686282349009    -1.940883999652     1.007825032070
           H          1.992725581660     1.831457349009    -1.146492999652     1.007825032070

  Charge       = 0
  Multiplicity = 1
  Basis Set: 6-31G*
  Basis Set:

    Orbital Energies (a.u.)
    -----------------------

    Doubly Occupied:

       1A    -20.553401     2A    -11.267474     3A    -11.216838
       4A    -11.214159     5A    -11.211402     6A    -11.210787
       7A    -11.210066     8A    -11.207550     9A     -1.359997
      10A     -1.088721    11A     -1.047697    12A     -0.985142
      13A     -0.915672    14A     -0.849978    15A     -0.800752
      16A     -0.776227    17A     -0.678984    18A     -0.653612
      19A     -0.624443    20A     -0.618889    21A     -0.599652
      22A     -0.575031    23A     -0.569643    24A     -0.533936
      25A     -0.519076    26A     -0.510229    27A     -0.495126
      28A     -0.476194    29A     -0.467040    30A     -0.458387
      31A     -0.453602    32A     -0.448629    33A     -0.417941

  @DF-RHF Final Energy:  -349.24259425140303

   => Energetics <=

    Nuclear Repulsion Energy =            388.6862732864428835
    One-Electron Energy =               -1243.8249928193949927
    Two-Electron Energy =                 505.8961252815474836
    DFT Exchange-Correlation Energy =       0.0000000000000000
    Empirical Dispersion Energy =           0.0000000000000000
    PCM Polarization Energy =               0.0000000000000000
    EFP Energy =                            0.0000000000000000
    Total Energy =                       -349.2425942514046255

  Mulliken Charges: (a.u.)
   Center  Symbol    Alpha    Beta     Spin     Total
       1     H     0.28339  0.28339  0.00000  0.43322
       2     O     4.36835  4.36835  0.00000 -0.73669
       3     C     2.99612  2.99612  0.00000  0.00775
       4     C     3.16936  3.16936  0.00000 -0.33872
       5     H     0.41642  0.41642  0.00000  0.16716
       6     H     0.42830  0.42830  0.00000  0.14341
       7     C     3.15466  3.15466  0.00000 -0.30933
       8     H     0.42845  0.42845  0.00000  0.14309
       9     H     0.42244  0.42244  0.00000  0.15513
      10     C     3.15487  3.15487  0.00000 -0.30975
      11     H     0.41153  0.41153  0.00000  0.17693
      12     H     0.42302  0.42302  0.00000  0.15395
      13     C     3.15543  3.15543  0.00000 -0.31086
      14     H     0.42233  0.42233  0.00000  0.15535
      15     H     0.42245  0.42245  0.00000  0.15511
      16     C     3.15368  3.15368  0.00000 -0.30736
      17     H     0.42033  0.42033  0.00000  0.15933
      18     H     0.42058  0.42058  0.00000  0.15883
      19     C     3.24050  3.24050  0.00000 -0.48100
      20     H     0.42174  0.42174  0.00000  0.15652
      21     H     0.42378  0.42378  0.00000  0.15245
      22     H     0.42127  0.42127  0.00000  0.15746
      23     H     0.41928  0.41928  0.00000  0.16143
      24     H     0.42171  0.42171  0.00000  0.15658

   Total alpha = 33.00000, Total beta = 33.00000, Total charge = -0.00000
