  ==> Input File <==

--------------------------------------------------------------------------
set {
	reference rhf
	basis 6-31G*
}

set_num_threads( 4 )
memory 2 gb

molecule MOL {
0 1

H	 -3.563128	 -0.934542	 0.056962
O	 -3.517110	 -0.026191	 -0.205115
C	 -2.306886	 0.532354	 0.237577
C	 -1.177863	 -0.397191	 -0.171080
H	 -2.156308	 1.517575	 -0.201710
H	 -2.315015	 0.655684	 1.319734
C	 0.198102	 0.111031	 0.262842
H	 -1.208843	 -0.518759	 -1.250427
H	 -1.368741	 -1.376554	 0.258909
C	 1.331804	 -0.827780	 -0.158768
H	 0.361943	 1.100838	 -0.156218
H	 0.217265	 0.229072	 1.345532
C	 2.723619	 -0.410569	 0.329459
H	 1.342964	 -0.912588	 -1.244120
H	 1.116806	 -1.824343	 0.220779
C	 3.243875	 0.895854	 -0.272975
H	 3.424222	 -1.207124	 0.091250
H	 2.714788	 -0.329854	 1.414619
H	 3.251977	 0.848779	 -1.358681
H	 2.637085	 1.747371	 0.016682
H	 4.259473	 1.094070	 0.055697

	symmetry c1
}
set optking {
	frozen_dihedral = ("
		1 2 3 5
	")
}

ee = optimize('scf')
oeprop('DIPOLE', 'QUADRUPOLE', 'MULLIKEN_CHARGES')
f=open( 'psi4out.xyz', 'w' )
f.write( "21  " )
f.write( str(ee) + "\n" )
f.write( MOL.save_string_xyz() )
f.close()
--------------------------------------------------------------------------

    Molecular point group: c1
  Charge       = 0
  Multiplicity = 1
  Basis Set: 6-31G*
  Basis Set:
  @DF-RHF Final Energy:  -310.21051930175645
    Total Energy =                       -310.2105193017563352
    Molecular point group: c1
  Basis Set: 6-31G*
  Basis Set:
  Basis Set: 6-31G*
  Basis Set:
  @DF-RHF Final Energy:  -310.21210362057911
    Total Energy =                       -310.2121036205790006
  Basis Set: 6-31G*
  Basis Set:
  Basis Set: 6-31G*
  Basis Set:
  @DF-RHF Final Energy:  -310.21251338487184
    Total Energy =                       -310.2125133848718406
  Basis Set: 6-31G*
  Basis Set:
  Basis Set: 6-31G*
  Basis Set:
  @DF-RHF Final Energy:  -310.21251816990821
    Total Energy =                       -310.2125181699083214
  Basis Set: 6-31G*
  Basis Set:
  Charge       = 0
  Multiplicity = 1
  Basis Set: 6-31G*
  Basis Set:

    Orbital Energies (a.u.)
    -----------------------

    Doubly Occupied:

       1A    -20.551580     2A    -11.266538     3A    -11.220768
       4A    -11.219174     5A    -11.218475     6A    -11.217873
       7A    -11.210460     8A     -1.358804     9A     -1.090454
      10A     -1.035929    11A     -0.955915    12A     -0.880272
      13A     -0.821845    14A     -0.782257    15A     -0.686646
      16A     -0.650941    17A     -0.622100    18A     -0.610467
      19A     -0.595117    20A     -0.577150    21A     -0.539353
      22A     -0.535752    23A     -0.506330    24A     -0.491239
      25A     -0.486900    26A     -0.465349    27A     -0.459900
      28A     -0.454818    29A     -0.423728

  @DF-RHF Final Energy:  -310.21251886204516

   => Energetics <=

    Nuclear Repulsion Energy =            312.3524126047861955
    One-Electron Energy =               -1039.2575911733997600
    Two-Electron Energy =                 416.6926597065682358
    DFT Exchange-Correlation Energy =       0.0000000000000000
    Empirical Dispersion Energy =           0.0000000000000000
    PCM Polarization Energy =               0.0000000000000000
    EFP Energy =                            0.0000000000000000
    Total Energy =                       -310.2125188620453287
    Molecular point group: c1
  Basis Set: 6-31G*
  Basis Set:

  -Total Gradient:
     Atom            X                  Y                   Z
    ------   -----------------  -----------------  -----------------
       1        0.000616077818    -0.000350286087    -0.001183141356
       2       -0.000514883204     0.000385417828     0.001283472439
       3       -0.000498230247     0.000502116381     0.000863625591
       4       -0.000125889349    -0.000011270746    -0.000008214224
       5        0.000486862359    -0.000515355395    -0.000951704288
       6       -0.000026931502    -0.000023069862    -0.000004238560
       7       -0.000018054951     0.000015829238    -0.000008657226
       8        0.000000723440    -0.000014844588    -0.000004978034
       9       -0.000002548495     0.000024750232    -0.000015867878
      10        0.000027803262    -0.000008777417     0.000058976065
      11        0.000043429466     0.000034620063     0.000008779203
      12        0.000006747121    -0.000010219981    -0.000017593987
      13        0.000050253743    -0.000056043972    -0.000059012891
      14       -0.000000710001    -0.000003181230     0.000015536607
      15       -0.000009344162     0.000010540255     0.000007479111
      16       -0.000023860806    -0.000000248858     0.000009725573
      17        0.000026872044     0.000008421673     0.000000679179
      18        0.000001109402    -0.000009335974    -0.000007083570
      19        0.000005495206    -0.000005666896     0.000009425290
      20       -0.000041854806     0.000018391625    -0.000005470949
      21       -0.000003066339     0.000008213714     0.000008263905

  **** Optimization is complete! (in 5 steps) ****
    Final optimized geometry and variables:
    Molecular point group: c1

    Geometry (in Angstrom), charge = 0, multiplicity = 1:

    H           -3.670844611954    -0.848537285249     0.036107820032
    O           -3.564453087924     0.062356672460    -0.200441074989
    C           -2.311314475445     0.514939328188     0.241333635184
    C           -1.172776793466    -0.409278162735    -0.173792194275
    H           -2.174231255673     1.490261456796    -0.208670900220
    H           -2.312514427978     0.647986296349     1.322231807293
    C            0.201295669168     0.104175633548     0.261112272975
    H           -1.203191569966    -0.529826017659    -1.253643109487
    H           -1.341646112709    -1.397438244466     0.255226524118
    C            1.342010236108    -0.827724501574    -0.156957944174
    H            0.357517246497     1.093946417691    -0.160027508366
    H            0.216952016208     0.225222499543     1.343269652351
    C            2.730542696238    -0.396097351589     0.328264488444
    H            1.353191082304    -0.917354998531    -1.241883644135
    H            1.136088050660    -1.824475434776     0.227687840217
    C            3.236000975879     0.914872997707    -0.276787263254
    H            3.438538851018    -1.185922362225     0.089733776641
    H            2.722657931881    -0.314181675477     1.413298155981
    H            3.244212643242     0.865958067172    -1.362364777509
    H            2.620274083924     1.760303562979     0.011737517217
    H            4.249438736710     1.124522351499     0.051159545349

  Mulliken Charges: (a.u.)
   Center  Symbol    Alpha    Beta     Spin     Total
       1     H     0.28336  0.28336  0.00000  0.43328
       2     O     4.37216  4.37216  0.00000 -0.74432
       3     C     2.98251  2.98251  0.00000  0.03498
       4     C     3.17329  3.17329  0.00000 -0.34658
       5     H     0.41757  0.41757  0.00000  0.16486
       6     H     0.43135  0.43135  0.00000  0.13730
       7     C     3.16099  3.16099  0.00000 -0.32199
       8     H     0.41391  0.41391  0.00000  0.17219
       9     H     0.42879  0.42879  0.00000  0.14242
      10     C     3.15191  3.15191  0.00000 -0.30382
      11     H     0.41878  0.41878  0.00000  0.16244
      12     H     0.42275  0.42275  0.00000  0.15450
      13     C     3.15269  3.15269  0.00000 -0.30538
      14     H     0.42262  0.42262  0.00000  0.15476
      15     H     0.42212  0.42212  0.00000  0.15577
      16     C     3.24153  3.24153  0.00000 -0.48305
      17     H     0.42024  0.42024  0.00000  0.15951
      18     H     0.42315  0.42315  0.00000  0.15370
      19     H     0.42168  0.42168  0.00000  0.15665
      20     H     0.42001  0.42001  0.00000  0.15998
      21     H     0.41860  0.41860  0.00000  0.16279

   Total alpha = 29.00000, Total beta = 29.00000, Total charge = -0.00000
