  ==> Input File <==

--------------------------------------------------------------------------
set {
	reference rhf
	basis 6-31G*
}

set_num_threads( 4 )
memory 2 gb

molecule MOL {
0 1

H	 -3.833380	 -0.454517	 -1.420312
O	 -3.452007	 0.283848	 -0.965577
C	 -3.181085	 -0.079926	 0.364119
C	 -1.765924	 0.277073	 0.805136
H	 -3.327791	 -1.152017	 0.410903
H	 -3.905698	 0.375695	 1.036898
C	 -0.677594	 -0.417312	 -0.014550
H	 -1.637766	 1.358238	 0.744969
H	 -1.659588	 0.017670	 1.857098
C	 0.738335	 -0.034840	 0.421385
H	 -0.814977	 -0.178223	 -1.064632
H	 -0.802730	 -1.495410	 0.071702
C	 1.822265	 -0.738362	 -0.399735
H	 0.853533	 1.043532	 0.342250
H	 0.871597	 -0.279636	 1.474438
C	 3.258060	 -0.455774	 0.057203
H	 1.718003	 -0.459167	 -1.447053
H	 1.651028	 -1.811884	 -0.354513
C	 3.709143	 0.994797	 -0.123830
H	 3.930637	 -1.101717	 -0.501982
H	 3.365259	 -0.739518	 1.102287
H	 3.601178	 1.310569	 -1.158127
H	 4.753787	 1.110486	 0.148516
H	 3.135362	 1.678896	 0.492569

	symmetry c1
}
set optking {
	frozen_dihedral = ("
		1 2 3 5
	")
}

ee = optimize('scf')
oeprop('DIPOLE', 'QUADRUPOLE', 'MULLIKEN_CHARGES')
f=open( 'psi4out.xyz', 'w' )
f.write( "24  " )
f.write( str(ee) + "\n" )
f.write( MOL.save_string_xyz() )
f.close()
--------------------------------------------------------------------------

    Molecular point group: c1
  Charge       = 0
  Multiplicity = 1
  Basis Set: 6-31G*
  Basis Set:
  @DF-RHF Final Energy:  -349.24463924712160
    Total Energy =                       -349.2446392471215972
    Molecular point group: c1
  Basis Set: 6-31G*
  Basis Set:
  Basis Set: 6-31G*
  Basis Set:
  @DF-RHF Final Energy:  -349.24582260383823
    Total Energy =                       -349.2458226038383486
  Basis Set: 6-31G*
  Basis Set:
  Basis Set: 6-31G*
  Basis Set:
  @DF-RHF Final Energy:  -349.24617936503643
    Total Energy =                       -349.2461793650362551
  Basis Set: 6-31G*
  Basis Set:
  Basis Set: 6-31G*
  Basis Set:
  @DF-RHF Final Energy:  -349.24618418811082
    Total Energy =                       -349.2461841881111582
  Basis Set: 6-31G*
  Basis Set:
  Basis Set: 6-31G*
  Basis Set:
  @DF-RHF Final Energy:  -349.24618544191196
    Total Energy =                       -349.2461854419120755
  Basis Set: 6-31G*
  Basis Set:
  Charge       = 0
  Multiplicity = 1
  Basis Set: 6-31G*
  Basis Set:

    Orbital Energies (a.u.)
    -----------------------

    Doubly Occupied:

       1A    -20.551814     2A    -11.268128     3A    -11.212854
       4A    -11.211433     5A    -11.210640     6A    -11.209928
       7A    -11.209116     8A    -11.205658     9A     -1.358002
      10A     -1.086618    11A     -1.046733    12A     -0.984829
      13A     -0.913796    14A     -0.845764    15A     -0.789703
      16A     -0.774690    17A     -0.705278    18A     -0.641242
      19A     -0.632267    20A     -0.608173    21A     -0.593886
      22A     -0.576221    23A     -0.558370    24A     -0.536277
      25A     -0.512307    26A     -0.506468    27A     -0.496616
      28A     -0.471490    29A     -0.465022    30A     -0.459814
      31A     -0.453010    32A     -0.449881    33A     -0.417675

  @DF-RHF Final Energy:  -349.24618608874130

   => Energetics <=

    Nuclear Repulsion Energy =            384.5415616698048780
    One-Electron Energy =               -1235.6480947440290947
    Two-Electron Energy =                 501.8603469854832042
    DFT Exchange-Correlation Energy =       0.0000000000000000
    Empirical Dispersion Energy =           0.0000000000000000
    PCM Polarization Energy =               0.0000000000000000
    EFP Energy =                            0.0000000000000000
    Total Energy =                       -349.2461860887410126
    Molecular point group: c1
  Basis Set: 6-31G*
  Basis Set:

  -Total Gradient:
     Atom            X                  Y                   Z
    ------   -----------------  -----------------  -----------------
       1        0.000821319687    -0.000275778820    -0.000241716402
       2       -0.001224179765     0.000350716845     0.000337545580
       3        0.001162311798    -0.000189947139    -0.000308573939
       4       -0.000020212576    -0.000010701781     0.000061205887
       5       -0.000759770451     0.000121330764     0.000160900184
       6        0.000020456588    -0.000004553765     0.000019646746
       7       -0.000018409154    -0.000015914029    -0.000014829781
       8       -0.000019875433     0.000003435340    -0.000004825355
       9        0.000016845140     0.000014071999    -0.000004694649
      10        0.000001917897    -0.000004457016     0.000001139629
      11        0.000006413748     0.000004979620    -0.000000282952
      12        0.000003091698     0.000008424012    -0.000007447644
      13        0.000002892857    -0.000000372603     0.000004876953
      14       -0.000002054264    -0.000005891649    -0.000004800991
      15        0.000000385984     0.000004703011     0.000002542353
      16        0.000001117088    -0.000002915433     0.000001625687
      17       -0.000000255425     0.000003499155     0.000002113821
      18        0.000001541168    -0.000000451440    -0.000003603904
      19        0.000002198840     0.000000177100    -0.000000952650
      20        0.000001752574    -0.000001615253     0.000001929619
      21       -0.000000990509     0.000002002930     0.000000331707
      22       -0.000000374278     0.000000878330    -0.000000906690
      23       -0.000000300490    -0.000000691744    -0.000000846861
      24        0.000004177287    -0.000000928435    -0.000000376345

  **** Optimization is complete! (in 6 steps) ****
    Final optimized geometry and variables:
    Molecular point group: c1

    Geometry (in Angstrom), charge = 0, multiplicity = 1:

    H           -3.799679001233    -0.331289493929    -1.464099048148
    O           -3.417315815820     0.358275111303    -0.944090861046
    C           -3.178970359693    -0.093345559691     0.369265367073
    C           -1.768835169907     0.275746775069     0.802221025914
    H           -3.322533141598    -1.169596187436     0.436715616821
    H           -3.901744736996     0.367503584617     1.037032450758
    C           -0.678090182382    -0.424216788692    -0.008609993465
    H           -1.657890440441     1.353542738383     0.714326815236
    H           -1.660042757687     0.033330092659     1.858151204121
    C            0.736143906002    -0.030868152196     0.423063877134
    H           -0.815493468039    -0.189912657326    -1.059792642457
    H           -0.795316216257    -1.503366801509     0.088241828322
    C            1.823921827780    -0.733732444162    -0.393464771391
    H            0.843257764981     1.047189505899     0.335004809273
    H            0.871553026060    -0.266957251133     1.477867341815
    C            3.258334074296    -0.437652777805     0.059336711980
    H            1.716699817514    -0.463422171103    -1.442817201553
    H            1.660520259650    -1.808332424717    -0.339421300204
    C            3.699374836827     1.014193654210    -0.135452106439
    H            3.934778043908    -1.084307850595    -0.494426231961
    H            3.368158482188    -0.711004670658     1.106944575900
    H            3.588470493130     1.319673487314    -1.172470946626
    H            4.743436299785     1.139392850365     0.135065977385
    H            3.121171745076     1.699922711227     0.474775237303

  Mulliken Charges: (a.u.)
   Center  Symbol    Alpha    Beta     Spin     Total
       1     H     0.27924  0.27924  0.00000  0.44153
       2     O     4.37197  4.37197  0.00000 -0.74393
       3     C     2.99906  2.99906  0.00000  0.00187
       4     C     3.15761  3.15761  0.00000 -0.31522
       5     H     0.43257  0.43257  0.00000  0.13486
       6     H     0.42283  0.42283  0.00000  0.15435
       7     C     3.15550  3.15550  0.00000 -0.31099
       8     H     0.41488  0.41488  0.00000  0.17025
       9     H     0.42533  0.42533  0.00000  0.14933
      10     C     3.15356  3.15356  0.00000 -0.30712
      11     H     0.41198  0.41198  0.00000  0.17604
      12     H     0.42906  0.42906  0.00000  0.14189
      13     C     3.15215  3.15215  0.00000 -0.30429
      14     H     0.42038  0.42038  0.00000  0.15924
      15     H     0.42587  0.42587  0.00000  0.14826
      16     C     3.15215  3.15215  0.00000 -0.30430
      17     H     0.42385  0.42385  0.00000  0.15231
      18     H     0.42361  0.42361  0.00000  0.15278
      19     C     3.24103  3.24103  0.00000 -0.48206
      20     H     0.42168  0.42168  0.00000  0.15665
      21     H     0.42395  0.42395  0.00000  0.15211
      22     H     0.42208  0.42208  0.00000  0.15585
      23     H     0.41990  0.41990  0.00000  0.16020
      24     H     0.41979  0.41979  0.00000  0.16042

   Total alpha = 33.00000, Total beta = 33.00000, Total charge =  0.00000
