                              Psi4 1.0.54 Driver

  ==> Input File <==

--------------------------------------------------------------------------
set {
	reference rhf
	basis cc-pvtz
}

set_num_threads( 4 )
memory 2 gb

molecule MOL {
0 1

H	 1.915051	 0.586888	 0.580201
C	 1.068778	 0.646375	 -0.088374
O	 0.000000	 0.000000	 0.518769
H	 0.845269	 1.694218	 -0.277908
H	 1.334807	 0.175829	 -1.032657
C	 -1.165153	 0.000000	 -0.236961
H	 -1.229451	 0.882440	 -0.870223
H	 -2.002557	 0.000000	 0.445289
H	 -1.229451	 -0.882440	 -0.870223

	symmetry c1
}
set optking {
	frozen_dihedral = ("
		2 3 6 7
	")
}

ee,wfn = optimize('scf', return_wfn=True)
oeprop( wfn, 'DIPOLE', 'QUADRUPOLE', 'MULLIKEN_CHARGES')
f=open( 'psi4out.xyz', 'w' )
f.write( "9  " )
f.write( str(ee) + "\n" )
f.write( MOL.save_string_xyz() )
f.close()
--------------------------------------------------------------------------

    Molecular point group: c1
  Charge       = 0
  Multiplicity = 1
  Basis Set: CC-PVTZ
  Basis Set:
  @DF-RHF Final Energy:  -154.12515994850037
    Total Energy =                       -154.1251599485003965
    Molecular point group: c1
  Basis Set: CC-PVTZ
  Basis Set:
  Basis Set: CC-PVTZ
  Basis Set:
  @DF-RHF Final Energy:  -154.12526026693166
    Total Energy =                       -154.1252602669316047
  Basis Set: CC-PVTZ
  Basis Set:
  Basis Set: CC-PVTZ
  Basis Set:
  @DF-RHF Final Energy:  -154.12529612071839
    Total Energy =                       -154.1252961207184740
  Basis Set: CC-PVTZ
  Basis Set:
  Charge       = 0
  Multiplicity = 1
  Basis Set: CC-PVTZ
  Basis Set:

    Orbital Energies (a.u.)
    -----------------------

    Doubly Occupied:

       1A    -20.548495     2A    -11.263507     3A    -11.262969
       4A     -1.380257     5A     -0.975843     6A     -0.872791
       7A     -0.661249     8A     -0.655534     9A     -0.646104
      10A     -0.554837    11A     -0.529208    12A     -0.476538
      13A     -0.417185

  @DF-RHF Final Energy:  -154.12529639061677

   => Energetics <=

    Nuclear Repulsion Energy =             84.7191639190014456
    One-Electron Energy =                -377.1998885841028368
    Two-Electron Energy =                 138.3554282744846091
    DFT Exchange-Correlation Energy =       0.0000000000000000
    Empirical Dispersion Energy =           0.0000000000000000
    PCM Polarization Energy =               0.0000000000000000
    EFP Energy =                            0.0000000000000000
    Total Energy =                       -154.1252963906167679
    Molecular point group: c1
  Basis Set: CC-PVTZ
  Basis Set:

  -Total Gradient:
     Atom            X                  Y                   Z
    ------   -----------------  -----------------  -----------------
       1        0.000027323570     0.000011068218    -0.000009077494
       2       -0.000560800117     0.002036814051     0.001004947405
       3        0.001243067973    -0.003277108641    -0.002095974072
       4       -0.000020715649    -0.000020044616     0.000002268369
       5       -0.000024994883     0.000002262552     0.000015818016
       6       -0.002046375351     0.002670071001     0.003211797963
       7        0.001392336361    -0.001434599748    -0.002133806183
       8       -0.000021404701     0.000005021873     0.000001440836
       9        0.000011562797     0.000006515311     0.000002585160

  **** Optimization is complete! (in 4 steps) ****
    Final optimized geometry and variables:
    Molecular point group: c1

    Geometry (in Angstrom), charge = 0, multiplicity = 1:

    H            1.952841620297     0.362204892414     0.526006007234
    C            1.107136526627     0.426684251538    -0.143353534568
    O            0.036338278015    -0.217519545998     0.463328798296
    H            0.886100185857     1.475211598286    -0.328618915419
    H            1.376678724318    -0.040375342455    -1.088700716950
    C           -1.141012742736    -0.228098091418    -0.279009345020
    H           -1.222113017781     0.647729192845    -0.917005292483
    H           -1.978808122753    -0.251367276128     0.403591253811
    H           -1.188055930421    -1.105741407434    -0.919634144962

  Mulliken Charges: (a.u.)
   Center  Symbol    Alpha    Beta     Spin     Total
       1     H     0.44915  0.44915  0.00000  0.10170
       2     C     3.02149  3.02149  0.00000 -0.04299
       3     O     4.17017  4.17017  0.00000 -0.34035
       4     H     0.47216  0.47216  0.00000  0.05567
       5     H     0.47371  0.47371  0.00000  0.05259
       6     C     3.01902  3.01902  0.00000 -0.03803
       7     H     0.47554  0.47554  0.00000  0.04891
       8     H     0.45176  0.45176  0.00000  0.09648
       9     H     0.46699  0.46699  0.00000  0.06601

   Total alpha = 13.00000, Total beta = 13.00000, Total charge = -0.00000

*** Psi4 exiting successfully. Buy a developer a beer!
