                              Psi4 1.0.54 Driver

  ==> Input File <==

--------------------------------------------------------------------------
set {
	reference rhf
	basis cc-pvtz
}

set_num_threads( 4 )
memory 2 gb

molecule MOL {
0 1

H	 -3.401682	 -1.036167	 0.000000
O	 -3.113760	 -0.140926	 0.000000
C	 -1.775087	 -0.058754	 0.000000
C	 -0.970672	 -1.117645	 0.402619
C	 -1.206936	 1.132433	 -0.420073
H	 -1.418843	 -2.038630	 0.727206
C	 0.396939	 -0.979973	 0.383102
H	 -1.845285	 1.936589	 -0.726446
C	 0.164207	 1.254114	 -0.433701
H	 1.028516	 -1.789454	 0.691259
C	 0.981501	 0.207366	 -0.035207
H	 0.606061	 2.177800	 -0.759411
C	 2.448032	 0.361037	 -0.058330
O	 3.224586	 -0.475575	 0.262916
H	 2.800918	 1.338170	 -0.405440

	symmetry c1
}
set optking {
	frozen_dihedral = ("
		5 3 2 1
	")
}

ee,wfn = optimize('scf', return_wfn=True)
oeprop( wfn, 'DIPOLE', 'QUADRUPOLE', 'MULLIKEN_CHARGES')
f=open( 'psi4out.xyz', 'w' )
f.write( "15  " )
f.write( str(ee) + "\n" )
f.write( MOL.save_string_xyz() )
f.close()
--------------------------------------------------------------------------

    Molecular point group: c1
  Charge       = 0
  Multiplicity = 1
  Basis Set: CC-PVTZ
  Basis Set:
  @DF-RHF Final Energy:  -418.44189167834026
    Total Energy =                       -418.4418916783399709
    Molecular point group: c1
  Basis Set: CC-PVTZ
  Basis Set:
  Basis Set: CC-PVTZ
  Basis Set:
  @DF-RHF Final Energy:  -418.44190905231585
    Total Energy =                       -418.4419090523158502
  Basis Set: CC-PVTZ
  Basis Set:
  Basis Set: CC-PVTZ
  Basis Set:
  @DF-RHF Final Energy:  -418.44191262509372
    Total Energy =                       -418.4419126250936642
  Basis Set: CC-PVTZ
  Basis Set:
  Basis Set: CC-PVTZ
  Basis Set:
  @DF-RHF Final Energy:  -418.44191126166072
    Total Energy =                       -418.4419112616606071
  Basis Set: CC-PVTZ
  Basis Set:
  Basis Set: CC-PVTZ
  Basis Set:
  @DF-RHF Final Energy:  -418.44191263980969
    Total Energy =                       -418.4419126398101980
  Basis Set: CC-PVTZ
  Basis Set:
  Charge       = 0
  Multiplicity = 1
  Basis Set: CC-PVTZ
  Basis Set:

    Orbital Energies (a.u.)
    -----------------------

    Doubly Occupied:

       1A    -20.602776     2A    -20.546129     3A    -11.323136
       4A    -11.321467     5A    -11.258265     6A    -11.254427
       7A    -11.242308     8A    -11.237564     9A    -11.236962
      10A     -1.435519    11A     -1.402380    12A     -1.175347
      13A     -1.044937    14A     -1.042346    15A     -0.891717
      16A     -0.870136    17A     -0.797659    18A     -0.761974
      19A     -0.717456    20A     -0.670656    21A     -0.647897
      22A     -0.631666    23A     -0.618848    24A     -0.610506
      25A     -0.580606    26A     -0.561754    27A     -0.555440
      28A     -0.508642    29A     -0.490252    30A     -0.422017
      31A     -0.362293    32A     -0.333058

  @DF-RHF Final Energy:  -418.44191304034103

   => Energetics <=

    Nuclear Repulsion Energy =            402.2417000259940210
    One-Electron Energy =               -1367.0549471303047540
    Two-Electron Energy =                 546.3713340639696980
    DFT Exchange-Correlation Energy =       0.0000000000000000
    Empirical Dispersion Energy =           0.0000000000000000
    PCM Polarization Energy =               0.0000000000000000
    EFP Energy =                            0.0000000000000000
    Total Energy =                       -418.4419130403409781
    Molecular point group: c1
  Basis Set: CC-PVTZ
  Basis Set:

  -Total Gradient:
     Atom            X                  Y                   Z
    ------   -----------------  -----------------  -----------------
       1       -0.000016952777    -0.000006811729    -0.002454477866
       2       -0.000003409901    -0.000278518667     0.002285800598
       3        0.000016824104     0.000868214300     0.001821827991
       4       -0.000036228915     0.000012421141     0.000002445799
       5        0.000030454792    -0.000594735035    -0.001652061202
       6        0.000001300414    -0.000002256686    -0.000000550864
       7        0.000031975560     0.000019183108    -0.000009809034
       8       -0.000000622200    -0.000000406803     0.000000916532
       9       -0.000014602954     0.000014333193    -0.000005325320
      10       -0.000003071655     0.000000194101     0.000001356771
      11       -0.000015186049    -0.000033597948     0.000008942220
      12        0.000001315725    -0.000002611918     0.000001855938
      13        0.000018788000    -0.000003892067     0.000003416563
      14       -0.000009229574     0.000008017389    -0.000004332807
      15       -0.000001354573     0.000000467621    -0.000000005319

  **** Optimization is complete! (in 6 steps) ****
    Final optimized geometry and variables:
    Molecular point group: c1

    Geometry (in Angstrom), charge = 0, multiplicity = 1:

    H           -3.402066424668    -1.036319180168     0.004498425901
    O           -3.115629119202    -0.140416733147     0.000564334107
    C           -1.774551655870    -0.057643746047    -0.009276593405
    C           -0.970579577772    -1.118896310329     0.389507703812
    C           -1.206475233066     1.130114732898    -0.434862849366
    H           -1.421137171861    -2.035888111214     0.721484544745
    C            0.396759902346    -0.984497277093     0.364286320172
    H           -1.844001312692     1.933429229430    -0.745306321809
    C            0.165850308729     1.252384695405    -0.446718692432
    H            1.028268396528    -1.795170941530     0.669581556702
    C            0.981558406833     0.204169469006    -0.052243616082
    H            0.608115497624     2.175001403507    -0.774955960607
    C            2.448865078235     0.356397695243    -0.079356135671
    O            3.225038315494    -0.482588110964     0.235527049715
    H            2.801150749896     1.334998165949    -0.423309243580

  Mulliken Charges: (a.u.)
   Center  Symbol    Alpha    Beta     Spin     Total
       1     H     0.38446  0.38446  0.00000  0.23108
       2     O     4.16921  4.16921  0.00000 -0.33842
       3     C     2.84810  2.84810  0.00000  0.30380
       4     C     3.13002  3.13002  0.00000 -0.26004
       5     C     3.10843  3.10843  0.00000 -0.21686
       6     H     0.42863  0.42863  0.00000  0.14274
       7     C     3.06702  3.06702  0.00000 -0.13404
       8     H     0.41605  0.41605  0.00000  0.16790
       9     C     3.06685  3.06685  0.00000 -0.13370
      10     H     0.40710  0.40710  0.00000  0.18579
      11     C     3.00298  3.00298  0.00000 -0.00596
      12     H     0.42132  0.42132  0.00000  0.15737
      13     C     2.91076  2.91076  0.00000  0.17848
      14     O     4.17865  4.17865  0.00000 -0.35730
      15     H     0.46041  0.46041  0.00000  0.07917

   Total alpha = 32.00000, Total beta = 32.00000, Total charge =  0.00000

*** Psi4 exiting successfully. Buy a developer a beer!
