  ==> Input File <==

--------------------------------------------------------------------------
set {
	reference rhf
	basis 6-31G*
}

set_num_threads( 1 )
memory 2 gb

molecule MOL {
0 1

O	 0.715802	 -0.049073	 -0.636319
C	 1.705091	 0.115954	 0.001797
C	 1.978993	 1.289951	 0.909858
O	 2.721346	 -0.737485	 -0.000216
C	 0.839194	 2.303258	 0.951222
H	 2.189057	 0.892994	 1.899309
H	 2.903866	 1.751133	 0.574239
C	 1.142791	 3.480763	 1.878785
H	 -0.070311	 1.805465	 1.272457
H	 0.645935	 2.665348	 -0.053691
C	 0.009457	 4.506665	 1.932972
H	 1.339205	 3.110848	 2.884062
H	 2.057149	 3.974317	 1.552849
C	 0.313887	 5.683562	 2.858978
H	 -0.904106	 4.015728	 2.260880
H	 -0.187337	 4.877766	 0.929631
H	 0.481462	 5.347595	 3.878419
H	 -0.507581	 6.393039	 2.875809
H	 1.204266	 6.216240	 2.536814
C	 4.024888	 -0.184556	 -0.001949
H	 4.179030	 0.422472	 -0.882452
H	 4.701782	 -1.024608	 -0.003642
H	 4.181981	 0.421185	 0.878906

	symmetry c1
}
set optking {
	frozen_dihedral = ("
		15 11 8 12,
		9 5 8 12,
		1 2 3 6,
		9 5 3 6
	")
}

ee = energy('scf')
oeprop('DIPOLE', 'QUADRUPOLE', 'MULLIKEN_CHARGES')
f=open( 'psi4out.xyz', 'w' )
f.write( "23  " )
f.write( str(ee) + "\n" )
f.write( MOL.save_string_xyz() )
f.close()
--------------------------------------------------------------------------

    Molecular point group: c1

    Geometry (in Angstrom), charge = 0, multiplicity = 1:

       Center              X                  Y                   Z               Mass
    ------------   -----------------  -----------------  -----------------  -----------------
           O         -0.802550567438    -1.855042896477    -1.504604821546    15.994914619560
           C          0.186738432562    -1.690015896477    -0.866488821546    12.000000000000
           C          0.460640432562    -0.516018896477     0.041572178454    12.000000000000
           O          1.202993432562    -2.543454896477    -0.868501821546    15.994914619560
           C         -0.679158567438     0.497288103523     0.082936178454    12.000000000000
           H          0.670704432562    -0.912975896477     1.031023178454     1.007825032070
           H          1.385513432562    -0.054836896477    -0.294046821546     1.007825032070
           C         -0.375561567438     1.674793103523     1.010499178454    12.000000000000
           H         -1.588663567438    -0.000504896477     0.404171178454     1.007825032070
           H         -0.872417567438     0.859378103523    -0.921976821546     1.007825032070
           C         -1.508895567438     2.700695103523     1.064686178454    12.000000000000
           H         -0.179147567438     1.304878103523     2.015776178454     1.007825032070
           H          0.538796432562     2.168347103523     0.684563178454     1.007825032070
           C         -1.204465567438     3.877592103523     1.990692178454    12.000000000000
           H         -2.422458567438     2.209758103523     1.392594178454     1.007825032070
           H         -1.705689567438     3.071796103523     0.061345178454     1.007825032070
           H         -1.036890567438     3.541625103523     3.010133178454     1.007825032070
           H         -2.025933567438     4.587069103523     2.007523178454     1.007825032070
           H         -0.314086567438     4.410270103523     1.668528178454     1.007825032070
           C          2.506535432562    -1.990525896477    -0.870234821546    12.000000000000
           H          2.660677432562    -1.383497896477    -1.750737821546     1.007825032070
           H          3.183429432562    -2.830577896477    -0.871927821546     1.007825032070
           H          2.663628432562    -1.384784896477     0.010620178454     1.007825032070

  Charge       = 0
  Multiplicity = 1
  Basis Set: 6-31G*
  Basis Set:

    Orbital Energies (a.u.)
    -----------------------

    Doubly Occupied:

       1A    -20.599318     2A    -20.549188     3A    -11.374447
       4A    -11.297180     5A    -11.240360     6A    -11.222585
       7A    -11.221392     8A    -11.219123     9A    -11.212088
      10A     -1.466246    11A     -1.369506    12A     -1.096212
      13A     -1.042446    14A     -0.987644    15A     -0.955144
      16A     -0.856776    17A     -0.799434    18A     -0.765751
      19A     -0.700583    20A     -0.687863    21A     -0.678978
      22A     -0.654785    23A     -0.620281    24A     -0.604269
      25A     -0.582174    26A     -0.565456    27A     -0.561362
      28A     -0.544532    29A     -0.515090    30A     -0.506822
      31A     -0.487545    32A     -0.473473    33A     -0.469478
      34A     -0.467133    35A     -0.453279    36A     -0.428828

  @DF-RHF Final Energy:  -422.95036574164072

   => Energetics <=

    Nuclear Repulsion Energy =            457.6010230959986416
    One-Electron Energy =               -1482.5491818603532010
    Two-Electron Energy =                 601.9977930227121306
    DFT Exchange-Correlation Energy =       0.0000000000000000
    Empirical Dispersion Energy =           0.0000000000000000
    PCM Polarization Energy =               0.0000000000000000
    EFP Energy =                            0.0000000000000000
    Total Energy =                       -422.9503657416423721

  Mulliken Charges: (a.u.)
   Center  Symbol    Alpha    Beta     Spin     Total
       1     O     4.26615  4.26615  0.00000 -0.53231
       2     C     2.59652  2.59652  0.00000  0.80696
       3     C     3.23928  3.23928  0.00000 -0.47856
       4     O     4.30212  4.30212  0.00000 -0.60425
       5     C     3.14915  3.14915  0.00000 -0.29831
       6     H     0.39875  0.39875  0.00000  0.20250
       7     H     0.40364  0.40364  0.00000  0.19273
       8     C     3.15317  3.15317  0.00000 -0.30634
       9     H     0.40957  0.40957  0.00000  0.18086
      10     H     0.41135  0.41135  0.00000  0.17730
      11     C     3.15181  3.15181  0.00000 -0.30362
      12     H     0.42442  0.42442  0.00000  0.15116
      13     H     0.42574  0.42574  0.00000  0.14851
      14     C     3.23965  3.23965  0.00000 -0.47930
      15     H     0.42045  0.42045  0.00000  0.15910
      16     H     0.42103  0.42103  0.00000  0.15795
      17     H     0.42176  0.42176  0.00000  0.15648
      18     H     0.41786  0.41786  0.00000  0.16429
      19     H     0.42219  0.42219  0.00000  0.15562
      20     C     3.10357  3.10357  0.00000 -0.20714
      21     H     0.41140  0.41140  0.00000  0.17720
      22     H     0.39777  0.39777  0.00000  0.20446
      23     H     0.41264  0.41264  0.00000  0.17472

   Total alpha = 36.00000, Total beta = 36.00000, Total charge =  0.00000
