  ==> Input File <==

--------------------------------------------------------------------------
set {
	reference rhf
	basis 6-31G*
}

set_num_threads( 1 )
memory 2 gb

molecule MOL {
0 1

O	 -2.821601	 1.309235	 -0.001213
C	 -2.668563	 0.129746	 -0.000350
C	 -3.801572	 -0.864014	 -0.000442
O	 -1.481751	 -0.454642	 0.000584
H	 -4.417280	 -0.689587	 -0.874708
H	 -3.443784	 -1.883046	 -0.000565
H	 -4.417179	 -0.689832	 0.873954
C	 -0.334255	 0.388708	 0.000906
C	 0.891947	 -0.504646	 0.000751
H	 -0.365390	 1.025305	 -0.873475
H	 -0.365484	 1.024911	 0.875569
C	 2.191998	 0.301789	 0.000897
H	 0.855148	 -1.151283	 -0.871571
H	 0.855132	 -1.151660	 0.872805
C	 3.441114	 -0.581407	 0.000108
H	 2.215074	 0.954890	 -0.869742
H	 2.215465	 0.953923	 0.872248
C	 3.185378	 -1.973498	 -0.575694
H	 3.816166	 -0.674103	 1.016877
H	 4.226488	 -0.092361	 -0.571811
H	 2.427649	 -2.501434	 -0.003729
H	 4.088523	 -2.575492	 -0.562668
H	 2.841392	 -1.915346	 -1.604432

	symmetry c1
}
set optking {
	frozen_dihedral = ("
		13 9 8 10,
		2 4 8 10,
		16 12 9 13,
		1 2 4 8
	")
}

ee = energy('scf')
oeprop('DIPOLE', 'QUADRUPOLE', 'MULLIKEN_CHARGES')
f=open( 'psi4out.xyz', 'w' )
f.write( "23  " )
f.write( str(ee) + "\n" )
f.write( MOL.save_string_xyz() )
f.close()
--------------------------------------------------------------------------

    Molecular point group: c1

    Geometry (in Angstrom), charge = 0, multiplicity = 1:

       Center              X                  Y                   Z               Mass
    ------------   -----------------  -----------------  -----------------  -----------------
           O         -2.642162394973     1.562957341604     0.065126022083    15.994914619560
           C         -2.489124394973     0.383468341604     0.065989022083    12.000000000000
           C         -3.622133394973    -0.610291658396     0.065897022083    12.000000000000
           O         -1.302312394973    -0.200919658396     0.066923022083    15.994914619560
           H         -4.237841394973    -0.435864658396    -0.808368977917     1.007825032070
           H         -3.264345394973    -1.629323658396     0.065774022083     1.007825032070
           H         -4.237740394973    -0.436109658396     0.940293022083     1.007825032070
           C         -0.154816394973     0.642430341604     0.067245022083    12.000000000000
           C          1.071385605027    -0.250923658396     0.067090022083    12.000000000000
           H         -0.185951394973     1.279027341604    -0.807135977917     1.007825032070
           H         -0.186045394973     1.278633341604     0.941908022083     1.007825032070
           C          2.371436605027     0.555511341604     0.067236022083    12.000000000000
           H          1.034586605027    -0.897560658396    -0.805231977917     1.007825032070
           H          1.034570605027    -0.897937658396     0.939144022083     1.007825032070
           C          3.620552605027    -0.327684658396     0.066447022083    12.000000000000
           H          2.394512605027     1.208612341604    -0.803402977917     1.007825032070
           H          2.394903605027     1.207645341604     0.938587022083     1.007825032070
           C          3.364816605027    -1.719775658396    -0.509354977917    12.000000000000
           H          3.995604605027    -0.420380658396     1.083216022083     1.007825032070
           H          4.405926605027     0.161361341604    -0.505471977917     1.007825032070
           H          2.607087605027    -2.247711658396     0.062610022083     1.007825032070
           H          4.267961605027    -2.321769658396    -0.496328977917     1.007825032070
           H          3.020830605027    -1.661623658396    -1.538092977917     1.007825032070

  Charge       = 0
  Multiplicity = 1
  Basis Set: 6-31G*
  Basis Set:

    Orbital Energies (a.u.)
    -----------------------

    Doubly Occupied:

       1A    -20.602567     2A    -20.540227     3A    -11.373794
       4A    -11.280512     5A    -11.232239     6A    -11.223240
       7A    -11.222624     8A    -11.220675     9A    -11.212006
      10A     -1.467573    11A     -1.360387    12A     -1.097136
      13A     -1.040417    14A     -0.999521    15A     -0.930101
      16A     -0.861562    17A     -0.787127    18A     -0.768048
      19A     -0.691658    20A     -0.684523    21A     -0.670770
      22A     -0.644733    23A     -0.612498    24A     -0.602301
      25A     -0.573528    26A     -0.565542    27A     -0.552350
      28A     -0.536690    29A     -0.529251    30A     -0.504002
      31A     -0.498662    32A     -0.471379    33A     -0.469494
      34A     -0.457267    35A     -0.450711    36A     -0.435068

  @DF-RHF Final Energy:  -422.96969337310776

   => Energetics <=

    Nuclear Repulsion Energy =            458.0364991474628482
    One-Electron Energy =               -1483.6720432104327756
    Two-Electron Energy =                 602.6658506898614860
    DFT Exchange-Correlation Energy =       0.0000000000000000
    Empirical Dispersion Energy =           0.0000000000000000
    PCM Polarization Energy =               0.0000000000000000
    EFP Energy =                            0.0000000000000000
    Total Energy =                       -422.9696933731084982

  Mulliken Charges: (a.u.)
   Center  Symbol    Alpha    Beta     Spin     Total
       1     O     4.28398  4.28398  0.00000 -0.56796
       2     C     2.61521  2.61521  0.00000  0.76958
       3     C     3.28770  3.28770  0.00000 -0.57539
       4     O     4.31293  4.31293  0.00000 -0.62586
       5     H     0.39754  0.39754  0.00000  0.20492
       6     H     0.39996  0.39996  0.00000  0.20007
       7     H     0.39755  0.39755  0.00000  0.20490
       8     C     2.99363  2.99363  0.00000  0.01274
       9     C     3.17283  3.17283  0.00000 -0.34565
      10     H     0.41098  0.41098  0.00000  0.17804
      11     H     0.41111  0.41111  0.00000  0.17778
      12     C     3.16252  3.16252  0.00000 -0.32503
      13     H     0.40981  0.40981  0.00000  0.18037
      14     H     0.41379  0.41379  0.00000  0.17241
      15     C     3.15259  3.15259  0.00000 -0.30519
      16     H     0.41950  0.41950  0.00000  0.16099
      17     H     0.41794  0.41794  0.00000  0.16413
      18     C     3.24807  3.24807  0.00000 -0.49614
      19     H     0.41983  0.41983  0.00000  0.16035
      20     H     0.41817  0.41817  0.00000  0.16366
      21     H     0.41688  0.41688  0.00000  0.16624
      22     H     0.41687  0.41687  0.00000  0.16626
      23     H     0.42060  0.42060  0.00000  0.15881

   Total alpha = 36.00000, Total beta = 36.00000, Total charge = -0.00000
