  ==> Input File <==

--------------------------------------------------------------------------
set {
	reference rhf
	basis 6-31G*
}

set_num_threads( 1 )
memory 2 gb

molecule MOL {
0 1

H	 -2.172150	 0.880146	 0.502514
C	 -2.018062	 -0.000025	 -0.114509
O	 -0.774054	 0.001095	 -0.743181
H	 -2.760490	 0.003458	 -0.901350
H	 -2.173624	 -0.884374	 0.496163
C	 0.196149	 -0.964959	 -0.379892
C	 1.386640	 -0.636612	 -1.278185
C	 0.596456	 -0.819721	 1.091791
C	 -0.301533	 -2.384546	 -0.670067
H	 1.724645	 0.376977	 -1.094276
H	 1.099360	 -0.711584	 -2.320885
H	 2.212861	 -1.316260	 -1.096252
H	 0.878982	 0.205923	 1.304540
H	 1.443033	 -1.460474	 1.316166
H	 -0.207820	 -1.098499	 1.764085
H	 -0.649430	 -2.458336	 -1.695042
H	 0.501831	 -3.100464	 -0.530064
H	 -1.113368	 -2.676020	 -0.012345

	symmetry c1
}
set optking {
	frozen_dihedral = ("
		2 3 6 7
	")
}

ee = energy('scf')
oeprop('DIPOLE', 'QUADRUPOLE', 'MULLIKEN_CHARGES')
f=open( 'psi4out.xyz', 'w' )
f.write( "18  " )
f.write( str(ee) + "\n" )
f.write( MOL.save_string_xyz() )
f.close()
--------------------------------------------------------------------------

    Molecular point group: c1

    Geometry (in Angstrom), charge = 0, multiplicity = 1:

       Center              X                  Y                   Z               Mass
    ------------   -----------------  -----------------  -----------------  -----------------
           H         -1.998565939306     1.674663704657     0.847415268118     1.007825032070
           C         -1.844477939306     0.794492704657     0.230392268118    12.000000000000
           O         -0.600469939306     0.795612704657    -0.398279731882    15.994914619560
           H         -2.586905939306     0.797975704657    -0.556448731882     1.007825032070
           H         -2.000039939306    -0.089856295343     0.841064268118     1.007825032070
           C          0.369733060694    -0.170441295343    -0.034990731882    12.000000000000
           C          1.560224060694     0.157905704657    -0.933283731882    12.000000000000
           C          0.770040060694    -0.025203295343     1.436692268118    12.000000000000
           C         -0.127948939306    -1.590028295343    -0.325165731882    12.000000000000
           H          1.898229060694     1.171494704657    -0.749374731882     1.007825032070
           H          1.272944060694     0.082933704657    -1.975983731882     1.007825032070
           H          2.386445060694    -0.521742295343    -0.751350731882     1.007825032070
           H          1.052566060694     1.000440704657     1.649441268118     1.007825032070
           H          1.616617060694    -0.665956295343     1.661067268118     1.007825032070
           H         -0.034235939306    -0.303981295343     2.108986268118     1.007825032070
           H         -0.475845939306    -1.663818295343    -1.350140731882     1.007825032070
           H          0.675415060694    -2.305946295343    -0.185162731882     1.007825032070
           H         -0.939783939306    -1.881502295343     0.332556268118     1.007825032070

  Charge       = 0
  Multiplicity = 1
  Basis Set: 6-31G*
  Basis Set:

    Orbital Energies (a.u.)
    -----------------------

    Doubly Occupied:

       1A    -20.544642     2A    -11.281994     3A    -11.260271
       4A    -11.208964     5A    -11.208693     6A    -11.203274
       7A     -1.369232     8A     -1.073044     9A     -0.946180
      10A     -0.939787    11A     -0.912069    12A     -0.752805
      13A     -0.655576    14A     -0.643871    15A     -0.639115
      16A     -0.589590    17A     -0.572382    18A     -0.551814
      19A     -0.538740    20A     -0.523585    21A     -0.515258
      22A     -0.489732    23A     -0.486264    24A     -0.438442
      25A     -0.401031

  @DF-RHF Final Energy:  -271.17264494792693

   => Energetics <=

    Nuclear Repulsion Energy =            272.3242707892587191
    One-Electron Energy =                -907.5008557756443679
    Two-Electron Energy =                 364.0039400384586088
    DFT Exchange-Correlation Energy =       0.0000000000000000
    Empirical Dispersion Energy =           0.0000000000000000
    PCM Polarization Energy =               0.0000000000000000
    EFP Energy =                            0.0000000000000000
    Total Energy =                       -271.1726449479270968

  Mulliken Charges: (a.u.)
   Center  Symbol    Alpha    Beta     Spin     Total
       1     H     0.42284  0.42284  0.00000  0.15432
       2     C     3.07628  3.07628  0.00000 -0.15257
       3     O     4.32080  4.32080  0.00000 -0.64159
       4     H     0.41895  0.41895  0.00000  0.16209
       5     H     0.43058  0.43058  0.00000  0.13884
       6     C     2.84468  2.84468  0.00000  0.31064
       7     C     3.23302  3.23302  0.00000 -0.46604
       8     C     3.24538  3.24538  0.00000 -0.49076
       9     C     3.24611  3.24611  0.00000 -0.49222
      10     H     0.41397  0.41397  0.00000  0.17206
      11     H     0.41409  0.41409  0.00000  0.17181
      12     H     0.42521  0.42521  0.00000  0.14958
      13     H     0.41318  0.41318  0.00000  0.17363
      14     H     0.42012  0.42012  0.00000  0.15977
      15     H     0.42118  0.42118  0.00000  0.15764
      16     H     0.41322  0.41322  0.00000  0.17357
      17     H     0.41972  0.41972  0.00000  0.16055
      18     H     0.42066  0.42066  0.00000  0.15867

   Total alpha = 25.00000, Total beta = 25.00000, Total charge = -0.00000
