  ==> Input File <==

--------------------------------------------------------------------------
set {
	reference rhf
	basis 6-31G*
}

set_num_threads( 4 )
memory 2 gb

molecule MOL {
0 1

O	 2.862325	 1.357334	 0.000267
C	 2.843464	 0.164689	 -0.000222
C	 1.546494	 -0.624492	 -0.000609
C	 4.124123	 -0.644674	 -0.000428
C	 0.291004	 0.242674	 0.000989
H	 1.557904	 -1.283758	 -0.867573
H	 1.558622	 -1.285963	 0.864672
C	 -0.386811	 0.295481	 -1.369245
H	 0.552016	 1.245912	 0.322727
H	 -0.403996	 -0.138926	 0.742275
C	 -1.646312	 1.163395	 -1.379935
H	 0.316780	 0.675753	 -2.108434
H	 -0.644414	 -0.713980	 -1.686570
C	 -2.329985	 1.221354	 -2.747138
H	 -1.389854	 2.172927	 -1.063559
H	 -2.350742	 0.783660	 -0.641980
C	 -3.587162	 2.090367	 -2.749870
H	 -1.627172	 1.601918	 -3.485413
H	 -2.588183	 0.212924	 -3.063779
H	 -3.356420	 3.114358	 -2.469959
H	 -4.048679	 2.112195	 -3.732329
H	 -4.324717	 1.714873	 -2.046193
H	 4.165367	 -1.288615	 -0.874074
H	 4.976217	 0.020734	 -0.001915
H	 4.166763	 -1.286207	 0.874930

	symmetry c1
}
set optking {
	frozen_dihedral = ("
		9 5 3 6
	")
}

ee = optimize('scf')
oeprop('DIPOLE', 'QUADRUPOLE', 'MULLIKEN_CHARGES')
f=open( 'psi4out.xyz', 'w' )
f.write( "25  " )
f.write( str(ee) + "\n" )
f.write( MOL.save_string_xyz() )
f.close()
--------------------------------------------------------------------------

    Molecular point group: c1
  Charge       = 0
  Multiplicity = 1
  Basis Set: 6-31G*
  Basis Set:
  @DF-RHF Final Energy:  -387.13265750889440
    Total Energy =                       -387.1326575088949085
    Molecular point group: c1
  Basis Set: 6-31G*
  Basis Set:
  Basis Set: 6-31G*
  Basis Set:
  @DF-RHF Final Energy:  -387.13305608706332
    Total Energy =                       -387.1330560870635509
  Basis Set: 6-31G*
  Basis Set:
  Basis Set: 6-31G*
  Basis Set:
  @DF-RHF Final Energy:  -387.13257399979619
    Total Energy =                       -387.1325739997967048
  Basis Set: 6-31G*
  Basis Set:
  Basis Set: 6-31G*
  Basis Set:
  @DF-RHF Final Energy:  -387.13316516793799
    Total Energy =                       -387.1331651679387278
  Basis Set: 6-31G*
  Basis Set:
  @DF-RHF Final Energy:  -387.13316899183263
    Total Energy =                       -387.1331689918322354
  @DF-RHF Final Energy:  -387.13318733782501
    Total Energy =                       -387.1331873378244381
  @DF-RHF Final Energy:  -387.13319466200170
    Total Energy =                       -387.1331946620020972
  @DF-RHF Final Energy:  -387.13320481780653
    Total Energy =                       -387.1332048178069272
  Basis Set: 6-31G*
  Basis Set:
  @DF-RHF Final Energy:  -387.13321150854097
    Total Energy =                       -387.1332115085411942
  Basis Set: 6-31G*
  Basis Set:
  Basis Set: 6-31G*
  Basis Set:
  @DF-RHF Final Energy:  -387.13321557496329
    Total Energy =                       -387.1332155749632875
  Basis Set: 6-31G*
  Basis Set:
  Basis Set: 6-31G*
  Basis Set:
  @DF-RHF Final Energy:  -387.13321750261827
    Total Energy =                       -387.1332175026179812
  Basis Set: 6-31G*
  Basis Set:
  Charge       = 0
  Multiplicity = 1
  Basis Set: 6-31G*
  Basis Set:

    Orbital Energies (a.u.)
    -----------------------

    Doubly Occupied:

       1A    -20.551120     2A    -11.327303     3A    -11.232057
       4A    -11.228953     5A    -11.215555     6A    -11.212712
       7A    -11.212511     8A    -11.210332     9A    -11.206096
      10A     -1.396678    11A     -1.090546    12A     -1.054402
      13A     -1.013949    14A     -0.966973    15A     -0.889345
      16A     -0.814123    17A     -0.788019    18A     -0.728574
      19A     -0.667887    20A     -0.638434    21A     -0.633938
      22A     -0.620663    23A     -0.592456    24A     -0.583430
      25A     -0.574546    26A     -0.557089    27A     -0.532851
      28A     -0.525185    29A     -0.516556    30A     -0.496118
      31A     -0.481478    32A     -0.472632    33A     -0.460890
      34A     -0.458699    35A     -0.441422    36A     -0.401188

  @DF-RHF Final Energy:  -387.13321793446210

   => Energetics <=

    Nuclear Repulsion Energy =            444.1968826905136893
    One-Electron Energy =               -1405.0707749752937161
    Two-Electron Energy =                 573.7406743503178177
    DFT Exchange-Correlation Energy =       0.0000000000000000
    Empirical Dispersion Energy =           0.0000000000000000
    PCM Polarization Energy =               0.0000000000000000
    EFP Energy =                            0.0000000000000000
    Total Energy =                       -387.1332179344622091
    Molecular point group: c1
  Basis Set: 6-31G*
  Basis Set:

  -Total Gradient:
     Atom            X                  Y                   Z
    ------   -----------------  -----------------  -----------------
       1       -0.000003471641     0.000003705124     0.000009969777
       2       -0.000022722784    -0.000040323671    -0.000008827719
       3       -0.001801503401    -0.002849626450     0.001499495861
       4       -0.000000565833     0.000014181901    -0.000013261591
       5       -0.000308200246    -0.000523264702     0.003479396416
       6        0.001570360690     0.002457215655    -0.001778844697
       7       -0.000000939264     0.000000665985     0.000003636568
       8        0.000009106904     0.000000885330     0.000009823664
       9        0.000558826483     0.000938282597    -0.003210486148
      10        0.000007039017    -0.000000831648     0.000001119045
      11       -0.000003298964     0.000001129018    -0.000002073462
      12        0.000000953254    -0.000002064209    -0.000000262962
      13       -0.000003178864     0.000000587928    -0.000003018515
      14       -0.000001403672    -0.000004203521     0.000001578854
      15        0.000000584297     0.000000882340    -0.000000085448
      16       -0.000001243389     0.000001121834     0.000000554803
      17        0.000000603301     0.000002105858    -0.000000471483
      18       -0.000001474644     0.000000201337     0.000001571169
      19        0.000000434622    -0.000001138783    -0.000000400392
      20       -0.000000702542     0.000000326852     0.000000594641
      21        0.000000292956     0.000000322207    -0.000000267358
      22        0.000000780726    -0.000000553068    -0.000000705192
      23       -0.000005565402     0.000003744294     0.000000711080
      24        0.000005040997    -0.000003740657     0.000001815182
      25        0.000000247394     0.000000388448     0.000008437905

  **** Optimization is complete! (in 12 steps) ****
    Final optimized geometry and variables:
    Molecular point group: c1

    Geometry (in Angstrom), charge = 0, multiplicity = 1:

    O            2.427777568774     0.749657700590     0.687375298514
    C            2.429005271156    -0.430130351303     0.862576444528
    C            1.150068071123    -1.251052472977     0.937287566258
    C            3.724202757164    -1.201338017978     1.013135549345
    C           -0.137493389398    -0.415128652040     0.957473459806
    H            1.174491837938    -1.899157035820     0.061931249290
    H            1.221492658938    -1.909206064897     1.799237604056
    C           -0.802636678493    -0.312943827489    -0.418293482551
    H            0.101730343891     0.587440482958     1.289766679332
    H           -0.839570365223    -0.842188862789     1.667401712144
    C           -2.059408548158     0.557580655351    -0.412245827531
    H           -0.084913841482     0.095686259057    -1.126663910173
    H           -1.056916876526    -1.310405648212    -0.774615735001
    C           -2.728860269400     0.663260036934    -1.783699266620
    H           -1.802576029952     1.555013156482    -0.060540448398
    H           -2.773527009198     0.155468783137     0.305138873971
    C           -3.982924002319     1.536666174303    -1.770590784840
    H           -2.016748732830     1.065733427431    -2.500816765464
    H           -2.987278821433    -0.333105313522    -2.136555348095
    H           -3.751170854172     2.549959104997    -1.455003660971
    H           -4.434365085307     1.592594445328    -2.756410909328
    H           -4.729184530116     1.141205815054    -1.087118698472
    H            3.743121362163    -2.064398057577     0.354911063165
    H            4.562535247415    -0.554878377833     0.793861922250
    H            3.814489455603    -1.569819560918     2.031367278562

  Mulliken Charges: (a.u.)
   Center  Symbol    Alpha    Beta     Spin     Total
       1     O     4.26163  4.26163  0.00000 -0.52326
       2     C     2.73824  2.73824  0.00000  0.52351
       3     C     3.21315  3.21315  0.00000 -0.42630
       4     C     3.28716  3.28716  0.00000 -0.57432
       5     C     3.15460  3.15460  0.00000 -0.30920
       6     H     0.40670  0.40670  0.00000  0.18661
       7     H     0.40777  0.40777  0.00000  0.18445
       8     C     3.15579  3.15579  0.00000 -0.31158
       9     H     0.39957  0.39957  0.00000  0.20085
      10     H     0.42067  0.42067  0.00000  0.15867
      11     C     3.15187  3.15187  0.00000 -0.30374
      12     H     0.41699  0.41699  0.00000  0.16602
      13     H     0.42657  0.42657  0.00000  0.14685
      14     C     3.15150  3.15150  0.00000 -0.30301
      15     H     0.42024  0.42024  0.00000  0.15952
      16     H     0.42538  0.42538  0.00000  0.14923
      17     C     3.23930  3.23930  0.00000 -0.47859
      18     H     0.42196  0.42196  0.00000  0.15607
      19     H     0.42436  0.42436  0.00000  0.15128
      20     H     0.42100  0.42100  0.00000  0.15799
      21     H     0.41980  0.41980  0.00000  0.16040
      22     H     0.42245  0.42245  0.00000  0.15511
      23     H     0.41001  0.41001  0.00000  0.17999
      24     H     0.39646  0.39646  0.00000  0.20707
      25     H     0.40680  0.40680  0.00000  0.18640

   Total alpha = 36.00000, Total beta = 36.00000, Total charge = -0.00000
