  ==> Input File <==

--------------------------------------------------------------------------
set {
	reference rhf
	basis 6-31G*
}

set_num_threads( 1 )
memory 2 gb

molecule MOL {
0 1

H	 -2.563246	 -1.426993	 3.155826
C	 -2.492932	 -1.167919	 2.117271
C	 -1.323922	 -1.172690	 1.519446
H	 -3.392185	 -0.909144	 1.590688
O	 -1.180634	 -0.819263	 0.215062
H	 -0.412682	 -1.435724	 2.027038
C	 0.051604	 -1.018856	 -0.387932
C	 1.043764	 0.054862	 -0.001873
H	 -0.017620	 -1.041351	 -1.469781
H	 0.437898	 -1.966374	 -0.042284
F	 2.212596	 -0.199467	 -0.571921
F	 0.652529	 1.252447	 -0.405055
F	 1.230877	 0.110694	 1.300533

	symmetry c1
}
set optking {
	frozen_dihedral = ("
		11 8 7 9,
		6 3 2 1,
		6 3 5 7
	")
}

ee = energy('scf')
oeprop('DIPOLE', 'QUADRUPOLE', 'MULLIKEN_CHARGES')
f=open( 'psi4out.xyz', 'w' )
f.write( "13  " )
f.write( str(ee) + "\n" )
f.write( MOL.save_string_xyz() )
f.close()
--------------------------------------------------------------------------

    Molecular point group: c1

    Geometry (in Angstrom), charge = 0, multiplicity = 1:

       Center              X                  Y                   Z               Mass
    ------------   -----------------  -----------------  -----------------  -----------------
           H         -2.724170139943    -1.129570246920     2.728523868006     1.007825032070
           C         -2.653856139943    -0.870496246920     1.689968868006    12.000000000000
           C         -1.484846139943    -0.875267246920     1.092143868006    12.000000000000
           H         -3.553109139943    -0.611721246920     1.163385868006     1.007825032070
           O         -1.341558139943    -0.521840246920    -0.212240131994    15.994914619560
           H         -0.573606139943    -1.138301246920     1.599735868006     1.007825032070
           C         -0.109320139943    -0.721433246920    -0.815234131994    12.000000000000
           C          0.882839860057     0.352284753080    -0.429175131994    12.000000000000
           H         -0.178544139943    -0.743928246920    -1.897083131994     1.007825032070
           H          0.276973860057    -1.668951246920    -0.469586131994     1.007825032070
           F          2.051671860057     0.097955753080    -0.999223131994    18.998403224000
           F          0.491604860057     1.549869753080    -0.832357131994    18.998403224000
           F          1.069952860057     0.408116753080     0.873230868006    18.998403224000

  Charge       = 0
  Multiplicity = 1
  Basis Set: 6-31G*
  Basis Set:

    Orbital Energies (a.u.)
    -----------------------

    Doubly Occupied:

       1A    -26.350139     2A    -26.346150     3A    -26.340046
       4A    -20.605888     5A    -11.505139     6A    -11.319482
       7A    -11.297753     8A    -11.215708     9A     -1.744607
      10A     -1.645289    11A     -1.637910    12A     -1.437153
      13A     -1.083780    14A     -1.016764    15A     -0.927369
      16A     -0.837416    17A     -0.833689    18A     -0.827521
      19A     -0.785413    20A     -0.726981    21A     -0.712348
      22A     -0.699436    23A     -0.676766    24A     -0.661071
      25A     -0.656884    26A     -0.645301    27A     -0.632034
      28A     -0.592445    29A     -0.561237    30A     -0.524860
      31A     -0.505665    32A     -0.351271

  @DF-RHF Final Energy:  -527.53317263289034

   => Energetics <=

    Nuclear Repulsion Energy =            414.5496850358630354
    One-Electron Energy =               -1552.7585877352660191
    Two-Electron Energy =                 610.6757300665119601
    DFT Exchange-Correlation Energy =       0.0000000000000000
    Empirical Dispersion Energy =           0.0000000000000000
    PCM Polarization Energy =               0.0000000000000000
    EFP Energy =                            0.0000000000000000
    Total Energy =                       -527.5331726328911373

  Mulliken Charges: (a.u.)
   Center  Symbol    Alpha    Beta     Spin     Total
       1     H     0.40691  0.40691  0.00000  0.18618
       2     C     3.23561  3.23561  0.00000 -0.47122
       3     C     2.89907  2.89907  0.00000  0.20186
       4     H     0.40238  0.40238  0.00000  0.19523
       5     O     4.30371  4.30371  0.00000 -0.60743
       6     H     0.40164  0.40164  0.00000  0.19673
       7     C     3.06454  3.06454  0.00000 -0.12908
       8     C     2.45682  2.45682  0.00000  1.08636
       9     H     0.38687  0.38687  0.00000  0.22625
      10     H     0.40627  0.40627  0.00000  0.18746
      11     F     4.68266  4.68266  0.00000 -0.36533
      12     F     4.67680  4.67680  0.00000 -0.35360
      13     F     4.67671  4.67671  0.00000 -0.35342

   Total alpha = 32.00000, Total beta = 32.00000, Total charge = -0.00000
