  ==> Input File <==

--------------------------------------------------------------------------
set {
	reference rhf
	basis 6-31G*
}

set_num_threads( 4 )
memory 2 gb

molecule MOL {
0 1

H	 -2.121625	 1.743069	 -1.502619
C	 -1.722558	 0.967655	 -0.875836
C	 -2.559119	 0.159511	 -0.124827
C	 -0.360630	 0.765504	 -0.810743
H	 -3.624227	 0.301297	 -0.162039
C	 -2.031577	 -0.834753	 0.677586
H	 0.312785	 1.372691	 -1.378734
C	 0.154804	 -0.237046	 -0.000077
H	 -2.697413	 -1.451374	 1.252509
C	 -0.661542	 -1.071014	 0.771353
N	 1.611208	 -0.370857	 -0.000034
C	 -0.194730	 -2.186229	 1.680920
O	 2.274126	 0.622059	 -0.008063
O	 2.068510	 -1.474748	 0.007823
H	 0.456034	 -1.816582	 2.461302
H	 -1.056951	 -2.653379	 2.139966
H	 0.358220	 -2.938701	 1.135800

	symmetry c1
}
set optking {
	frozen_dihedral = ("
		4 8 11 13
	")
}

ee = optimize('scf')
oeprop('DIPOLE', 'QUADRUPOLE', 'MULLIKEN_CHARGES')
f=open( 'psi4out.xyz', 'w' )
f.write( "17  " )
f.write( str(ee) + "\n" )
f.write( MOL.save_string_xyz() )
f.close()
--------------------------------------------------------------------------

    Molecular point group: c1
  Charge       = 0
  Multiplicity = 1
  Basis Set: 6-31G*
  Basis Set:
  @DF-RHF Final Energy:  -473.20487617229378
    Total Energy =                       -473.2048761722937797
    Molecular point group: c1
  Basis Set: 6-31G*
  Basis Set:
  Basis Set: 6-31G*
  Basis Set:
  @DF-RHF Final Energy:  -473.20567848501207
    Total Energy =                       -473.2056784850120721
  Basis Set: 6-31G*
  Basis Set:
  Basis Set: 6-31G*
  Basis Set:
  @DF-RHF Final Energy:  -473.20395617781151
    Total Energy =                       -473.2039561778119605
  Basis Set: 6-31G*
  Basis Set:
  Basis Set: 6-31G*
  Basis Set:
  @DF-RHF Final Energy:  -473.20608367863929
    Total Energy =                       -473.2060836786394020
  Basis Set: 6-31G*
  Basis Set:
  Basis Set: 6-31G*
  Basis Set:
  @DF-RHF Final Energy:  -473.20613474418900
    Total Energy =                       -473.2061347441888302
  Basis Set: 6-31G*
  Basis Set:
  Basis Set: 6-31G*
  Basis Set:
  @DF-RHF Final Energy:  -473.20614045195907
    Total Energy =                       -473.2061404519588450
  Basis Set: 6-31G*
  Basis Set:
  Charge       = 0
  Multiplicity = 1
  Basis Set: 6-31G*
  Basis Set:

    Orbital Energies (a.u.)
    -----------------------

    Doubly Occupied:

       1A    -20.601439     2A    -20.600546     3A    -15.852784
       4A    -11.300807     5A    -11.280357     6A    -11.267113
       7A    -11.262322     8A    -11.254848     9A    -11.253966
      10A    -11.235727    11A     -1.633274    12A     -1.416307
      13A     -1.200950    14A     -1.092010    15A     -1.072397
      16A     -0.979631    17A     -0.932761    18A     -0.849876
      19A     -0.821217    20A     -0.769960    21A     -0.732893
      22A     -0.726918    23A     -0.694260    24A     -0.658628
      25A     -0.637010    26A     -0.599093    27A     -0.593511
      28A     -0.566141    29A     -0.540894    30A     -0.522233
      31A     -0.520265    32A     -0.487864    33A     -0.480446
      34A     -0.448128    35A     -0.367094    36A     -0.353553

  @DF-RHF Final Energy:  -473.20614109304796

   => Energetics <=

    Nuclear Repulsion Energy =            510.0156874657458843
    One-Electron Energy =               -1655.2292090562546036
    Two-Electron Energy =                 672.0073804974608720
    DFT Exchange-Correlation Energy =       0.0000000000000000
    Empirical Dispersion Energy =           0.0000000000000000
    PCM Polarization Energy =               0.0000000000000000
    EFP Energy =                            0.0000000000000000
    Total Energy =                       -473.2061410930477905
    Molecular point group: c1
  Basis Set: 6-31G*
  Basis Set:

  -Total Gradient:
     Atom            X                  Y                   Z
    ------   -----------------  -----------------  -----------------
       1       -0.000006854260    -0.000000942129    -0.000001912427
       2       -0.000079239821    -0.000008692236     0.000036573855
       3        0.000001311906     0.000055114630    -0.000075513719
       4       -0.000068227310    -0.001387216595    -0.001474699216
       5       -0.000003085121     0.000006212012    -0.000002418122
       6        0.000069742718    -0.000047497101     0.000004334499
       7        0.000013838872     0.000011860771    -0.000003268471
       8        0.000185161019     0.001964741302     0.002983099725
       9        0.000000713995     0.000005245902    -0.000004752845
      10       -0.000012034228     0.000031456867     0.000055027074
      11       -0.000048281941    -0.000637115845    -0.003841207900
      12        0.000015784098     0.000039118323     0.000038182062
      13       -0.000078672979    -0.000011555508     0.002337236213
      14        0.000023735566     0.000033067056    -0.000017024039
      15       -0.000020137571    -0.000017031257    -0.000014836176
      16       -0.000001562696    -0.000015255084     0.000000693039
      17        0.000007807756    -0.000021511111    -0.000019513552

  **** Optimization is complete! (in 7 steps) ****
    Final optimized geometry and variables:
    Molecular point group: c1

    Geometry (in Angstrom), charge = 0, multiplicity = 1:

    H           -2.071589595182     2.125693153475    -1.677519567916
    C           -1.675029938402     1.355240349291    -1.042973143962
    C           -2.518370319576     0.533094075732    -0.314581159523
    C           -0.309801236998     1.177715413766    -0.940664320002
    H           -3.583525866600     0.664494293468    -0.376565221511
    C           -1.999833829647    -0.457832128377     0.500719947383
    H            0.374657298451     1.805251288213    -1.476543827295
    C            0.184602844895     0.171465388034    -0.129651769255
    H           -2.670012536927    -1.077906611264     1.067735809549
    C           -0.630675072900    -0.682041605157     0.608351830381
    N            1.635787332008     0.016305494185    -0.113365185504
    C           -0.122778043254    -1.785581051032     1.508426094033
    O            2.293962367582     1.012781573367    -0.113015560425
    O            2.080090320794    -1.091772610113    -0.103154950456
    H            0.714312262344    -1.462905263101     2.113574343447
    H           -0.917101570052    -2.107205778309     2.170244668155
    H            0.209397777037    -2.635980479360     0.927130363124

  Mulliken Charges: (a.u.)
   Center  Symbol    Alpha    Beta     Spin     Total
       1     H     0.38951  0.38951  0.00000  0.22097
       2     C     3.11187  3.11187  0.00000 -0.22374
       3     C     3.08333  3.08333  0.00000 -0.16667
       4     C     3.08289  3.08289  0.00000 -0.16578
       5     H     0.39013  0.39013  0.00000  0.21975
       6     C     3.12327  3.12327  0.00000 -0.24654
       7     H     0.36960  0.36960  0.00000  0.26080
       8     C     2.92290  2.92290  0.00000  0.15420
       9     H     0.39272  0.39272  0.00000  0.21456
      10     C     2.96424  2.96424  0.00000  0.07153
      11     N     3.25991  3.25991  0.00000  0.48017
      12     C     3.24356  3.24356  0.00000 -0.48712
      13     O     4.22804  4.22804  0.00000 -0.45608
      14     O     4.22928  4.22928  0.00000 -0.45856
      15     H     0.40271  0.40271  0.00000  0.19459
      16     H     0.41290  0.41290  0.00000  0.17421
      17     H     0.39314  0.39314  0.00000  0.21371

   Total alpha = 36.00000, Total beta = 36.00000, Total charge =  0.00000
