  ==> Input File <==

--------------------------------------------------------------------------
set {
	reference rhf
	basis 6-31G*
}

set_num_threads( 4 )
memory 2 gb

molecule MOL {
0 1

O	 -0.682937	 1.318834	 -0.186099
C	 -0.860635	 0.152188	 -0.042321
C	 -2.173363	 -0.477127	 0.338347
O	 0.083258	 -0.765189	 -0.202595
H	 -2.477673	 -1.180929	 -0.427595
H	 -2.923125	 0.290956	 0.455536
H	 -2.058825	 -1.029004	 1.264191
C	 0.269200	 -1.733939	 0.826845
C	 -0.699146	 -2.893177	 0.681524
H	 0.165647	 -1.254372	 1.788319
H	 1.290604	 -2.065058	 0.706040
H	 -0.483484	 -3.647978	 1.431522
H	 -1.720982	 -2.561664	 0.816871
H	 -0.603989	 -3.349187	 -0.297974

	symmetry c1
}
set optking {
	frozen_dihedral = ("
		8 4 2 1
	")
}

ee = optimize('scf')
oeprop('DIPOLE', 'QUADRUPOLE', 'MULLIKEN_CHARGES')
f=open( 'psi4out.xyz', 'w' )
f.write( "14  " )
f.write( str(ee) + "\n" )
f.write( MOL.save_string_xyz() )
f.close()
--------------------------------------------------------------------------

    Molecular point group: c1
  Charge       = 0
  Multiplicity = 1
  Basis Set: 6-31G*
  Basis Set:
  @DF-RHF Final Energy:  -305.83657750953466
    Total Energy =                       -305.8365775095346635
    Molecular point group: c1
  Basis Set: 6-31G*
  Basis Set:
  Basis Set: 6-31G*
  Basis Set:
  @DF-RHF Final Energy:  -305.85033890697980
    Total Energy =                       -305.8503389069798004
  Basis Set: 6-31G*
  Basis Set:
  Basis Set: 6-31G*
  Basis Set:
  @DF-RHF Final Energy:  -305.85241624541322
    Total Energy =                       -305.8524162454131101
  Basis Set: 6-31G*
  Basis Set:
  Basis Set: 6-31G*
  Basis Set:
  @DF-RHF Final Energy:  -305.85226311041203
    Total Energy =                       -305.8522631104119682
  Basis Set: 6-31G*
  Basis Set:
  @DF-RHF Final Energy:  -305.85446821032696
    Total Energy =                       -305.8544682103271839
  @DF-RHF Final Energy:  -305.85481103864805
    Total Energy =                       -305.8548110386477674
  @DF-RHF Final Energy:  -305.85504654655347
    Total Energy =                       -305.8550465465536377
  Basis Set: 6-31G*
  Basis Set:
  @DF-RHF Final Energy:  -305.85510684260078
    Total Energy =                       -305.8551068426006054
  Basis Set: 6-31G*
  Basis Set:
  Basis Set: 6-31G*
  Basis Set:
  @DF-RHF Final Energy:  -305.85511911564714
    Total Energy =                       -305.8551191156471987
  Basis Set: 6-31G*
  Basis Set:
  Basis Set: 6-31G*
  Basis Set:
  @DF-RHF Final Energy:  -305.85512188763153
    Total Energy =                       -305.8551218876314124
  Basis Set: 6-31G*
  Basis Set:
  Charge       = 0
  Multiplicity = 1
  Basis Set: 6-31G*
  Basis Set:

    Orbital Energies (a.u.)
    -----------------------

    Doubly Occupied:

       1A    -20.590093     2A    -20.548420     3A    -11.377647
       4A    -11.300904     5A    -11.240911     6A    -11.230876
       7A     -1.458592     8A     -1.366318     9A     -1.049418
      10A     -1.015857    11A     -0.889223    12A     -0.778589
      13A     -0.698113    14A     -0.687631    15A     -0.653834
      16A     -0.619591    17A     -0.594297    18A     -0.583211
      19A     -0.562716    20A     -0.544786    21A     -0.523582
      22A     -0.486574    23A     -0.450169    24A     -0.436635

  @DF-RHF Final Energy:  -305.85512281344347

   => Energetics <=

    Nuclear Repulsion Energy =            246.6966251870620397
    One-Electron Energy =                -905.7275193139423664
    Two-Electron Energy =                 353.1757713134370533
    DFT Exchange-Correlation Energy =       0.0000000000000000
    Empirical Dispersion Energy =           0.0000000000000000
    PCM Polarization Energy =               0.0000000000000000
    EFP Energy =                            0.0000000000000000
    Total Energy =                       -305.8551228134432449
    Molecular point group: c1
  Basis Set: 6-31G*
  Basis Set:

  -Total Gradient:
     Atom            X                  Y                   Z
    ------   -----------------  -----------------  -----------------
       1        0.001033147253     0.000546689040     0.002433320580
       2       -0.000472786503    -0.000070747953    -0.003233691154
       3        0.000041108914     0.000056903417     0.000083712961
       4       -0.002403451715    -0.001782752973     0.000173460059
       5       -0.000001795313    -0.000009720996    -0.000029116351
       6        0.000003162585    -0.000008668461    -0.000010372614
       7       -0.000014584009    -0.000051239563    -0.000034202158
       8        0.001824873696     0.001292158108     0.000610281773
       9        0.000029498269    -0.000001266696     0.000006557868
      10       -0.000009574274    -0.000003704026    -0.000005487856
      11       -0.000003739512    -0.000003324624     0.000001306147
      12       -0.000004630056     0.000000608606     0.000003926432
      13       -0.000018674853     0.000028348768    -0.000001927951
      14       -0.000002554484     0.000006717352     0.000002232268

  **** Optimization is complete! (in 11 steps) ****
    Final optimized geometry and variables:
    Molecular point group: c1

    Geometry (in Angstrom), charge = 0, multiplicity = 1:

    O            0.129343011258     1.994729261883    -0.663114310725
    C           -0.218363592470     0.926817500161    -0.295314210045
    C           -1.598865502166     0.653390005506     0.255217556802
    O            0.594565770499    -0.134552667621    -0.422068614994
    H           -2.119000660670    -0.021907795766    -0.415894120966
    H           -2.141131527469     1.584224178806     0.324378677543
    H           -1.565310010481     0.184328658449     1.231056063700
    C            0.862813606504    -1.007193709144     0.665570244794
    C            0.247631660669    -2.374861099042     0.435378054021
    H            0.518162747226    -0.571930755622     1.595890581638
    H            1.939852086473    -1.080207881775     0.722211998572
    H            0.540554262172    -3.054489228134     1.229643574151
    H           -0.835381238793    -2.324900388863     0.412745411463
    H            0.588850597413    -2.783182089659    -0.508770459736

  Mulliken Charges: (a.u.)
   Center  Symbol    Alpha    Beta     Spin     Total
       1     O     4.25324  4.25324  0.00000 -0.50647
       2     C     2.62451  2.62451  0.00000  0.75098
       3     C     3.29848  3.29848  0.00000 -0.59696
       4     O     4.30939  4.30939  0.00000 -0.61877
       5     H     0.39894  0.39894  0.00000  0.20213
       6     H     0.39183  0.39183  0.00000  0.21634
       7     H     0.40713  0.40713  0.00000  0.18574
       8     C     3.00625  3.00625  0.00000 -0.01249
       9     C     3.24795  3.24795  0.00000 -0.49591
      10     H     0.42006  0.42006  0.00000  0.15988
      11     H     0.40274  0.40274  0.00000  0.19452
      12     H     0.41701  0.41701  0.00000  0.16599
      13     H     0.41632  0.41632  0.00000  0.16736
      14     H     0.40616  0.40616  0.00000  0.18767

   Total alpha = 24.00000, Total beta = 24.00000, Total charge =  0.00000
