                              Psi4 1.0.54 Driver

  ==> Input File <==

--------------------------------------------------------------------------
set {
	reference rhf
	basis cc-pvtz
}

set_num_threads( 4 )
memory 2 gb

molecule MOL {
0 1

O	 0.715056	 0.657107	 0.976057
C	 1.121787	 0.124983	 0.000110
C	 0.539391	 0.268507	 -1.382524
O	 2.167739	 -0.685178	 -0.000678
C	 -0.669836	 1.190275	 -1.446095
H	 1.335541	 0.619307	 -2.031035
H	 0.292196	 -0.728757	 -1.731551
C	 -1.233302	 1.313256	 -2.858784
H	 -0.392888	 2.170479	 -1.074557
H	 -1.437446	 0.820889	 -0.775369
C	 -2.444294	 2.236660	 -2.934368
H	 -0.458693	 1.680611	 -3.526819
H	 -1.508829	 0.328031	 -3.225736
H	 -2.191971	 3.239318	 -2.606350
H	 -2.822644	 2.304951	 -3.947711
H	 -3.249765	 1.876889	 -2.303209
C	 3.449556	 -0.089977	 -0.000570
H	 3.585694	 0.522473	 -0.879546
H	 4.155805	 -0.904274	 -0.001389
H	 3.586173	 0.521118	 0.879272

	symmetry c1
}
set optking {
	frozen_dihedral = ("
		1 2 4 17
	")
}

ee,wfn = optimize('scf', return_wfn=True)
oeprop( wfn, 'DIPOLE', 'QUADRUPOLE', 'MULLIKEN_CHARGES')
f=open( 'psi4out.xyz', 'w' )
f.write( "20  " )
f.write( str(ee) + "\n" )
f.write( MOL.save_string_xyz() )
f.close()
--------------------------------------------------------------------------

    Molecular point group: c1
  Charge       = 0
  Multiplicity = 1
  Basis Set: CC-PVTZ
  Basis Set:
  @DF-RHF Final Energy:  -384.06395630498065
    Total Energy =                       -384.0639563049807066
    Molecular point group: c1
  Basis Set: CC-PVTZ
  Basis Set:
  Basis Set: CC-PVTZ
  Basis Set:
  @DF-RHF Final Energy:  -383.96410895594477
    Total Energy =                       -383.9641089559445959
  Basis Set: CC-PVTZ
  Basis Set:
  Basis Set: CC-PVTZ
  Basis Set:
  @DF-RHF Final Energy:  -384.04771088200437
    Total Energy =                       -384.0477108820043668
  Basis Set: CC-PVTZ
  Basis Set:
  Basis Set: CC-PVTZ
  Basis Set:
  @DF-RHF Final Energy:  -384.06335087917921
    Total Energy =                       -384.0633508791795521
  Basis Set: CC-PVTZ
  Basis Set:
  @DF-RHF Final Energy:  -384.06175202156248
    Total Energy =                       -384.0617520215620289
  @DF-RHF Final Energy:  -384.06470760012581
    Total Energy =                       -384.0647076001255300
  Basis Set: CC-PVTZ
  Basis Set:
  @DF-RHF Final Energy:  -384.06524636787998
    Total Energy =                       -384.0652463678802633
  Basis Set: CC-PVTZ
  Basis Set:
  Basis Set: CC-PVTZ
  Basis Set:
  @DF-RHF Final Energy:  -384.06525526056754
    Total Energy =                       -384.0652552605677101
  Basis Set: CC-PVTZ
  Basis Set:
  Basis Set: CC-PVTZ
  Basis Set:
  @DF-RHF Final Energy:  -384.06525662044976
    Total Energy =                       -384.0652566204499863
  Basis Set: CC-PVTZ
  Basis Set:
  Charge       = 0
  Multiplicity = 1
  Basis Set: CC-PVTZ
  Basis Set:

    Orbital Energies (a.u.)
    -----------------------

    Doubly Occupied:

       1A    -20.578176     2A    -20.545649     3A    -11.367793
       4A    -11.287655     5A    -11.237856     6A    -11.220878
       7A    -11.220003     8A    -11.210594     9A     -1.462124
      10A     -1.369430    11A     -1.091528    12A     -1.021062
      13A     -0.969972    14A     -0.895534    15A     -0.807869
      16A     -0.766952    17A     -0.698031    18A     -0.681592
      19A     -0.676099    20A     -0.644278    21A     -0.616051
      22A     -0.592020    23A     -0.588504    24A     -0.549354
      25A     -0.538091    26A     -0.513366    27A     -0.500847
      28A     -0.490439    29A     -0.479457    30A     -0.472894
      31A     -0.454699    32A     -0.436493

  @DF-RHF Final Energy:  -384.06525671106954

   => Energetics <=

    Nuclear Repulsion Energy =            381.6648912807764873
    One-Electron Energy =               -1279.4897230584285808
    Two-Electron Energy =                 513.7595750665827836
    DFT Exchange-Correlation Energy =       0.0000000000000000
    Empirical Dispersion Energy =           0.0000000000000000
    PCM Polarization Energy =               0.0000000000000000
    EFP Energy =                            0.0000000000000000
    Total Energy =                       -384.0652567110693099
    Molecular point group: c1
  Basis Set: CC-PVTZ
  Basis Set:

  -Total Gradient:
     Atom            X                  Y                   Z
    ------   -----------------  -----------------  -----------------
       1       -0.002410764095    -0.003745915353     0.002173128121
       2        0.003481959206     0.004900562486    -0.004917605819
       3       -0.000025399383     0.000000222197     0.000002391245
       4       -0.000971074703     0.000070219542     0.006486600198
       5        0.000025045827    -0.000008919982     0.000003963062
       6        0.000007224698     0.000006525696    -0.000003870808
       7        0.000004886090    -0.000003079757    -0.000000653955
       8       -0.000015559561     0.000007134356    -0.000003507970
       9       -0.000002248684     0.000006979330     0.000000133707
      10       -0.000005613123     0.000000387394     0.000001889411
      11        0.000009060516    -0.000008661749     0.000002577666
      12        0.000000154416    -0.000000693841     0.000001799454
      13        0.000000941121    -0.000005971021     0.000000351630
      14       -0.000001645338     0.000004720254    -0.000001104533
      15       -0.000004230879     0.000002112683    -0.000005265820
      16        0.000001157638     0.000000038309    -0.000000546859
      17       -0.000102021848    -0.001227325471    -0.003735401829
      18        0.000001254629     0.000001715307    -0.000010981736
      19        0.000005179951    -0.000004631908     0.000002033691
      20        0.000001693525     0.000004581527     0.000004071147

  **** Optimization is complete! (in 10 steps) ****
    Final optimized geometry and variables:
    Molecular point group: c1

    Geometry (in Angstrom), charge = 0, multiplicity = 1:

    O            0.344798008206     0.692740981484     1.746541291331
    C            0.776719008248    -0.049797897900     0.942676951049
    C            0.076036066347    -0.461536696609    -0.325000840354
    O            1.949512777967    -0.693318673089     1.125741388421
    C           -1.267166192942     0.217356053692    -0.547697844357
    H            0.756222700449    -0.268040371700    -1.150043308222
    H           -0.027712568188    -1.541452091369    -0.283406386839
    C           -1.944781084934    -0.237434569170    -1.837109063875
    H           -1.126621216836     1.292652065877    -0.566409122799
    H           -1.913184086303     0.013957772402     0.298775393063
    C           -3.292649325349     0.437265265357    -2.067095013248
    H           -1.291612845472    -0.032890139812    -2.681512014875
    H           -2.081490866995    -1.315296948361    -1.812858049650
    H           -3.184552180429     1.514735095246    -2.130352921515
    H           -3.749905757706     0.095553117497    -2.988359678955
    H           -3.980110343789     0.222534864118    -1.256105259141
    C            3.122930250731     0.041932108512     0.860947995510
    H            3.169718039934     0.333841857721    -0.182732831931
    H            3.954201356662    -0.607348292402     1.082773896551
    H            3.173983993999     0.922645280315     1.487329367971

  Mulliken Charges: (a.u.)
   Center  Symbol    Alpha    Beta     Spin     Total
       1     O     4.17116  4.17116  0.00000 -0.34233
       2     C     2.78778  2.78778  0.00000  0.42443
       3     C     3.11501  3.11501  0.00000 -0.23003
       4     O     4.17016  4.17016  0.00000 -0.34033
       5     C     3.08257  3.08257  0.00000 -0.16514
       6     H     0.44439  0.44439  0.00000  0.11122
       7     H     0.43711  0.43711  0.00000  0.12578
       8     C     3.08597  3.08597  0.00000 -0.17195
       9     H     0.44776  0.44776  0.00000  0.10449
      10     H     0.44459  0.44459  0.00000  0.11082
      11     C     3.14938  3.14938  0.00000 -0.29877
      12     H     0.45564  0.45564  0.00000  0.08873
      13     H     0.45447  0.45447  0.00000  0.09106
      14     H     0.45402  0.45402  0.00000  0.09196
      15     H     0.44810  0.44810  0.00000  0.10381
      16     H     0.45328  0.45328  0.00000  0.09345
      17     C     3.03512  3.03512  0.00000 -0.07024
      18     H     0.46776  0.46776  0.00000  0.06448
      19     H     0.44369  0.44369  0.00000  0.11262
      20     H     0.45204  0.45204  0.00000  0.09592

   Total alpha = 32.00000, Total beta = 32.00000, Total charge = -0.00000

*** Psi4 exiting successfully. Buy a developer a beer!
