                              Psi4 1.0.54 Driver

  ==> Input File <==

--------------------------------------------------------------------------
set {
	reference rhf
	basis cc-pvtz
}

set_num_threads( 4 )
memory 2 gb

molecule MOL {
0 1

O	 0.623971	 1.347241	 -0.000777
C	 0.485107	 0.171416	 -0.000134
C	 1.606966	 -0.836201	 0.000174
O	 -0.695554	 -0.422406	 0.000602
C	 2.988788	 -0.202529	 -0.000115
H	 1.465110	 -1.474645	 -0.864821
H	 1.465209	 -1.474077	 0.865596
H	 3.131767	 0.419673	 -0.873407
H	 3.750876	 -0.972315	 0.000098
H	 3.131883	 0.420264	 0.872742
C	 -1.776541	 0.252266	 0.628751
C	 -3.003832	 -0.618793	 0.496463
H	 -1.918011	 1.212255	 0.152564
H	 -1.526696	 0.431283	 1.665021
H	 -3.243641	 -0.791942	 -0.545115
H	 -3.850048	 -0.131966	 0.966730
H	 -2.850145	 -1.577331	 0.976000

	symmetry c1
}
set optking {
	frozen_dihedral = ("
		11 4 2 3
	")
}

ee,wfn = optimize('scf', return_wfn=True)
oeprop( wfn, 'DIPOLE', 'QUADRUPOLE', 'MULLIKEN_CHARGES')
f=open( 'psi4out.xyz', 'w' )
f.write( "17  " )
f.write( str(ee) + "\n" )
f.write( MOL.save_string_xyz() )
f.close()
--------------------------------------------------------------------------

    Molecular point group: c1
  Charge       = 0
  Multiplicity = 1
  Basis Set: CC-PVTZ
  Basis Set:
  @DF-RHF Final Energy:  -345.03579199704188
    Total Energy =                       -345.0357919970419971
    Molecular point group: c1
  Basis Set: CC-PVTZ
  Basis Set:
  Basis Set: CC-PVTZ
  Basis Set:
  @DF-RHF Final Energy:  -345.03282874970239
    Total Energy =                       -345.0328287497025030
  Basis Set: CC-PVTZ
  Basis Set:
  Basis Set: CC-PVTZ
  Basis Set:
  @DF-RHF Final Energy:  -345.03618539195980
    Total Energy =                       -345.0361853919598616
  Basis Set: CC-PVTZ
  Basis Set:
  Basis Set: CC-PVTZ
  Basis Set:
  @DF-RHF Final Energy:  -345.03634583547120
    Total Energy =                       -345.0363458354713089
  Basis Set: CC-PVTZ
  Basis Set:
  Basis Set: CC-PVTZ
  Basis Set:
  @DF-RHF Final Energy:  -345.03639293579567
    Total Energy =                       -345.0363929357954476
  Basis Set: CC-PVTZ
  Basis Set:
  Basis Set: CC-PVTZ
  Basis Set:
  @DF-RHF Final Energy:  -345.03640990822925
    Total Energy =                       -345.0364099082290750
  Basis Set: CC-PVTZ
  Basis Set:
  Basis Set: CC-PVTZ
  Basis Set:
  @DF-RHF Final Energy:  -345.03641135125167
    Total Energy =                       -345.0364113512512176
  Basis Set: CC-PVTZ
  Basis Set:
  Charge       = 0
  Multiplicity = 1
  Basis Set: CC-PVTZ
  Basis Set:

    Orbital Energies (a.u.)
    -----------------------

    Doubly Occupied:

       1A    -20.589430     2A    -20.534721     3A    -11.364247
       4A    -11.284333     5A    -11.236764     6A    -11.220775
       7A    -11.214419     8A     -1.467943     9A     -1.365247
      10A     -1.070134    11A     -1.033287    12A     -0.911044
      13A     -0.850461    14A     -0.773889    15A     -0.699330
      16A     -0.688622    17A     -0.667921    18A     -0.630473
      19A     -0.587990    20A     -0.573480    21A     -0.557912
      22A     -0.526234    23A     -0.522324    24A     -0.515034
      25A     -0.504802    26A     -0.494525    27A     -0.455359
      28A     -0.437951

  @DF-RHF Final Energy:  -345.03641208825644

   => Energetics <=

    Nuclear Repulsion Energy =            315.0802680008692391
    One-Electron Energy =               -1094.6760603778934637
    Two-Electron Energy =                 434.5593802887676702
    DFT Exchange-Correlation Energy =       0.0000000000000000
    Empirical Dispersion Energy =           0.0000000000000000
    PCM Polarization Energy =               0.0000000000000000
    EFP Energy =                            0.0000000000000000
    Total Energy =                       -345.0364120882566112
    Molecular point group: c1
  Basis Set: CC-PVTZ
  Basis Set:

  -Total Gradient:
     Atom            X                  Y                   Z
    ------   -----------------  -----------------  -----------------
       1        0.000004335836     0.000037126566    -0.000076568598
       2        0.001078136630    -0.000900646505    -0.005279065460
       3       -0.000309214767    -0.000653205818     0.005649902877
       4       -0.001853922210     0.004936652431    -0.005578279069
       5       -0.000012585309     0.000027666964    -0.000005151018
       6        0.000004780903     0.000047132896     0.000047027364
       7       -0.000002302633     0.000026615991    -0.000028538786
       8        0.000008781201    -0.000017042283     0.000030641715
       9       -0.000006358621     0.000011595450    -0.000000615389
      10       -0.000008766542    -0.000026332313    -0.000032057528
      11        0.001102093101    -0.003485600263     0.005269643307
      12       -0.000004898073     0.000007942493    -0.000003760410
      13       -0.000002516814    -0.000020905092     0.000004164878
      14       -0.000004959524    -0.000000411149    -0.000000781985
      15        0.000003358731     0.000000127524     0.000010079673
      16        0.000000983267    -0.000002904845    -0.000001846455
      17        0.000003054824     0.000012187958    -0.000004795116

  **** Optimization is complete! (in 8 steps) ****
    Final optimized geometry and variables:
    Molecular point group: c1

    Geometry (in Angstrom), charge = 0, multiplicity = 1:

    O            0.628865348400     1.380491191770     0.092115551613
    C            0.474830367949     0.225564227640    -0.111241756171
    C            1.580136477480    -0.797702197164    -0.159251444618
    O           -0.719570724957    -0.338107026189    -0.236954604822
    C            2.969853433016    -0.191538509715    -0.269872694181
    H            1.375949458534    -1.483406135582    -0.972705822070
    H            1.478729090858    -1.378939459041     0.752252381681
    H            3.074487679395     0.377508997975    -1.184788837179
    H            3.719172769642    -0.973682736999    -0.269453657435
    H            3.169336820951     0.476156525256     0.556620683265
    C           -1.819443700906     0.294511873940     0.403485653859
    C           -3.023290069596    -0.605233844644     0.251965780319
    H           -1.991147639250     1.261926891316    -0.045493404789
    H           -1.570998394052     0.450752915317     1.445247144232
    H           -3.259212121976    -0.756445772524    -0.793785447532
    H           -3.881344206973    -0.152788917229     0.735021536331
    H           -2.843486163583    -1.571797174308     0.705482505722

  Mulliken Charges: (a.u.)
   Center  Symbol    Alpha    Beta     Spin     Total
       1     O     4.19242  4.19242  0.00000 -0.38484
       2     C     2.80975  2.80975  0.00000  0.38049
       3     C     3.09137  3.09137  0.00000 -0.18273
       4     O     4.15561  4.15561  0.00000 -0.31121
       5     C     3.14072  3.14072  0.00000 -0.28143
       6     H     0.43926  0.43926  0.00000  0.12149
       7     H     0.44577  0.44577  0.00000  0.10845
       8     H     0.45038  0.45038  0.00000  0.09923
       9     H     0.45044  0.45044  0.00000  0.09911
      10     H     0.44571  0.44571  0.00000  0.10858
      11     C     2.97904  2.97904  0.00000  0.04192
      12     C     3.13335  3.13335  0.00000 -0.26669
      13     H     0.44879  0.44879  0.00000  0.10242
      14     H     0.46028  0.46028  0.00000  0.07944
      15     H     0.44996  0.44996  0.00000  0.10009
      16     H     0.45493  0.45493  0.00000  0.09013
      17     H     0.45223  0.45223  0.00000  0.09554

   Total alpha = 28.00000, Total beta = 28.00000, Total charge = -0.00000

*** Psi4 exiting successfully. Buy a developer a beer!
