  ==> Input File <==

--------------------------------------------------------------------------
set {
	reference rhf
	basis cc-pvtz
}

set_num_threads( 4 )
memory 2 gb

molecule MOL {
0 1

H	 -0.032687	 -0.422221	 0.753426
N	 -0.625934	 -0.663929	 -0.000707
C	 -1.978635	 -0.158664	 0.001017
C	 -0.122314	 -1.449340	 -0.978500
H	 -2.519057	 -0.493535	 -0.876362
H	 -1.938890	 0.917202	 -0.004137
H	 -2.514266	 -0.485137	 0.884506
C	 1.320194	 -1.858735	 -0.777535
O	 -0.753643	 -1.794309	 -1.933223
H	 1.429795	 -2.417275	 0.144756
H	 1.628421	 -2.472611	 -1.607727
H	 1.957721	 -0.984258	 -0.718649

	symmetry c1
}
set optking {
	frozen_dihedral = ("
		4 2 3 5
	")
}

ee = optimize('scf')
oeprop('DIPOLE', 'QUADRUPOLE', 'MULLIKEN_CHARGES')
f=open( 'psi4out.xyz', 'w' )
f.write( "12  " )
f.write( str(ee) + "\n" )
f.write( MOL.save_string_xyz() )
f.close()
--------------------------------------------------------------------------

    Molecular point group: c1
  Charge       = 0
  Multiplicity = 1
  Basis Set: CC-PVTZ
  Basis Set:
  @DF-RHF Final Energy:  -247.10044876171088
    Total Energy =                       -247.1004487617107657
    Molecular point group: c1
  Basis Set: CC-PVTZ
  Basis Set:
  Basis Set: CC-PVTZ
  Basis Set:
  @DF-RHF Final Energy:  -247.10089043199068
    Total Energy =                       -247.1008904319908197
  Basis Set: CC-PVTZ
  Basis Set:
  Basis Set: CC-PVTZ
  Basis Set:
  @DF-RHF Final Energy:  -247.10085298888612
    Total Energy =                       -247.1008529888860039
  Basis Set: CC-PVTZ
  Basis Set:
  Charge       = 0
  Multiplicity = 1
  Basis Set: CC-PVTZ
  Basis Set:

    Orbital Energies (a.u.)
    -----------------------

    Doubly Occupied:

       1A    -20.506616     2A    -15.574939     3A    -11.336916
       4A    -11.252392     5A    -11.228051     6A     -1.388452
       7A     -1.231086     8A     -1.016734     9A     -0.932861
      10A     -0.788275    11A     -0.690978    12A     -0.651728
      13A     -0.635370    14A     -0.586900    15A     -0.582957
      16A     -0.555515    17A     -0.544796    18A     -0.511437
      19A     -0.417232    20A     -0.389342

  @DF-RHF Final Energy:  -247.10098754044594

   => Energetics <=

    Nuclear Repulsion Energy =            181.6418797373173106
    One-Electron Energy =                -695.8405808079577355
    Two-Electron Energy =                 267.0977135301944259
    DFT Exchange-Correlation Energy =       0.0000000000000000
    Empirical Dispersion Energy =           0.0000000000000000
    PCM Polarization Energy =               0.0000000000000000
    EFP Energy =                            0.0000000000000000
    Total Energy =                       -247.1009875404460558
    Molecular point group: c1
  Basis Set: CC-PVTZ
  Basis Set:

  -Total Gradient:
     Atom            X                  Y                   Z
    ------   -----------------  -----------------  -----------------
       1       -0.000005232205     0.000056800524     0.000081900507
       2        0.000167724896    -0.000094589438    -0.000233591226
       3       -0.000013531963    -0.000097236695     0.000070415887
       4       -0.000046376838     0.000049115971     0.000090919065
       5        0.000038349403    -0.000000019201     0.000052314747
       6        0.000047210392     0.000057629159    -0.000028267884
       7       -0.000106666399    -0.000000680398    -0.000001490631
       8       -0.000030494370     0.000047689068     0.000027137289
       9       -0.000010734029    -0.000012817070    -0.000066540694
      10        0.000006230468    -0.000003492083     0.000006342917
      11       -0.000032928053    -0.000003451089    -0.000005259034
      12       -0.000013551302     0.000001051252     0.000006119057

  **** Optimization is complete! (in 4 steps) ****
    Final optimized geometry and variables:
    Molecular point group: c1

    Geometry (in Angstrom), charge = 0, multiplicity = 1:

    H            0.414469935395     0.755463682904     1.483645356780
    N           -0.181018406171     0.516039750559     0.730349627750
    C           -1.532651718641     1.023980449404     0.736165904207
    C            0.317663622424    -0.271037753203    -0.248637229150
    H           -2.032754751023     0.667696950807    -0.148213363438
    H           -1.540127043554     2.107591944325     0.729957067493
    H           -2.074921360850     0.677745439666     1.608135752245
    C            1.758416822836    -0.687832363630    -0.049081321037
    O           -0.318263462914    -0.616667945747    -1.199964400463
    H            1.866520998263    -1.245492730097     0.873975638532
    H            2.061981302355    -1.304780385324    -0.878799344279
    H            2.400523424672     0.183448279507     0.007353643296

  Mulliken Charges: (a.u.)
   Center  Symbol    Alpha    Beta     Spin     Total
       1     H     0.41026  0.41026  0.00000  0.17947
       2     N     3.62190  3.62190  0.00000 -0.24381
       3     C     3.08603  3.08603  0.00000 -0.17207
       4     C     2.83653  2.83653  0.00000  0.32693
       5     H     0.43101  0.43101  0.00000  0.13799
       6     H     0.45572  0.45572  0.00000  0.08857
       7     H     0.45570  0.45570  0.00000  0.08859
       8     C     3.15350  3.15350  0.00000 -0.30700
       9     O     4.21565  4.21565  0.00000 -0.43131
      10     H     0.45000  0.45000  0.00000  0.10001
      11     H     0.43353  0.43353  0.00000  0.13293
      12     H     0.45016  0.45016  0.00000  0.09968

   Total alpha = 20.00000, Total beta = 20.00000, Total charge = -0.00000
