  ==> Input File <==

--------------------------------------------------------------------------
set {
	reference rhf
	basis 6-31G*
}

set_num_threads( 4 )
memory 2 gb

molecule MOL {
0 1

H	 -2.798360	 -0.862255	 -0.071053
N	 -1.863561	 -0.715187	 0.256814
C	 -1.344686	 0.554728	 -0.219830
H	 -1.300452	 -1.461917	 -0.101532
C	 0.081427	 0.741154	 0.254071
H	 -1.362155	 0.656231	 -1.305829
H	 -1.952773	 1.354456	 0.191809
O	 0.584463	 1.913735	 -0.319599
H	 0.110620	 0.813801	 1.341043
H	 0.681848	 -0.114210	 -0.047725
C	 1.923737	 2.163854	 -0.034368
H	 2.196774	 3.087845	 -0.525681
H	 2.089043	 2.273004	 1.036026
H	 2.564529	 1.365473	 -0.402854

	symmetry c1
}
set optking {
	frozen_dihedral = ("
		8 5 3 6
	")
}

ee = optimize('scf')
oeprop('DIPOLE', 'QUADRUPOLE', 'MULLIKEN_CHARGES')
f=open( 'psi4out.xyz', 'w' )
f.write( "14  " )
f.write( str(ee) + "\n" )
f.write( MOL.save_string_xyz() )
f.close()
--------------------------------------------------------------------------

    Molecular point group: c1
  Charge       = 0
  Multiplicity = 1
  Basis Set: 6-31G*
  Basis Set:
  @DF-RHF Final Energy:  -248.12278831518080
    Total Energy =                       -248.1227883151807987
    Molecular point group: c1
  Basis Set: 6-31G*
  Basis Set:
  Basis Set: 6-31G*
  Basis Set:
  @DF-RHF Final Energy:  -248.12341634620114
    Total Energy =                       -248.1234163462012248
  Basis Set: 6-31G*
  Basis Set:
  Basis Set: 6-31G*
  Basis Set:
  @DF-RHF Final Energy:  -248.12350687808984
    Total Energy =                       -248.1235068780899837
  Basis Set: 6-31G*
  Basis Set:
  Basis Set: 6-31G*
  Basis Set:
  @DF-RHF Final Energy:  -248.12354340404420
    Total Energy =                       -248.1235434040442556
  Basis Set: 6-31G*
  Basis Set:
  Basis Set: 6-31G*
  Basis Set:
  @DF-RHF Final Energy:  -248.12354601036890
    Total Energy =                       -248.1235460103688411
  Basis Set: 6-31G*
  Basis Set:
  Charge       = 0
  Multiplicity = 1
  Basis Set: 6-31G*
  Basis Set:

    Orbital Energies (a.u.)
    -----------------------

    Doubly Occupied:

       1A    -20.554272     2A    -15.538850     3A    -11.264297
       4A    -11.263267     5A    -11.240890     6A     -1.379201
       7A     -1.181184     8A     -0.998646     9A     -0.899583
      10A     -0.822441    11A     -0.685368    12A     -0.665941
      13A     -0.649996    14A     -0.621380    15A     -0.590533
      16A     -0.564881    17A     -0.514628    18A     -0.497473
      19A     -0.469094    20A     -0.414103    21A     -0.387805

  @DF-RHF Final Energy:  -248.12354610428315

   => Energetics <=

    Nuclear Repulsion Energy =            190.8729443178327188
    One-Electron Energy =                -715.5853171044781220
    Two-Electron Energy =                 276.5888266823620256
    DFT Exchange-Correlation Energy =       0.0000000000000000
    Empirical Dispersion Energy =           0.0000000000000000
    PCM Polarization Energy =               0.0000000000000000
    EFP Energy =                            0.0000000000000000
    Total Energy =                       -248.1235461042833208
    Molecular point group: c1
  Basis Set: 6-31G*
  Basis Set:

  -Total Gradient:
     Atom            X                  Y                   Z
    ------   -----------------  -----------------  -----------------
       1       -0.000001710816    -0.000006755093    -0.000000472210
       2       -0.000009677457    -0.000001978642    -0.000005755537
       3        0.000193851451    -0.000977483894    -0.000193705433
       4       -0.000001830864    -0.000002051260     0.000000378259
       5       -0.000247509365     0.000603833356     0.000554396057
       6       -0.000117037706     0.000716997123     0.000071454599
       7       -0.000002752556     0.000001353304    -0.000003840037
       8        0.000172938528    -0.000328560953    -0.000428731976
       9       -0.000004194221    -0.000002836522     0.000000462688
      10        0.000001244717    -0.000011284568     0.000005122970
      11        0.000008864749     0.000007504134    -0.000001948259
      12        0.000001227776    -0.000001671132     0.000002855176
      13        0.000003005113     0.000001536412    -0.000001257660
      14        0.000003580653     0.000001397733     0.000001041364

  **** Optimization is complete! (in 6 steps) ****
    Final optimized geometry and variables:
    Molecular point group: c1

    Geometry (in Angstrom), charge = 0, multiplicity = 1:

    H           -2.733132226987    -1.692595446156     0.187551423944
    N           -1.739758364218    -1.641862268604     0.298918900000
    C           -1.225428618765    -0.380201694382    -0.210220746127
    H           -1.350945299051    -2.415140162122    -0.206072870613
    C            0.210029627607    -0.192476549871     0.245645515164
    H           -1.262599019589    -0.286668189932    -1.295135796900
    H           -1.825365748795     0.425526264038     0.196774923934
    O            0.709249908192     0.972091126674    -0.338540741050
    H            0.245809237354    -0.132031691376     1.331066150668
    H            0.813140588712    -1.051833892393    -0.052402011210
    C            2.016739248838     1.279752599519     0.024494097575
    H            2.292442930237     2.192705179691    -0.485544538356
    H            2.106687945877     1.434935752859     1.097974647467
    H            2.707676051694     0.490906813486    -0.268052273606

  Mulliken Charges: (a.u.)
   Center  Symbol    Alpha    Beta     Spin     Total
       1     H     0.32881  0.32881  0.00000  0.34238
       2     N     3.92780  3.92780  0.00000 -0.85559
       3     C     3.07440  3.07440  0.00000 -0.14880
       4     H     0.33324  0.33324  0.00000  0.33352
       5     C     2.98018  2.98018  0.00000  0.03963
       6     H     0.42339  0.42339  0.00000  0.15322
       7     H     0.41364  0.41364  0.00000  0.17272
       8     O     4.30843  4.30843  0.00000 -0.61685
       9     H     0.42335  0.42335  0.00000  0.15330
      10     H     0.43592  0.43592  0.00000  0.12816
      11     C     3.07906  3.07906  0.00000 -0.15813
      12     H     0.41243  0.41243  0.00000  0.17514
      13     H     0.42905  0.42905  0.00000  0.14190
      14     H     0.43030  0.43030  0.00000  0.13941

   Total alpha = 21.00000, Total beta = 21.00000, Total charge = -0.00000
