                              Psi4 1.0.54 Driver

  ==> Input File <==

--------------------------------------------------------------------------
set {
	reference rhf
	basis cc-pvtz
}

set_num_threads( 4 )
memory 2 gb

molecule MOL {
0 1

H	 -2.171709	 0.882708	 0.500286
C	 -2.016894	 0.001719	 -0.114152
O	 -0.775228	 0.000056	 -0.739966
H	 -2.760846	 0.003757	 -0.898169
H	 -2.174774	 -0.879864	 0.498643
C	 0.287868	 0.759786	 -0.199672
C	 1.448883	 0.497005	 -1.152497
C	 -0.049693	 2.251966	 -0.190164
C	 0.650396	 0.279589	 1.206948
H	 1.187794	 0.812151	 -2.154804
H	 1.676398	 -0.561080	 -1.180717
H	 2.336585	 1.034204	 -0.840454
H	 -0.368671	 2.571546	 -1.174944
H	 0.822954	 2.829933	 0.089712
H	 -0.835123	 2.487554	 0.517056
H	 0.824323	 -0.789728	 1.206093
H	 1.553640	 0.771502	 1.547608
H	 -0.129105	 0.498853	 1.925884

	symmetry c1
}
set optking {
	frozen_dihedral = ("
		6 3 2 5
	")
}

ee,wfn = optimize('scf', return_wfn=True)
oeprop( wfn, 'DIPOLE', 'QUADRUPOLE', 'MULLIKEN_CHARGES')
f=open( 'psi4out.xyz', 'w' )
f.write( "18  " )
f.write( str(ee) + "\n" )
f.write( MOL.save_string_xyz() )
f.close()
--------------------------------------------------------------------------

    Molecular point group: c1
  Charge       = 0
  Multiplicity = 1
  Basis Set: CC-PVTZ
  Basis Set:
  @DF-RHF Final Energy:  -271.27473807312265
    Total Energy =                       -271.2747380731226485
    Molecular point group: c1
  Basis Set: CC-PVTZ
  Basis Set:
  Basis Set: CC-PVTZ
  Basis Set:
  @DF-RHF Final Energy:  -271.27391182837056
    Total Energy =                       -271.2739118283705011
  Basis Set: CC-PVTZ
  Basis Set:
  Basis Set: CC-PVTZ
  Basis Set:
  @DF-RHF Final Energy:  -271.27483826919746
    Total Energy =                       -271.2748382691971756
  Basis Set: CC-PVTZ
  Basis Set:
  Basis Set: CC-PVTZ
  Basis Set:
  @DF-RHF Final Energy:  -271.27517782037563
    Total Energy =                       -271.2751778203755748
  Basis Set: CC-PVTZ
  Basis Set:
  Basis Set: CC-PVTZ
  Basis Set:
  @DF-RHF Final Energy:  -271.27517048115249
    Total Energy =                       -271.2751704811522586
  Basis Set: CC-PVTZ
  Basis Set:
  Basis Set: CC-PVTZ
  Basis Set:
  @DF-RHF Final Energy:  -271.27519552599927
    Total Energy =                       -271.2751955259993224
  Basis Set: CC-PVTZ
  Basis Set:
  Basis Set: CC-PVTZ
  Basis Set:
  @DF-RHF Final Energy:  -271.27519852108497
    Total Energy =                       -271.2751985210847465
  Basis Set: CC-PVTZ
  Basis Set:
  Charge       = 0
  Multiplicity = 1
  Basis Set: CC-PVTZ
  Basis Set:

    Orbital Energies (a.u.)
    -----------------------

    Doubly Occupied:

       1A    -20.538830     2A    -11.280579     3A    -11.258433
       4A    -11.207521     5A    -11.206609     6A    -11.201841
       7A     -1.371926     8A     -1.074202     9A     -0.946703
      10A     -0.940845    11A     -0.913469    12A     -0.753718
      13A     -0.656499    14A     -0.645993    15A     -0.640379
      16A     -0.591120    17A     -0.572707    18A     -0.552883
      19A     -0.537849    20A     -0.524976    21A     -0.515379
      22A     -0.491323    23A     -0.488027    24A     -0.440072
      25A     -0.404764

  @DF-RHF Final Energy:  -271.27519866339458

   => Energetics <=

    Nuclear Repulsion Energy =            272.5739770085231157
    One-Electron Energy =                -908.1850621767409848
    Two-Electron Energy =                 364.3358865048233497
    DFT Exchange-Correlation Energy =       0.0000000000000000
    Empirical Dispersion Energy =           0.0000000000000000
    PCM Polarization Energy =               0.0000000000000000
    EFP Energy =                            0.0000000000000000
    Total Energy =                       -271.2751986633945194
    Molecular point group: c1
  Basis Set: CC-PVTZ
  Basis Set:

  -Total Gradient:
     Atom            X                  Y                   Z
    ------   -----------------  -----------------  -----------------
       1       -0.000008960389    -0.000017301269    -0.000004945158
       2        0.000796377272     0.001817854588     0.001500862224
       3        0.000524564327    -0.002221017730     0.000887376532
       4       -0.000031335038    -0.000004046458     0.000021572998
       5       -0.000812761129    -0.000866720776    -0.001537452297
       6       -0.000457381131     0.001288460709    -0.000862239987
       7        0.000026755500    -0.000003288399     0.000001556871
       8       -0.000026363327     0.000005466079     0.000015556711
       9       -0.000004130264    -0.000006386229     0.000012684478
      10       -0.000003840334     0.000010180261     0.000006683760
      11        0.000005167120    -0.000004100020    -0.000015416707
      12        0.000007481629    -0.000011789222    -0.000000654877
      13        0.000011383698    -0.000001413796     0.000004411420
      14       -0.000018836920    -0.000016039425     0.000001636808
      15       -0.000000130682     0.000014192608    -0.000007810642
      16       -0.000008659616     0.000037244127     0.000003495483
      17       -0.000024831071    -0.000016972403    -0.000012296183
      18        0.000025500354    -0.000004322645    -0.000015021437

  **** Optimization is complete! (in 8 steps) ****
    Final optimized geometry and variables:
    Molecular point group: c1

    Geometry (in Angstrom), charge = 0, multiplicity = 1:

    H           -2.056666378569     0.231136490008     0.802327927187
    C           -1.921953068265    -0.616734792591     0.143473683749
    O           -0.704105823350    -0.601800808419    -0.534139883002
    H           -2.714267413776    -0.594927557234    -0.593968130891
    H           -2.031387990602    -1.528471996241     0.722558308857
    C            0.387286378540     0.133063071444    -0.017204752457
    C            1.542603900987    -0.209382787734    -0.951369900798
    C            0.105850833006     1.635952522169    -0.073254885263
    C            0.721049219588    -0.309048131979     1.408583622015
    H            1.297361854208     0.073295355112    -1.967213032929
    H            1.733858674481    -1.274774139987    -0.934932789908
    H            2.446794398866     0.309821676044    -0.656264142628
    H           -0.165802094142     1.926212853685    -1.080698903991
    H            0.987880170957     2.194323421398     0.217510392728
    H           -0.696364502314     1.928259301406     0.592560190595
    H            0.891171488154    -1.378470352606     1.439966112704
    H            1.617782913463     0.188831140078     1.757616184442
    H           -0.075955026660    -0.071362593886     2.102530828578

  Mulliken Charges: (a.u.)
   Center  Symbol    Alpha    Beta     Spin     Total
       1     H     0.46828  0.46828  0.00000  0.06344
       2     C     3.04432  3.04432  0.00000 -0.08863
       3     O     4.19278  4.19278  0.00000 -0.38556
       4     H     0.44760  0.44760  0.00000  0.10481
       5     H     0.46004  0.46004  0.00000  0.07993
       6     C     2.87887  2.87887  0.00000  0.24225
       7     C     3.14267  3.14267  0.00000 -0.28535
       8     C     3.16025  3.16025  0.00000 -0.32050
       9     C     3.16182  3.16182  0.00000 -0.32364
      10     H     0.44864  0.44864  0.00000  0.10272
      11     H     0.44930  0.44930  0.00000  0.10139
      12     H     0.45923  0.45923  0.00000  0.08154
      13     H     0.44644  0.44644  0.00000  0.10713
      14     H     0.44928  0.44928  0.00000  0.10144
      15     H     0.44829  0.44829  0.00000  0.10342
      16     H     0.44625  0.44625  0.00000  0.10751
      17     H     0.44741  0.44741  0.00000  0.10517
      18     H     0.44854  0.44854  0.00000  0.10292

   Total alpha = 25.00000, Total beta = 25.00000, Total charge = -0.00000

*** Psi4 exiting successfully. Buy a developer a beer!
