  ==> Input File <==

--------------------------------------------------------------------------
set {
	reference rhf
	basis 6-31G*
}

set_num_threads( 4 )
memory 2 gb

molecule MOL {
0 1

O	 -2.821284	 1.308784	 0.050015
C	 -2.668393	 0.129504	 0.026799
C	 -3.801418	 -0.864233	 0.023705
O	 -1.481751	 -0.454642	 0.000584
H	 -4.429023	 -0.673623	 -0.838643
H	 -3.443790	 -1.883038	 -0.000311
H	 -4.404969	 -0.706459	 0.909546
C	 -0.334255	 0.388708	 0.000906
C	 0.891947	 -0.504646	 0.000751
H	 -0.365390	 1.025305	 -0.873475
H	 -0.365484	 1.024911	 0.875569
C	 2.191998	 0.301789	 0.000897
H	 0.855148	 -1.151283	 -0.871571
H	 0.855132	 -1.151660	 0.872805
C	 3.441114	 -0.581407	 0.000108
H	 2.215074	 0.954890	 -0.869742
H	 2.215465	 0.953923	 0.872248
C	 4.739576	 0.224112	 -0.001102
H	 3.419457	 -1.233487	 -0.870178
H	 3.420834	 -1.233096	 0.870717
H	 4.804918	 0.861552	 -0.878265
H	 5.606527	 -0.429058	 -0.001824
H	 4.806469	 0.861674	 0.875853

	symmetry c1
}
set optking {
	frozen_dihedral = ("
		2 4 8 10
	")
}

ee = optimize('scf')
oeprop('DIPOLE', 'QUADRUPOLE', 'MULLIKEN_CHARGES')
f=open( 'psi4out.xyz', 'w' )
f.write( "23  " )
f.write( str(ee) + "\n" )
f.write( MOL.save_string_xyz() )
f.close()
--------------------------------------------------------------------------

    Molecular point group: c1
  Charge       = 0
  Multiplicity = 1
  Basis Set: 6-31G*
  Basis Set:
  @DF-RHF Final Energy:  -422.97952875483122
    Total Energy =                       -422.9795287548311080
    Molecular point group: c1
  Basis Set: 6-31G*
  Basis Set:
  Charge       = 0
  Multiplicity = 1
  Basis Set: 6-31G*
  Basis Set:

    Orbital Energies (a.u.)
    -----------------------

    Doubly Occupied:

       1A    -20.603037     2A    -20.540558     3A    -11.374109
       4A    -11.281534     5A    -11.232394     6A    -11.224441
       7A    -11.223830     8A    -11.221726     9A    -11.212989
      10A     -1.467975    11A     -1.360767    12A     -1.094286
      13A     -1.042288    14A     -1.003469    15A     -0.930949
      16A     -0.841664    17A     -0.802724    18A     -0.774425
      19A     -0.692305    20A     -0.685052    21A     -0.667937
      22A     -0.646732    23A     -0.606077    24A     -0.588470
      25A     -0.582192    26A     -0.566699    27A     -0.558701
      28A     -0.537213    29A     -0.523343    30A     -0.504930
      31A     -0.491045    32A     -0.477999    33A     -0.471185
      34A     -0.465759    35A     -0.451261    36A     -0.435337

  @DF-RHF Final Energy:  -422.97952886891602

   => Energetics <=

    Nuclear Repulsion Energy =            449.6133378372738321
    One-Electron Energy =               -1466.8149248640997939
    Two-Electron Energy =                 594.2220581579101690
    DFT Exchange-Correlation Energy =       0.0000000000000000
    Empirical Dispersion Energy =           0.0000000000000000
    PCM Polarization Energy =               0.0000000000000000
    EFP Energy =                            0.0000000000000000
    Total Energy =                       -422.9795288689158497
    Molecular point group: c1
  Basis Set: 6-31G*
  Basis Set:

  -Total Gradient:
     Atom            X                  Y                   Z
    ------   -----------------  -----------------  -----------------
       1       -0.000018200280     0.000010291477     0.000016771044
       2        0.000004218035    -0.000007547402     0.000019828488
       3        0.000003190832     0.000004940683     0.000059707405
       4        0.000011665338    -0.000045133809    -0.000268129263
       5        0.000012493875     0.000008530487    -0.000001375730
       6        0.000002268294     0.000000840295     0.000001089762
       7       -0.000012327215    -0.000008672954    -0.000001277403
       8       -0.000073158412     0.000097721782     0.000355052699
       9       -0.000018922159     0.000011360176    -0.000040427310
      10        0.000053119978    -0.000121868358    -0.000091007520
      11        0.000043415255     0.000042253601    -0.000010824239
      12        0.000006585483     0.000002119163    -0.000009258958
      13        0.000020370731    -0.000016345622    -0.000006798521
      14       -0.000026423737     0.000020075320    -0.000007087637
      15       -0.000004167430    -0.000003865217    -0.000013267981
      16        0.000003537145    -0.000004593990    -0.000007467935
      17       -0.000001921259     0.000001858435    -0.000007403204
      18        0.000000372790     0.000007539102     0.000015838393
      19        0.000000401353     0.000004693457    -0.000004213499
      20       -0.000007306800    -0.000005728684    -0.000003169361
      21        0.000000368563    -0.000003505834    -0.000000640926
      22       -0.000003219881    -0.000000285164     0.000004560411
      23        0.000003639504     0.000005323052    -0.000000498716

  **** Optimization is complete! (in 2 steps) ****
    Final optimized geometry and variables:
    Molecular point group: c1

    Geometry (in Angstrom), charge = 0, multiplicity = 1:

    O           -2.821874177266     1.308900694898     0.034941244806
    C           -2.668501434058     0.129630022331     0.014186224537
    C           -3.801202348134    -0.864475223991     0.014279877372
    O           -1.481710405331    -0.454284084252    -0.011106849308
    H           -4.429329502054    -0.676223649098    -0.848196633550
    H           -3.443243524880    -1.883220784188    -0.007375840862
    H           -4.404333360860    -0.704678331150     0.900046174147
    C           -0.334219199885     0.389131764524    -0.008766783491
    C            0.891869331186    -0.504351990301    -0.011062543924
    H           -0.365020568969     1.026174204525    -0.882984757776
    H           -0.364958677477     1.024377185370     0.866457960337
    C            2.192008652037     0.301921455508    -0.011846645383
    H            0.854139337741    -1.150614311181    -0.883639736952
    H            0.855796721328    -1.151728747873     0.860734219356
    C            3.440959001744    -0.581447367395    -0.012347158891
    H            2.214990187502     0.954439328858    -0.882931599056
    H            2.215817030194     0.954622429692     0.859068412420
    C            4.739517860590     0.223944017152    -0.010008153463
    H            3.420497691231    -1.231938111877    -0.883853606550
    H            3.419153988018    -1.234725779111     0.857038906435
    H            4.806701027246     0.862484842378    -0.886231498328
    H            5.606347309645    -0.429369480915    -0.009869439572
    H            4.804854647756     0.860402926567     0.867868544323

  Mulliken Charges: (a.u.)
   Center  Symbol    Alpha    Beta     Spin     Total
       1     O     4.28390  4.28390  0.00000 -0.56780
       2     C     2.61531  2.61531  0.00000  0.76939
       3     C     3.28774  3.28774  0.00000 -0.57549
       4     O     4.31275  4.31275  0.00000 -0.62549
       5     H     0.39750  0.39750  0.00000  0.20500
       6     H     0.39986  0.39986  0.00000  0.20028
       7     H     0.39750  0.39750  0.00000  0.20500
       8     C     2.99557  2.99557  0.00000  0.00885
       9     C     3.16481  3.16481  0.00000 -0.32962
      10     H     0.41099  0.41099  0.00000  0.17801
      11     H     0.41030  0.41030  0.00000  0.17940
      12     C     3.16000  3.16000  0.00000 -0.32001
      13     H     0.41420  0.41420  0.00000  0.17159
      14     H     0.41429  0.41429  0.00000  0.17141
      15     C     3.15143  3.15143  0.00000 -0.30285
      16     H     0.42078  0.42078  0.00000  0.15844
      17     H     0.42077  0.42077  0.00000  0.15847
      18     C     3.23987  3.23987  0.00000 -0.47975
      19     H     0.42138  0.42138  0.00000  0.15724
      20     H     0.42139  0.42139  0.00000  0.15722
      21     H     0.42084  0.42084  0.00000  0.15832
      22     H     0.41799  0.41799  0.00000  0.16402
      23     H     0.42083  0.42083  0.00000  0.15834

   Total alpha = 36.00000, Total beta = 36.00000, Total charge = -0.00000
