                              Psi4 1.0.54 Driver

  ==> Input File <==

--------------------------------------------------------------------------
set {
	reference rhf
	basis cc-pvtz
}

set_num_threads( 4 )
memory 2 gb

molecule MOL {
0 1

H	 -0.000342	 -0.223902	 -3.352295
C	 -0.027146	 0.371068	 -2.446756
C	 0.024493	 -0.518541	 -1.216015
H	 -0.932586	 0.964979	 -2.449855
H	 0.819708	 1.049865	 -2.473332
N	 -0.042516	 0.263377	 0.000000
H	 -0.822211	 -1.197105	 -1.225584
H	 0.921114	 -1.142847	 -1.255206
C	 0.024493	 -0.518541	 1.216015
H	 0.682568	 0.950412	 0.000000
C	 -0.292452	 0.330757	 2.435455
H	 -0.700021	 -1.322573	 1.138172
H	 1.000377	 -0.993710	 1.346736
H	 -1.276445	 0.773808	 2.345877
H	 -0.263214	 -0.267705	 3.338614
H	 0.428510	 1.134432	 2.549267

	symmetry c1
}
set optking {
	frozen_dihedral = ("
		12 9 6 3
	")
}

ee,wfn = optimize('scf', return_wfn=True)
oeprop( wfn, 'DIPOLE', 'QUADRUPOLE', 'MULLIKEN_CHARGES')
f=open( 'psi4out.xyz', 'w' )
f.write( "16  " )
f.write( str(ee) + "\n" )
f.write( MOL.save_string_xyz() )
f.close()
--------------------------------------------------------------------------

    Molecular point group: c1
  Charge       = 0
  Multiplicity = 1
  Basis Set: CC-PVTZ
  Basis Set:
  @DF-RHF Final Energy:  -212.39429220303961
    Total Energy =                       -212.3942922030396403
    Molecular point group: c1
  Basis Set: CC-PVTZ
  Basis Set:
  Basis Set: CC-PVTZ
  Basis Set:
  @DF-RHF Final Energy:  -212.39433340439726
    Total Energy =                       -212.3943334043971163
  Basis Set: CC-PVTZ
  Basis Set:
  Basis Set: CC-PVTZ
  Basis Set:
  @DF-RHF Final Energy:  -212.39433827001147
    Total Energy =                       -212.3943382700114739
  Basis Set: CC-PVTZ
  Basis Set:
  Charge       = 0
  Multiplicity = 1
  Basis Set: CC-PVTZ
  Basis Set:

    Orbital Energies (a.u.)
    -----------------------

    Doubly Occupied:

       1A    -15.528365     2A    -11.239201     3A    -11.239014
       4A    -11.206695     5A    -11.205116     6A     -1.206888
       7A     -1.028842     8A     -0.963937     9A     -0.832566
      10A     -0.821965    11A     -0.663539    12A     -0.629303
      13A     -0.600385    14A     -0.586341    15A     -0.554950
      16A     -0.521923    17A     -0.508268    18A     -0.489830
      19A     -0.481073    20A     -0.476505    21A     -0.360579

  @DF-RHF Final Energy:  -212.39433858760253

   => Energetics <=

    Nuclear Repulsion Energy =            189.3772079850534737
    One-Electron Energy =                -661.2525187741819082
    Two-Electron Energy =                 259.4809722015259013
    DFT Exchange-Correlation Energy =       0.0000000000000000
    Empirical Dispersion Energy =           0.0000000000000000
    PCM Polarization Energy =               0.0000000000000000
    EFP Energy =                            0.0000000000000000
    Total Energy =                       -212.3943385876025332
    Molecular point group: c1
  Basis Set: CC-PVTZ
  Basis Set:

  -Total Gradient:
     Atom            X                  Y                   Z
    ------   -----------------  -----------------  -----------------
       1        0.000002170506     0.000003059865    -0.000012770878
       2       -0.000009893950    -0.000000839900    -0.000007211115
       3       -0.001415982249    -0.000150398410    -0.000033892725
       4        0.000002866255    -0.000000250462     0.000001874321
       5       -0.000003044268    -0.000006652069     0.000004417363
       6        0.002326548158    -0.000023547563    -0.000176770525
       7        0.000006682306     0.000020060848     0.000014349774
       8       -0.000006696046     0.000011094546     0.000010285473
       9       -0.002196266121     0.001259241997     0.001006446868
      10       -0.000003110829    -0.000009688291    -0.000005834511
      11        0.000005320918    -0.000002567559    -0.000017377205
      12        0.001282417445    -0.001088684679    -0.000757955402
      13        0.000002623107     0.000003651597    -0.000002870955
      14        0.000006120891    -0.000001998324    -0.000005251930
      15        0.000001756763    -0.000004255084    -0.000005818680
      16       -0.000001512885    -0.000008226513    -0.000011619871

  **** Optimization is complete! (in 4 steps) ****
    Final optimized geometry and variables:
    Molecular point group: c1

    Geometry (in Angstrom), charge = 0, multiplicity = 1:

    H            0.057549242518    -0.205993715139    -3.351912242926
    C            0.034941505993     0.385091331108    -2.443741327979
    C            0.074426666290    -0.510603231838    -1.216925354101
    H           -0.864385301471     0.988318531972    -2.445908407364
    H            0.888941900200     1.055009660754    -2.465473247955
    N            0.005728981001     0.267033534857     0.001256337716
    H           -0.777136269607    -1.182444933807    -1.233583637821
    H            0.967090420404    -1.140922219428    -1.256688274728
    C            0.071960314025    -0.511994311912     1.219407347303
    H            0.717255973793     0.967476898911     0.003126628939
    C           -0.228134529111     0.339451585113     2.441110792938
    H           -0.651898627472    -1.315988721726     1.140888584615
    H            1.043927495397    -0.997250472417     1.343928623602
    H           -1.213843287523     0.780720555966     2.364737106107
    H           -0.182186974149    -0.255657369516     3.346172367103
    H            0.492396492220     1.145359706109     2.539025166375

  Mulliken Charges: (a.u.)
   Center  Symbol    Alpha    Beta     Spin     Total
       1     H     0.45387  0.45387  0.00000  0.09226
       2     C     3.14246  3.14246  0.00000 -0.28493
       3     C     3.02120  3.02120  0.00000 -0.04240
       4     H     0.44954  0.44954  0.00000  0.10091
       5     H     0.45940  0.45940  0.00000  0.08121
       6     N     3.63800  3.63800  0.00000 -0.27600
       7     H     0.45846  0.45846  0.00000  0.08308
       8     H     0.47490  0.47490  0.00000  0.05020
       9     C     3.02499  3.02499  0.00000 -0.04998
      10     H     0.44360  0.44360  0.00000  0.11281
      11     C     3.13923  3.13923  0.00000 -0.27846
      12     H     0.45832  0.45832  0.00000  0.08337
      13     H     0.47141  0.47141  0.00000  0.05718
      14     H     0.45040  0.45040  0.00000  0.09920
      15     H     0.45525  0.45525  0.00000  0.08951
      16     H     0.45897  0.45897  0.00000  0.08206

   Total alpha = 21.00000, Total beta = 21.00000, Total charge = -0.00000

*** Psi4 exiting successfully. Buy a developer a beer!
