  ==> Input File <==

--------------------------------------------------------------------------
set {
	reference rhf
	basis cc-pvtz
}

set_num_threads( 4 )
memory 2 gb

molecule MOL {
0 1

H	 -2.144599	 -0.788425	 0.368839
O	 -1.432053	 -0.565244	 -0.200812
C	 -0.727158	 0.534527	 0.310686
C	 0.680222	 0.664433	 -0.252229
H	 -1.306802	 1.408001	 0.044211
H	 -0.690821	 0.490158	 1.397609
C	 1.605391	 -0.489360	 0.123098
H	 0.615089	 0.745647	 -1.332226
H	 1.101414	 1.597893	 0.110950
H	 1.247627	 -1.432485	 -0.275204
H	 2.601435	 -0.332816	 -0.273062
H	 1.691776	 -0.589902	 1.200774

	symmetry c1
}
set optking {
	frozen_dihedral = ("
		1 2 3 4
	")
}

ee = optimize('scf')
oeprop('DIPOLE', 'QUADRUPOLE', 'MULLIKEN_CHARGES')
f=open( 'psi4out.xyz', 'w' )
f.write( "12  " )
f.write( str(ee) + "\n" )
f.write( MOL.save_string_xyz() )
f.close()
--------------------------------------------------------------------------

    Molecular point group: c1
  Charge       = 0
  Multiplicity = 1
  Basis Set: CC-PVTZ
  Basis Set:
  @DF-RHF Final Energy:  -193.18938788490649
    Total Energy =                       -193.1893878849065231
    Molecular point group: c1
  Basis Set: CC-PVTZ
  Basis Set:
  Basis Set: CC-PVTZ
  Basis Set:
  @DF-RHF Final Energy:  -193.19070513860029
    Total Energy =                       -193.1907051386003786
  Basis Set: CC-PVTZ
  Basis Set:
  Basis Set: CC-PVTZ
  Basis Set:
  @DF-RHF Final Energy:  -193.19100572425413
    Total Energy =                       -193.1910057242541257
  Basis Set: CC-PVTZ
  Basis Set:
  Basis Set: CC-PVTZ
  Basis Set:
  @DF-RHF Final Energy:  -193.19101199826622
    Total Energy =                       -193.1910119982663332
  Basis Set: CC-PVTZ
  Basis Set:
  Charge       = 0
  Multiplicity = 1
  Basis Set: CC-PVTZ
  Basis Set:

    Orbital Energies (a.u.)
    -----------------------

    Doubly Occupied:

       1A    -20.546298     2A    -11.266280     3A    -11.212976
       4A    -11.202199     5A     -1.364250     6A     -1.048286
       7A     -0.919940     8A     -0.798955     9A     -0.708958
      10A     -0.642693    11A     -0.589630    12A     -0.583099
      13A     -0.532667    14A     -0.501581    15A     -0.484652
      16A     -0.465949    17A     -0.435765

  @DF-RHF Final Energy:  -193.19101280059050

   => Energetics <=

    Nuclear Repulsion Energy =            133.3798257701718057
    One-Electron Energy =                -526.5333197074156715
    Two-Electron Energy =                 199.9624811366533379
    DFT Exchange-Correlation Energy =       0.0000000000000000
    Empirical Dispersion Energy =           0.0000000000000000
    PCM Polarization Energy =               0.0000000000000000
    EFP Energy =                            0.0000000000000000
    Total Energy =                       -193.1910128005905278
    Molecular point group: c1
  Basis Set: CC-PVTZ
  Basis Set:

  -Total Gradient:
     Atom            X                  Y                   Z
    ------   -----------------  -----------------  -----------------
       1        0.000708375930    -0.000670697076     0.000586640086
       2       -0.000728184939     0.000759421871    -0.000528552257
       3       -0.000180485545     0.000352286862    -0.000581219883
       4        0.000206879254    -0.000437830052     0.000505215410
       5        0.000015606411    -0.000005365516    -0.000003039293
       6        0.000018195248    -0.000014223621    -0.000006260898
       7       -0.000003906793     0.000001775524     0.000015373119
       8       -0.000006971312     0.000004108286    -0.000015915169
       9       -0.000021388779     0.000008290011     0.000002633095
      10       -0.000002068907     0.000004245068     0.000002417145
      11       -0.000019189113     0.000015342457     0.000005465136
      12        0.000013138546    -0.000017353815     0.000017243510

  **** Optimization is complete! (in 5 steps) ****
    Final optimized geometry and variables:
    Molecular point group: c1

    Geometry (in Angstrom), charge = 0, multiplicity = 1:

    H           -2.078321413978    -0.848123569214     0.306672939634
    O           -1.358625313618    -0.580981562524    -0.233419683103
    C           -0.721802259303     0.540961215774     0.321930445944
    C            0.677851515642     0.655531257722    -0.250938890743
    H           -1.286959045449     1.441351768027     0.095947021462
    H           -0.667020684485     0.449842858923     1.404656730400
    C            1.590628295680    -0.503449373467     0.133801772979
    H            0.600985209816     0.721588514849    -1.331452400849
    H            1.105783462787     1.593308690467     0.091641922521
    H            1.183634649532    -1.445624262384    -0.208136319324
    H            2.574540263989    -0.381587790419    -0.304084067718
    H            1.713702574207    -0.562102667521     1.210854859001

  Mulliken Charges: (a.u.)
   Center  Symbol    Alpha    Beta     Spin     Total
       1     H     0.39413  0.39413  0.00000  0.21175
       2     O     4.20131  4.20131  0.00000 -0.40263
       3     C     2.97048  2.97048  0.00000  0.05903
       4     C     3.08176  3.08176  0.00000 -0.16352
       5     H     0.46507  0.46507  0.00000  0.06987
       6     H     0.47444  0.47444  0.00000  0.05112
       7     C     3.15018  3.15018  0.00000 -0.30037
       8     H     0.45201  0.45201  0.00000  0.09598
       9     H     0.45534  0.45534  0.00000  0.08932
      10     H     0.44542  0.44542  0.00000  0.10916
      11     H     0.45033  0.45033  0.00000  0.09935
      12     H     0.45954  0.45954  0.00000  0.08093

   Total alpha = 17.00000, Total beta = 17.00000, Total charge = -0.00000
