  ==> Input File <==

--------------------------------------------------------------------------
set {
	reference rhf
	basis 6-31G*
}

set_num_threads( 4 )
memory 2 gb

molecule MOL {
0 1

H	 -2.172150	 0.880146	 0.502514
C	 -2.018062	 -0.000025	 -0.114509
O	 -0.774054	 0.001095	 -0.743181
H	 -2.760490	 0.003458	 -0.901350
H	 -2.173624	 -0.884374	 0.496163
C	 -0.636767	 -0.580750	 -2.027369
C	 0.839297	 -0.375629	 -2.360794
C	 -0.961542	 -2.077599	 -1.993395
C	 -1.510509	 0.141572	 -3.057873
H	 1.460930	 -0.863212	 -1.618320
H	 1.079047	 0.681674	 -2.358596
H	 1.079977	 -0.783895	 -3.337039
H	 -0.390379	 -2.568041	 -1.212198
H	 -0.708075	 -2.538967	 -2.942339
H	 -2.014948	 -2.263817	 -1.813912
H	 -1.324738	 1.209957	 -3.024796
H	 -1.283593	 -0.213390	 -4.057895
H	 -2.568447	 -0.026274	 -2.886916

	symmetry c1
}
set optking {
	frozen_dihedral = ("
		6 3 2 5
	")
}

ee = optimize('scf')
oeprop('DIPOLE', 'QUADRUPOLE', 'MULLIKEN_CHARGES')
f=open( 'psi4out.xyz', 'w' )
f.write( "18  " )
f.write( str(ee) + "\n" )
f.write( MOL.save_string_xyz() )
f.close()
--------------------------------------------------------------------------

    Molecular point group: c1
  Charge       = 0
  Multiplicity = 1
  Basis Set: 6-31G*
  Basis Set:
  @DF-RHF Final Energy:  -271.17134207357697
    Total Energy =                       -271.1713420735771365
    Molecular point group: c1
  Basis Set: 6-31G*
  Basis Set:
  Basis Set: 6-31G*
  Basis Set:
  @DF-RHF Final Energy:  -271.17352873351712
    Total Energy =                       -271.1735287335171165
  Basis Set: 6-31G*
  Basis Set:
  Basis Set: 6-31G*
  Basis Set:
  @DF-RHF Final Energy:  -271.17457284902497
    Total Energy =                       -271.1745728490250258
  Basis Set: 6-31G*
  Basis Set:
  Basis Set: 6-31G*
  Basis Set:
  @DF-RHF Final Energy:  -271.17461380218549
    Total Energy =                       -271.1746138021853767
  Basis Set: 6-31G*
  Basis Set:
  @DF-RHF Final Energy:  -271.17458564236540
    Total Energy =                       -271.1745856423654573
  Basis Set: 6-31G*
  Basis Set:
  @DF-RHF Final Energy:  -271.17462546982381
    Total Energy =                       -271.1746254698239227
  Basis Set: 6-31G*
  Basis Set:
  Basis Set: 6-31G*
  Basis Set:
  @DF-RHF Final Energy:  -271.17462042067012
    Total Energy =                       -271.1746204206700099
  Basis Set: 6-31G*
  Basis Set:
  Basis Set: 6-31G*
  Basis Set:
  @DF-RHF Final Energy:  -271.17462818243865
    Total Energy =                       -271.1746281824387097
  Basis Set: 6-31G*
  Basis Set:
  Charge       = 0
  Multiplicity = 1
  Basis Set: 6-31G*
  Basis Set:

    Orbital Energies (a.u.)
    -----------------------

    Doubly Occupied:

       1A    -20.545758     2A    -11.281527     3A    -11.260911
       4A    -11.209525     5A    -11.207866     6A    -11.203290
       7A     -1.369174     8A     -1.072704     9A     -0.946083
      10A     -0.939581    11A     -0.912655    12A     -0.752451
      13A     -0.655121    14A     -0.644260    15A     -0.638089
      16A     -0.590951    17A     -0.572213    18A     -0.552555
      19A     -0.536468    20A     -0.524047    21A     -0.514897
      22A     -0.489625    23A     -0.486536    24A     -0.438585
      25A     -0.402495

  @DF-RHF Final Energy:  -271.17462804343978

   => Energetics <=

    Nuclear Repulsion Energy =            272.2987787166812836
    One-Electron Energy =                -907.4520790324723976
    Two-Electron Energy =                 363.9786722723511616
    DFT Exchange-Correlation Energy =       0.0000000000000000
    Empirical Dispersion Energy =           0.0000000000000000
    PCM Polarization Energy =               0.0000000000000000
    EFP Energy =                            0.0000000000000000
    Total Energy =                       -271.1746280434398955
    Molecular point group: c1
  Basis Set: 6-31G*
  Basis Set:

  -Total Gradient:
     Atom            X                  Y                   Z
    ------   -----------------  -----------------  -----------------
       1        0.000020439071    -0.000002237198    -0.000012289106
       2       -0.001192477516    -0.000763029101    -0.002328868756
       3        0.001039040806    -0.001735101856     0.001531869163
       4       -0.000021462526    -0.000003754844     0.000019004195
       5        0.000701908971     0.001086221398     0.001500951800
       6       -0.000528296574     0.001391937230    -0.000733083293
       7        0.000015038598     0.000010590240     0.000014875057
       8       -0.000004501698     0.000008320774     0.000010514594
       9       -0.000028568879    -0.000004029069    -0.000002168932
      10        0.000007593422     0.000009039253     0.000003051134
      11       -0.000004760031     0.000003599944    -0.000004805179
      12        0.000000598611    -0.000007330025     0.000011504885
      13        0.000007847094     0.000008790097    -0.000006982627
      14       -0.000007458781    -0.000005469990    -0.000011418159
      15       -0.000011910154     0.000007921992     0.000017277711
      16        0.000033039297    -0.000002541793    -0.000010291295
      17       -0.000011099380    -0.000014992865     0.000015224817
      18       -0.000014970328     0.000012065814    -0.000014366011

  **** Optimization is complete! (in 9 steps) ****
    Final optimized geometry and variables:
    Molecular point group: c1

    Geometry (in Angstrom), charge = 0, multiplicity = 1:

    H           -1.271887826305     1.288962073355     2.224166603045
    C           -1.163987606296     0.410816100125     1.599774129268
    O            0.055230061828     0.528790124503     0.930842019693
    H           -2.015585591436     0.366325706924     0.930609774696
    H           -1.177862138729    -0.462792611779     2.245766688270
    C            0.223977640143    -0.090437617585    -0.331737052620
    C            1.708976414004     0.093808915076    -0.635418367911
    C           -0.117215827433    -1.582134173301    -0.266248766778
    C           -0.616500772256     0.619488986625    -1.398007306260
    H            2.309606481063    -0.387468025387     0.128080605598
    H            1.959448480380     1.148566730979    -0.645589943143
    H            1.966282395369    -0.332608781558    -1.599687718544
    H            0.453913686232    -2.064834757197     0.519902231424
    H            0.121390066618    -2.067214383348    -1.207145650416
    H           -1.171578426072    -1.748632777042    -0.071262715752
    H           -0.392738749607     1.680707533307    -1.401820524008
    H           -0.396157094444     0.219185220032    -2.382468033184
    H           -1.681086346955     0.497913996905    -1.230160305504

  Mulliken Charges: (a.u.)
   Center  Symbol    Alpha    Beta     Spin     Total
       1     H     0.41474  0.41474  0.00000  0.17052
       2     C     3.07841  3.07841  0.00000 -0.15681
       3     O     4.31992  4.31992  0.00000 -0.63984
       4     H     0.43034  0.43034  0.00000  0.13931
       5     H     0.42643  0.42643  0.00000  0.14713
       6     C     2.84406  2.84406  0.00000  0.31188
       7     C     3.23307  3.23307  0.00000 -0.46614
       8     C     3.24800  3.24800  0.00000 -0.49599
       9     C     3.24344  3.24344  0.00000 -0.48688
      10     H     0.41460  0.41460  0.00000  0.17079
      11     H     0.41373  0.41373  0.00000  0.17254
      12     H     0.42507  0.42507  0.00000  0.14986
      13     H     0.41369  0.41369  0.00000  0.17261
      14     H     0.41899  0.41899  0.00000  0.16201
      15     H     0.42022  0.42022  0.00000  0.15955
      16     H     0.41331  0.41331  0.00000  0.17338
      17     H     0.42107  0.42107  0.00000  0.15786
      18     H     0.42089  0.42089  0.00000  0.15823

   Total alpha = 25.00000, Total beta = 25.00000, Total charge =  0.00000
