  ==> Input File <==

--------------------------------------------------------------------------
set {
	reference rhf
	basis cc-pvtz
}

set_num_threads( 4 )
memory 2 gb

molecule MOL {
0 1

H	 -2.698799	 -0.000846	 0.036018
C	 -1.694291	 -0.000483	 0.434279
O	 -0.828718	 -0.000608	 -0.655022
H	 -1.576855	 0.881100	 1.056504
H	 -1.576401	 -0.881658	 1.057001
C	 0.557892	 0.000078	 -0.420099
C	 1.192032	 1.365380	 -0.661113
C	 0.920934	 -0.574034	 0.944762
H	 0.937047	 -0.677743	 -1.174698
H	 0.883583	 1.760054	 -1.621399
H	 2.272026	 1.273948	 -0.661808
H	 0.925820	 2.082328	 0.106807
H	 0.424551	 -1.524365	 1.098118
H	 1.991095	 -0.735875	 1.002508
H	 0.647430	 0.091399	 1.755278

	symmetry c1
}
set optking {
	frozen_dihedral = ("
		9 6 3 2
	")
}

ee = optimize('scf')
oeprop('DIPOLE', 'QUADRUPOLE', 'MULLIKEN_CHARGES')
f=open( 'psi4out.xyz', 'w' )
f.write( "15  " )
f.write( str(ee) + "\n" )
f.write( MOL.save_string_xyz() )
f.close()
--------------------------------------------------------------------------

    Molecular point group: c1
  Charge       = 0
  Multiplicity = 1
  Basis Set: CC-PVTZ
  Basis Set:
  @DF-RHF Final Energy:  -232.22121620663896
    Total Energy =                       -232.2212162066390420
    Molecular point group: c1
  Basis Set: CC-PVTZ
  Basis Set:
  Basis Set: CC-PVTZ
  Basis Set:
  @DF-RHF Final Energy:  -232.22182297173234
    Total Energy =                       -232.2218229717321947
  Basis Set: CC-PVTZ
  Basis Set:
  Basis Set: CC-PVTZ
  Basis Set:
  @DF-RHF Final Energy:  -232.22306060273755
    Total Energy =                       -232.2230606027374620
  Basis Set: CC-PVTZ
  Basis Set:
  Basis Set: CC-PVTZ
  Basis Set:
  @DF-RHF Final Energy:  -232.22311922845074
    Total Energy =                       -232.2231192284507983
  Basis Set: CC-PVTZ
  Basis Set:
  Basis Set: CC-PVTZ
  Basis Set:
  @DF-RHF Final Energy:  -232.22312874390576
    Total Energy =                       -232.2231287439057610
  Basis Set: CC-PVTZ
  Basis Set:
  Basis Set: CC-PVTZ
  Basis Set:
  @DF-RHF Final Energy:  -232.22313122189345
    Total Energy =                       -232.2231312218937092
  Basis Set: CC-PVTZ
  Basis Set:
  Charge       = 0
  Multiplicity = 1
  Basis Set: CC-PVTZ
  Basis Set:

    Orbital Energies (a.u.)
    -----------------------

    Doubly Occupied:

       1A    -20.539454     2A    -11.272969     3A    -11.259570
       4A    -11.212691     5A    -11.204919     6A     -1.370514
       7A     -1.052895     8A     -0.947292     9A     -0.922108
      10A     -0.781522    11A     -0.676264    12A     -0.644055
      13A     -0.633429    14A     -0.580095    15A     -0.555523
      16A     -0.547537    17A     -0.535669    18A     -0.506689
      19A     -0.493570    20A     -0.446590    21A     -0.403444

  @DF-RHF Final Energy:  -232.22313136058457

   => Energetics <=

    Nuclear Repulsion Energy =            198.5675852938740320
    One-Electron Energy =                -708.4078408214647880
    Two-Electron Energy =                 277.6171241670065228
    DFT Exchange-Correlation Energy =       0.0000000000000000
    Empirical Dispersion Energy =           0.0000000000000000
    PCM Polarization Energy =               0.0000000000000000
    EFP Energy =                            0.0000000000000000
    Total Energy =                       -232.2231313605842615
    Molecular point group: c1
  Basis Set: CC-PVTZ
  Basis Set:

  -Total Gradient:
     Atom            X                  Y                   Z
    ------   -----------------  -----------------  -----------------
       1        0.000002392792    -0.000002077222    -0.000003020136
       2       -0.000098515157    -0.003105515498     0.000031329265
       3        0.000108050592     0.004156051409     0.000400745394
       4       -0.000003853975    -0.000002147016     0.000002087778
       5        0.000007167480    -0.000002434215    -0.000006926208
       6        0.000448961078     0.001661531520    -0.002703979472
       7       -0.000003160573     0.000008587459    -0.000007317949
       8        0.000009543889    -0.000010789550     0.000011864363
       9       -0.000464530557    -0.002700906396     0.002276071867
      10        0.000000837381     0.000009302385    -0.000004201351
      11       -0.000006530667    -0.000006901080    -0.000001496381
      12        0.000000767304    -0.000001248971     0.000000604163
      13        0.000001409045    -0.000001809835     0.000003569461
      14       -0.000001783556    -0.000001596462     0.000001775512
      15       -0.000000755079    -0.000000046529    -0.000001106303

  **** Optimization is complete! (in 7 steps) ****
    Final optimized geometry and variables:
    Molecular point group: c1

    Geometry (in Angstrom), charge = 0, multiplicity = 1:

    H           -2.717674831996    -0.021541191285     0.048834383755
    C           -1.729524702167    -0.112053757958     0.477079074185
    O           -0.835980616386    -0.147529523435    -0.587363327536
    H           -1.566398603743     0.740927359763     1.130826186133
    H           -1.699917025369    -1.016176192639     1.075395522596
    C            0.555792654709    -0.189723023737    -0.357031673471
    C            1.147239510237     1.189997933348    -0.603063186312
    C            0.965217619162    -0.753450308422     0.999796674485
    H            0.935833319327    -0.881511759272    -1.100485019657
    H            0.861505759588     1.547498484977    -1.583790250139
    H            2.229952885756     1.163862774806    -0.546980034999
    H            0.787406025071     1.900474194013     0.133979498408
    H            0.555952760046    -1.743548466292     1.156918570697
    H            2.045027514725    -0.834537880076     1.031460087554
    H            0.658692503063    -0.118740069454     1.822501791733

  Mulliken Charges: (a.u.)
   Center  Symbol    Alpha    Beta     Spin     Total
       1     H     0.44209  0.44209  0.00000  0.11582
       2     C     3.03786  3.03786  0.00000 -0.07572
       3     O     4.18862  4.18862  0.00000 -0.37725
       4     H     0.47135  0.47135  0.00000  0.05730
       5     H     0.46799  0.46799  0.00000  0.06402
       6     C     2.92889  2.92889  0.00000  0.14222
       7     C     3.14147  3.14147  0.00000 -0.28294
       8     C     3.17102  3.17102  0.00000 -0.34204
       9     H     0.45037  0.45037  0.00000  0.09926
      10     H     0.44596  0.44596  0.00000  0.10807
      11     H     0.45700  0.45700  0.00000  0.08599
      12     H     0.45743  0.45743  0.00000  0.08514
      13     H     0.44455  0.44455  0.00000  0.11090
      14     H     0.44439  0.44439  0.00000  0.11122
      15     H     0.45099  0.45099  0.00000  0.09802

   Total alpha = 21.00000, Total beta = 21.00000, Total charge =  0.00000
