                              Psi4 1.0.54 Driver

  ==> Input File <==

--------------------------------------------------------------------------
set {
	reference rhf
	basis cc-pvtz
}

set_num_threads( 4 )
memory 2 gb

molecule MOL {
0 1

O	 0.623971	 1.347241	 -0.000777
C	 0.485107	 0.171416	 -0.000134
C	 1.606966	 -0.836201	 0.000174
O	 -0.695554	 -0.422406	 0.000602
C	 2.988788	 -0.202529	 -0.000115
H	 1.465110	 -1.474645	 -0.864821
H	 1.465209	 -1.474077	 0.865596
H	 3.131767	 0.419673	 -0.873407
H	 3.750876	 -0.972315	 0.000098
H	 3.131883	 0.420264	 0.872742
C	 -0.731846	 -1.825887	 -0.216679
C	 -2.177105	 -2.263349	 -0.168305
H	 -0.142987	 -2.316432	 0.545527
H	 -0.282171	 -2.046651	 -1.174478
H	 -2.616915	 -2.036363	 0.794720
H	 -2.240971	 -3.332805	 -0.330835
H	 -2.756890	 -1.765114	 -0.935104

	symmetry c1
}
set optking {
	frozen_dihedral = ("
		11 4 2 3
	")
}

ee,wfn = optimize('scf', return_wfn=True)
oeprop( wfn, 'DIPOLE', 'QUADRUPOLE', 'MULLIKEN_CHARGES')
f=open( 'psi4out.xyz', 'w' )
f.write( "17  " )
f.write( str(ee) + "\n" )
f.write( MOL.save_string_xyz() )
f.close()
--------------------------------------------------------------------------

    Molecular point group: c1
  Charge       = 0
  Multiplicity = 1
  Basis Set: CC-PVTZ
  Basis Set:
  @DF-RHF Final Energy:  -345.01534340832387
    Total Energy =                       -345.0153434083240427
    Molecular point group: c1
  Basis Set: CC-PVTZ
  Basis Set:
  Basis Set: CC-PVTZ
  Basis Set:
  @DF-RHF Final Energy:  -344.99678629667017
    Total Energy =                       -344.9967862966702796
  Basis Set: CC-PVTZ
  Basis Set:
  Basis Set: CC-PVTZ
  Basis Set:
  @DF-RHF Final Energy:  -345.02263465907515
    Total Energy =                       -345.0226346590750381
  Basis Set: CC-PVTZ
  Basis Set:
  Basis Set: CC-PVTZ
  Basis Set:
  @DF-RHF Final Energy:  -345.02584712453177
    Total Energy =                       -345.0258471245321061
  Basis Set: CC-PVTZ
  Basis Set:
  @DF-RHF Final Energy:  -345.02642139937365
    Total Energy =                       -345.0264213993740441
  @DF-RHF Final Energy:  -345.02670713646012
    Total Energy =                       -345.0267071364600042
  Basis Set: CC-PVTZ
  Basis Set:
  @DF-RHF Final Energy:  -345.02672821174991
    Total Energy =                       -345.0267282117498553
  Basis Set: CC-PVTZ
  Basis Set:
  Basis Set: CC-PVTZ
  Basis Set:
  @DF-RHF Final Energy:  -345.02671996258493
    Total Energy =                       -345.0267199625849344
  Basis Set: CC-PVTZ
  Basis Set:
  Basis Set: CC-PVTZ
  Basis Set:
  @DF-RHF Final Energy:  -345.02675494356163
    Total Energy =                       -345.0267549435618548
  Basis Set: CC-PVTZ
  Basis Set:
  Charge       = 0
  Multiplicity = 1
  Basis Set: CC-PVTZ
  Basis Set:

    Orbital Energies (a.u.)
    -----------------------

    Doubly Occupied:

       1A    -20.591844     2A    -20.526515     3A    -11.364938
       4A    -11.297096     5A    -11.245201     6A    -11.225540
       7A    -11.217634     8A     -1.464310     9A     -1.366081
      10A     -1.064222    11A     -1.047904    12A     -0.901899
      13A     -0.882240    14A     -0.771798    15A     -0.706837
      16A     -0.698701    17A     -0.658016    18A     -0.634780
      19A     -0.590484    20A     -0.577565    21A     -0.561092
      22A     -0.538589    23A     -0.524898    24A     -0.522490
      25A     -0.507677    26A     -0.500313    27A     -0.446959
      28A     -0.433002

  @DF-RHF Final Energy:  -345.02675499317456

   => Energetics <=

    Nuclear Repulsion Energy =            315.9224349585829259
    One-Electron Energy =               -1096.1611274803490232
    Two-Electron Energy =                 435.2119375285916476
    DFT Exchange-Correlation Energy =       0.0000000000000000
    Empirical Dispersion Energy =           0.0000000000000000
    PCM Polarization Energy =               0.0000000000000000
    EFP Energy =                            0.0000000000000000
    Total Energy =                       -345.0267549931744497
    Molecular point group: c1
  Basis Set: CC-PVTZ
  Basis Set:

  -Total Gradient:
     Atom            X                  Y                   Z
    ------   -----------------  -----------------  -----------------
       1       -0.000006656874     0.000083045654     0.000067379372
       2       -0.000029356659    -0.000043761938    -0.001537895752
       3       -0.000018040899     0.000035995552     0.000723467797
       4        0.000096044473    -0.000121878428     0.001405530478
       5        0.000006086386     0.000005699253    -0.000017221676
       6       -0.000022032055    -0.000012402921    -0.000023856101
       7        0.000052707530    -0.000003939526    -0.000015383361
       8       -0.000003445318    -0.000000611667     0.000008537958
       9        0.000020456140    -0.000013250715     0.000002808553
      10        0.000000003730     0.000006384620     0.000003106593
      11       -0.000039679480     0.000044187424    -0.000542936147
      12       -0.000031413241     0.000006627419    -0.000000082741
      13       -0.000043221140    -0.000017714223    -0.000046852888
      14        0.000057247877     0.000051257661    -0.000020966964
      15       -0.000014639826     0.000005022960     0.000004574465
      16       -0.000010821591    -0.000032079930    -0.000008517167
      17       -0.000013239054     0.000007418812    -0.000001692419

  **** Optimization is complete! (in 10 steps) ****
    Final optimized geometry and variables:
    Molecular point group: c1

    Geometry (in Angstrom), charge = 0, multiplicity = 1:

    O            0.295650966174     1.840167764356     0.006943403775
    C            0.242438310130     0.661987323891     0.024823254300
    C            1.471633282744    -0.219290298766     0.094204163695
    O           -0.948904537645     0.070214026682     0.016442353403
    C            2.765727412359     0.579748759186     0.104109235360
    H            1.456286587054    -0.907166894490    -0.743807279750
    H            1.394505794390    -0.831157164638     0.986781917356
    H            2.857901189121     1.179290747406    -0.790920436570
    H            3.614237642987    -0.091699311215     0.158274735622
    H            2.801282993614     1.249490188511     0.951854460698
    C           -1.135480239424    -1.321516071170    -0.135870891667
    C           -2.623778490605    -1.586160113111    -0.106033056481
    H           -0.641586580851    -1.858334888961     0.664100941324
    H           -0.713201617399    -1.649654359867    -1.077900610581
    H           -3.048737181313    -1.261417479661     0.834758409719
    H           -2.811981450965    -2.646951599330    -0.223965618036
    H           -3.120448759514    -1.054429189719    -0.906866492885

  Mulliken Charges: (a.u.)
   Center  Symbol    Alpha    Beta     Spin     Total
       1     O     4.18286  4.18286  0.00000 -0.36571
       2     C     2.81596  2.81596  0.00000  0.36808
       3     C     3.12240  3.12240  0.00000 -0.24480
       4     O     4.12770  4.12770  0.00000 -0.25540
       5     C     3.13886  3.13886  0.00000 -0.27772
       6     H     0.44181  0.44181  0.00000  0.11638
       7     H     0.43998  0.43998  0.00000  0.12004
       8     H     0.44607  0.44607  0.00000  0.10786
       9     H     0.45163  0.45163  0.00000  0.09675
      10     H     0.44479  0.44479  0.00000  0.11041
      11     C     2.98610  2.98610  0.00000  0.02779
      12     C     3.13185  3.13185  0.00000 -0.26370
      13     H     0.46007  0.46007  0.00000  0.07986
      14     H     0.45959  0.45959  0.00000  0.08082
      15     H     0.44752  0.44752  0.00000  0.10496
      16     H     0.45638  0.45638  0.00000  0.08724
      17     H     0.44643  0.44643  0.00000  0.10714

   Total alpha = 28.00000, Total beta = 28.00000, Total charge =  0.00000

*** Psi4 exiting successfully. Buy a developer a beer!
