                              Psi4 1.0.54 Driver

  ==> Input File <==

--------------------------------------------------------------------------
set {
	reference rhf
	basis cc-pvtz
}

set_num_threads( 4 )
memory 2 gb

molecule MOL {
0 1

O	 0.749630	 1.305591	 -0.000460
C	 0.576499	 0.134701	 -0.003900
C	 -0.765656	 -0.550508	 -0.002152
O	 1.564816	 -0.744612	 -0.000631
C	 -1.945526	 0.411052	 0.000603
H	 -0.794329	 -1.203792	 -0.868145
H	 -0.791555	 -1.205429	 0.862701
C	 -3.246172	 -0.275033	 -0.402549
H	 -1.737525	 1.233765	 -0.672652
H	 -2.048308	 0.847602	 0.986625
H	 -3.178556	 -0.693639	 -1.401302
H	 -4.071593	 0.426447	 -0.394369
H	 -3.493334	 -1.083611	 0.277481
C	 2.884339	 -0.237801	 0.002883
H	 3.064150	 0.362814	 -0.876312
H	 3.533055	 -1.098529	 0.004958
H	 3.059365	 0.363432	 0.882614

	symmetry c1
}
set optking {
	frozen_dihedral = ("
		9 5 3 6
	")
}

ee,wfn = optimize('scf', return_wfn=True)
oeprop( wfn, 'DIPOLE', 'QUADRUPOLE', 'MULLIKEN_CHARGES')
f=open( 'psi4out.xyz', 'w' )
f.write( "17  " )
f.write( str(ee) + "\n" )
f.write( MOL.save_string_xyz() )
f.close()
--------------------------------------------------------------------------

    Molecular point group: c1
  Charge       = 0
  Multiplicity = 1
  Basis Set: CC-PVTZ
  Basis Set:
  @DF-RHF Final Energy:  -345.03447314381617
    Total Energy =                       -345.0344731438161716
    Molecular point group: c1
  Basis Set: CC-PVTZ
  Basis Set:
  Basis Set: CC-PVTZ
  Basis Set:
  @DF-RHF Final Energy:  -345.03432343132368
    Total Energy =                       -345.0343234313232870
  Basis Set: CC-PVTZ
  Basis Set:
  Basis Set: CC-PVTZ
  Basis Set:
  @DF-RHF Final Energy:  -345.03412444787648
    Total Energy =                       -345.0341244478762519
  Basis Set: CC-PVTZ
  Basis Set:
  Basis Set: CC-PVTZ
  Basis Set:
  @DF-RHF Final Energy:  -345.03460167467495
    Total Energy =                       -345.0346016746748887
  Basis Set: CC-PVTZ
  Basis Set:
  Basis Set: CC-PVTZ
  Basis Set:
  @DF-RHF Final Energy:  -345.03460922945516
    Total Energy =                       -345.0346092294555547
  Basis Set: CC-PVTZ
  Basis Set:
  Basis Set: CC-PVTZ
  Basis Set:
  @DF-RHF Final Energy:  -345.03461107071161
    Total Energy =                       -345.0346110707120033
  Basis Set: CC-PVTZ
  Basis Set:
  Charge       = 0
  Multiplicity = 1
  Basis Set: CC-PVTZ
  Basis Set:

    Orbital Energies (a.u.)
    -----------------------

    Doubly Occupied:

       1A    -20.596810     2A    -20.534771     3A    -11.365369
       4A    -11.278852     5A    -11.234228     6A    -11.219770
       7A    -11.212917     8A     -1.472836     9A     -1.366426
      10A     -1.081273    11A     -1.002755    12A     -0.940452
      13A     -0.828327    14A     -0.769562    15A     -0.703679
      16A     -0.686311    17A     -0.676539    18A     -0.635929
      19A     -0.597738    20A     -0.575444    21A     -0.569633
      22A     -0.529436    23A     -0.523450    24A     -0.500416
      25A     -0.487884    26A     -0.477431    27A     -0.460268
      28A     -0.442300

  @DF-RHF Final Energy:  -345.03461123728573

   => Energetics <=

    Nuclear Repulsion Energy =            312.9661671777399761
    One-Electron Energy =               -1090.4599443694760339
    Two-Electron Energy =                 432.4591659544500430
    DFT Exchange-Correlation Energy =       0.0000000000000000
    Empirical Dispersion Energy =           0.0000000000000000
    PCM Polarization Energy =               0.0000000000000000
    EFP Energy =                            0.0000000000000000
    Total Energy =                       -345.0346112372860148
    Molecular point group: c1
  Basis Set: CC-PVTZ
  Basis Set:

  -Total Gradient:
     Atom            X                  Y                   Z
    ------   -----------------  -----------------  -----------------
       1        0.000008777510    -0.000008535596    -0.000000883316
       2       -0.000010034220     0.000008791878    -0.000036010539
       3        0.002118355429     0.002648165567    -0.001296734168
       4        0.000004808194     0.000003677742     0.000020217411
       5       -0.001801868192    -0.002227219120    -0.002148582497
       6       -0.001466980594    -0.001829832090     0.001431403545
       7       -0.000006206383    -0.000005044830    -0.000015001622
       8       -0.000002103217     0.000000646585    -0.000003976964
       9        0.001146013548     0.001404421318     0.002042939101
      10       -0.000001654757     0.000003811185     0.000009333549
      11       -0.000005268909     0.000001576643     0.000011134191
      12        0.000012786408    -0.000010768854    -0.000001480431
      13        0.000002104759     0.000010831731    -0.000010113161
      14        0.000000152589    -0.000002436044    -0.000001160872
      15        0.000000058772     0.000001288182    -0.000000542203
      16        0.000001024492     0.000000071021    -0.000000113684
      17        0.000000034571     0.000000554682    -0.000000428340

  **** Optimization is complete! (in 7 steps) ****
    Final optimized geometry and variables:
    Molecular point group: c1

    Geometry (in Angstrom), charge = 0, multiplicity = 1:

    O            0.751120981575     1.301477853353     0.071027947386
    C            0.574490128100     0.131219428331     0.053633906538
    C           -0.768360959983    -0.551054253860     0.030934049823
    O            1.560714852747    -0.750359380993     0.055425277474
    C           -1.955437208364     0.404614912546     0.034682906511
    H           -0.794670397821    -1.211044083179    -0.830071205626
    H           -0.802132516947    -1.212948369660     0.890639612867
    C           -3.263425441405    -0.291713790392    -0.320520132720
    H           -1.758955211561     1.225263471970    -0.643085929055
    H           -2.038590284791     0.857450402596     1.016748498517
    H           -3.228118571231    -0.707804085913    -1.321866158472
    H           -4.094217943496     0.402275512308    -0.280142689647
    H           -3.478425989036    -1.103831048451     0.366439210624
    C            2.881092346122    -0.246907019942     0.078736814692
    H            3.071387300979     0.364827227219    -0.790620771729
    H            3.528289641214    -1.108865451769     0.076083200629
    H            3.048738913427     0.342512942280     0.967944740256

  Mulliken Charges: (a.u.)
   Center  Symbol    Alpha    Beta     Spin     Total
       1     O     4.19641  4.19641  0.00000 -0.39283
       2     C     2.80520  2.80520  0.00000  0.38961
       3     C     3.09726  3.09726  0.00000 -0.19451
       4     O     4.14699  4.14699  0.00000 -0.29397
       5     C     3.08024  3.08024  0.00000 -0.16048
       6     H     0.44177  0.44177  0.00000  0.11646
       7     H     0.43994  0.43994  0.00000  0.12011
       8     C     3.15061  3.15061  0.00000 -0.30122
       9     H     0.44283  0.44283  0.00000  0.11434
      10     H     0.45042  0.45042  0.00000  0.09915
      11     H     0.45535  0.45535  0.00000  0.08930
      12     H     0.44586  0.44586  0.00000  0.10829
      13     H     0.45593  0.45593  0.00000  0.08814
      14     C     3.03721  3.03721  0.00000 -0.07441
      15     H     0.45430  0.45430  0.00000  0.09140
      16     H     0.44531  0.44531  0.00000  0.10939
      17     H     0.45438  0.45438  0.00000  0.09125

   Total alpha = 28.00000, Total beta = 28.00000, Total charge = -0.00000

*** Psi4 exiting successfully. Buy a developer a beer!
