                              Psi4 1.0.54 Driver

  ==> Input File <==

--------------------------------------------------------------------------
set {
	reference rhf
	basis cc-pvtz
}

set_num_threads( 4 )
memory 2 gb

molecule MOL {
0 1

H	 2.867672	 -0.456275	 0.875795
C	 2.403497	 -0.020426	 0.000000
N	 0.989899	 -0.304564	 0.000000
H	 2.867672	 -0.456275	 -0.875795
H	 2.620366	 1.051270	 0.000000
C	 0.315497	 0.242468	 1.159096
C	 0.709810	 -1.719258	 -0.133268
H	 0.709626	 -0.181435	 2.087920
H	 0.476987	 1.313680	 1.193045
C	 -1.172449	 -0.039396	 1.076557
H	 1.160621	 -2.087428	 -1.047570
H	 1.133597	 -2.290712	 0.698350
C	 -0.788267	 -1.950717	 -0.182602
H	 -1.670429	 0.283851	 1.979969
H	 -1.598993	 0.502361	 0.234739
O	 -1.420084	 -1.407137	 0.938323
H	 -1.008546	 -3.009046	 -0.189357
H	 -1.194931	 -1.507865	 -1.089578

	symmetry c1
}
set optking {
	frozen_dihedral = ("
		6 3 2 5
	")
}

ee,wfn = optimize('scf', return_wfn=True)
oeprop( wfn, 'DIPOLE', 'QUADRUPOLE', 'MULLIKEN_CHARGES')
f=open( 'psi4out.xyz', 'w' )
f.write( "18  " )
f.write( str(ee) + "\n" )
f.write( MOL.save_string_xyz() )
f.close()
--------------------------------------------------------------------------

    Molecular point group: c1
  Charge       = 0
  Multiplicity = 1
  Basis Set: CC-PVTZ
  Basis Set:
  @DF-RHF Final Energy:  -325.14510900490870
    Total Energy =                       -325.1451090049087043
    Molecular point group: c1
  Basis Set: CC-PVTZ
  Basis Set:
  Basis Set: CC-PVTZ
  Basis Set:
  @DF-RHF Final Energy:  -325.14574638935272
    Total Energy =                       -325.1457463893525528
  Basis Set: CC-PVTZ
  Basis Set:
  Basis Set: CC-PVTZ
  Basis Set:
  @DF-RHF Final Energy:  -325.14582500654046
    Total Energy =                       -325.1458250065400080
  Basis Set: CC-PVTZ
  Basis Set:
  Charge       = 0
  Multiplicity = 1
  Basis Set: CC-PVTZ
  Basis Set:

    Orbital Energies (a.u.)
    -----------------------

    Doubly Occupied:

       1A    -20.547661     2A    -15.544684     3A    -11.264448
       4A    -11.264419     5A    -11.242575     6A    -11.242557
       7A    -11.239216     8A     -1.386597     9A     -1.234459
      10A     -1.039236    11A     -0.982226    12A     -0.884110
      13A     -0.869540    14A     -0.774744    15A     -0.685230
      16A     -0.646749    17A     -0.645452    18A     -0.635363
      19A     -0.631360    20A     -0.574393    21A     -0.557085
      22A     -0.540705    23A     -0.527340    24A     -0.501802
      25A     -0.485230    26A     -0.454108    27A     -0.410814
      28A     -0.356170

  @DF-RHF Final Energy:  -325.14582548889751

   => Energetics <=

    Nuclear Repulsion Energy =            341.9882611021435537
    One-Electron Energy =               -1119.9316333731671875
    Two-Electron Energy =                 452.7975467821262328
    DFT Exchange-Correlation Energy =       0.0000000000000000
    Empirical Dispersion Energy =           0.0000000000000000
    PCM Polarization Energy =               0.0000000000000000
    EFP Energy =                            0.0000000000000000
    Total Energy =                       -325.1458254888974579
    Molecular point group: c1
  Basis Set: CC-PVTZ
  Basis Set:

  -Total Gradient:
     Atom            X                  Y                   Z
    ------   -----------------  -----------------  -----------------
       1       -0.000015521959    -0.000004755330     0.000006043000
       2        0.000018564469    -0.000179894757     0.000689584716
       3       -0.000116084132     0.000410640353    -0.000358554607
       4       -0.000015364780    -0.000002630163    -0.000006175775
       5       -0.000028209432     0.000005301230    -0.000500194574
       6        0.000072250152    -0.000287996971     0.000133567450
       7        0.000088079322    -0.000055727923    -0.000021096330
       8       -0.000012587948    -0.000004664559    -0.000011092890
       9       -0.000009683236     0.000013551970     0.000023621290
      10       -0.000005719156     0.000004043534     0.000034381133
      11        0.000014428014    -0.000013381402    -0.000011164797
      12        0.000001959025     0.000011730905     0.000004988811
      13        0.000012836845     0.000121098030    -0.000010571494
      14       -0.000012297321    -0.000006474956     0.000001696676
      15        0.000011947805    -0.000001761576     0.000002447877
      16       -0.000028131517    -0.000016845993     0.000040847931
      17        0.000036410177     0.000019873476     0.000006833627
      18       -0.000012876330    -0.000012105868    -0.000025162041

  **** Optimization is complete! (in 4 steps) ****
    Final optimized geometry and variables:
    Molecular point group: c1

    Geometry (in Angstrom), charge = 0, multiplicity = 1:

    H            2.772595322150     0.304487652353     0.433003849884
    C            2.249065052391     0.731535894340    -0.426612058647
    N            0.835981618314     0.445204729728    -0.420390656412
    H            2.701226213417     0.332924839379    -1.326177209006
    H            2.408948575047     1.802616718545    -0.421897568328
    C            0.169212037783     0.986077306844     0.746086990148
    C            0.557965241435    -0.969968051655    -0.554501297897
    H            0.570797564284     0.557863849152     1.669713748318
    H            0.329774568204     2.057461736320     0.784616527205
    C           -1.319044837564     0.702682272375     0.673643382274
    H            1.003295419240    -1.335899290187    -1.472461829672
    H            0.987710485018    -1.542451058919     0.273408125504
    C           -0.940165641728    -1.203524194047    -0.594663895249
    H           -1.810586934377     1.022048677734     1.582032150482
    H           -1.752325684114     1.247443418696    -0.162840147145
    O           -1.565966751179    -0.664746888366     0.531875387492
    H           -1.158353549134    -2.262311675741    -0.603638264605
    H           -1.353050093475    -0.758643562669    -1.497929265586

  Mulliken Charges: (a.u.)
   Center  Symbol    Alpha    Beta     Spin     Total
       1     H     0.46941  0.46941  0.00000  0.06117
       2     C     3.09495  3.09495  0.00000 -0.18990
       3     N     3.61707  3.61707  0.00000 -0.23414
       4     H     0.45181  0.45181  0.00000  0.09639
       5     H     0.45130  0.45130  0.00000  0.09740
       6     C     3.04117  3.04117  0.00000 -0.08233
       7     C     3.04088  3.04088  0.00000 -0.08177
       8     H     0.46865  0.46865  0.00000  0.06270
       9     H     0.45397  0.45397  0.00000  0.09205
      10     C     2.98346  2.98346  0.00000  0.03308
      11     H     0.45389  0.45389  0.00000  0.09222
      12     H     0.46894  0.46894  0.00000  0.06212
      13     C     2.98354  2.98354  0.00000  0.03293
      14     H     0.44973  0.44973  0.00000  0.10054
      15     H     0.46750  0.46750  0.00000  0.06499
      16     O     4.18647  4.18647  0.00000 -0.37293
      17     H     0.44974  0.44974  0.00000  0.10052
      18     H     0.46752  0.46752  0.00000  0.06497

   Total alpha = 28.00000, Total beta = 28.00000, Total charge =  0.00000

*** Psi4 exiting successfully. Buy a developer a beer!
