  ==> Input File <==

--------------------------------------------------------------------------
set {
	reference rhf
	basis cc-pvtz
}

set_num_threads( 4 )
memory 2 gb

molecule MOL {
0 1

H	 -2.827386	 -0.120976	 2.046598
O	 -1.988097	 0.163569	 1.735688
C	 -2.021813	 0.336996	 0.342658
C	 -0.669613	 0.837286	 -0.127252
H	 -2.251497	 -0.605112	 -0.148667
H	 -2.796759	 1.049740	 0.067271
C	 0.490865	 -0.082543	 0.241244
H	 -0.708709	 0.967192	 -1.204587
H	 -0.507562	 1.822272	 0.303070
C	 1.839800	 0.429565	 -0.255472
H	 0.305636	 -1.070211	 -0.165276
H	 0.527397	 -0.195943	 1.322876
C	 3.001144	 -0.485193	 0.119072
H	 1.804373	 0.541073	 -1.335756
H	 2.020437	 1.423114	 0.146921
H	 2.866892	 -1.477297	 -0.298806
H	 3.943543	 -0.095749	 -0.249061
H	 3.085064	 -0.590459	 1.195790

	symmetry c1
}
set optking {
	frozen_dihedral = ("
		2 3 4 8
	")
}

ee = optimize('scf')
oeprop('DIPOLE', 'QUADRUPOLE', 'MULLIKEN_CHARGES')
f=open( 'psi4out.xyz', 'w' )
f.write( "18  " )
f.write( str(ee) + "\n" )
f.write( MOL.save_string_xyz() )
f.close()
--------------------------------------------------------------------------

    Molecular point group: c1
  Charge       = 0
  Multiplicity = 1
  Basis Set: CC-PVTZ
  Basis Set:
  @DF-RHF Final Energy:  -271.28663155628237
    Total Energy =                       -271.2866315562824866
    Molecular point group: c1
  Basis Set: CC-PVTZ
  Basis Set:
  Basis Set: CC-PVTZ
  Basis Set:
  @DF-RHF Final Energy:  -271.28673426461398
    Total Energy =                       -271.2867342646140401
  Basis Set: CC-PVTZ
  Basis Set:
  Basis Set: CC-PVTZ
  Basis Set:
  @DF-RHF Final Energy:  -271.28674815327349
    Total Energy =                       -271.2867481532732654
  Basis Set: CC-PVTZ
  Basis Set:
  Charge       = 0
  Multiplicity = 1
  Basis Set: CC-PVTZ
  Basis Set:

    Orbital Energies (a.u.)
    -----------------------

    Doubly Occupied:

       1A    -20.546309     2A    -11.266083     3A    -11.210654
       4A    -11.208793     5A    -11.204278     6A    -11.202457
       7A     -1.364344     8A     -1.076217     9A     -1.010031
      10A     -0.914370    11A     -0.818188    12A     -0.784165
      13A     -0.707642    14A     -0.646114    15A     -0.625157
      16A     -0.582745    17A     -0.572345    18A     -0.558466
      19A     -0.523737    20A     -0.502590    21A     -0.489413
      22A     -0.467598    23A     -0.458730    24A     -0.448301
      25A     -0.432089

  @DF-RHF Final Energy:  -271.28674896571357

   => Energetics <=

    Nuclear Repulsion Energy =            249.5415822841925433
    One-Electron Energy =                -862.4150278710097837
    Two-Electron Energy =                 341.5866966211035560
    DFT Exchange-Correlation Energy =       0.0000000000000000
    Empirical Dispersion Energy =           0.0000000000000000
    PCM Polarization Energy =               0.0000000000000000
    EFP Energy =                            0.0000000000000000
    Total Energy =                       -271.2867489657137412
    Molecular point group: c1
  Basis Set: CC-PVTZ
  Basis Set:

  -Total Gradient:
     Atom            X                  Y                   Z
    ------   -----------------  -----------------  -----------------
       1       -0.000006863012     0.000015787511    -0.000004772155
       2        0.000387054174    -0.001198595269    -0.000126207530
       3       -0.000411194279     0.001247179863     0.000115160712
       4       -0.000500927950     0.001494380569     0.000171539408
       5        0.000013019731    -0.000008655863     0.000000923665
       6        0.000004618849    -0.000011774360     0.000016401415
       7        0.000024798916     0.000060145140     0.000096772881
       8        0.000499410184    -0.001508462765    -0.000197998072
       9       -0.000009276274    -0.000046535775     0.000003106217
      10        0.000003240334    -0.000009013880    -0.000006545453
      11       -0.000017165286    -0.000040450587    -0.000025089835
      12        0.000014900899     0.000010326215    -0.000039286849
      13        0.000003675980     0.000003609238     0.000006584076
      14       -0.000007969982     0.000005479796    -0.000005304070
      15        0.000003211069    -0.000008180903     0.000001436724
      16        0.000001751235    -0.000000704059    -0.000004515613
      17        0.000000038681    -0.000001694206    -0.000000892103
      18       -0.000002323270    -0.000002840667    -0.000001313415

  **** Optimization is complete! (in 4 steps) ****
    Final optimized geometry and variables:
    Molecular point group: c1

    Geometry (in Angstrom), charge = 0, multiplicity = 1:

    H           -2.898859248100    -0.315017944371     1.661697766664
    O           -2.064110048554    -0.007543505913     1.360876268199
    C           -2.079678295402     0.142366616823    -0.034902976852
    C           -0.726941713638     0.645935366481    -0.500923552644
    H           -2.299963194968    -0.810392450713    -0.512781651159
    H           -2.852484692066     0.846297146203    -0.332876219651
    C            0.433708725263    -0.274791353140    -0.132641793593
    H           -0.768278535161     0.752284402018    -1.582034155843
    H           -0.558266027037     1.634849434862    -0.086073648458
    C            1.781285711217     0.238084583296    -0.632334236250
    H            0.250577227322    -1.263845734420    -0.547998618434
    H            0.467475605388    -0.395903531733     0.943428866889
    C            2.942487466862    -0.681179575756    -0.268602598179
    H            1.744822375179     0.361304268897    -1.711748081250
    H            1.963365035130     1.226732082545    -0.219704964187
    H            2.808181402520    -1.669258703175    -0.696454213700
    H            3.884763785402    -0.288528836748    -0.633646751969
    H            3.026280790206    -0.797226155153     0.806736077080

  Mulliken Charges: (a.u.)
   Center  Symbol    Alpha    Beta     Spin     Total
       1     H     0.39579  0.39579  0.00000  0.20842
       2     O     4.19832  4.19832  0.00000 -0.39664
       3     C     2.97428  2.97428  0.00000  0.05145
       4     C     3.09115  3.09115  0.00000 -0.18229
       5     H     0.47341  0.47341  0.00000  0.05318
       6     H     0.46534  0.46534  0.00000  0.06932
       7     C     3.08591  3.08591  0.00000 -0.17182
       8     H     0.45515  0.45515  0.00000  0.08970
       9     H     0.45249  0.45249  0.00000  0.09503
      10     C     3.08364  3.08364  0.00000 -0.16728
      11     H     0.45977  0.45977  0.00000  0.08045
      12     H     0.44350  0.44350  0.00000  0.11300
      13     C     3.14974  3.14974  0.00000 -0.29948
      14     H     0.45693  0.45693  0.00000  0.08615
      15     H     0.45471  0.45471  0.00000  0.09059
      16     H     0.45599  0.45599  0.00000  0.08803
      17     H     0.44948  0.44948  0.00000  0.10103
      18     H     0.45441  0.45441  0.00000  0.09117

   Total alpha = 25.00000, Total beta = 25.00000, Total charge =  0.00000
