  ==> Input File <==

--------------------------------------------------------------------------
set {
	reference rhf
	basis 6-31G*
}

set_num_threads( 4 )
memory 2 gb

molecule MOL {
0 1

H	 -3.135461	 -1.215070	 0.001379
O	 -2.310168	 -0.871793	 -0.309793
C	 -2.026376	 0.340750	 0.341611
C	 -0.673256	 0.843270	 -0.132153
H	 -2.792215	 1.080697	 0.115987
H	 -2.013526	 0.200402	 1.421792
C	 0.486613	 -0.083066	 0.235839
H	 -0.715586	 0.970948	 -1.210718
H	 -0.508072	 1.829858	 0.297090
C	 0.611305	 -0.312001	 1.743106
H	 1.411486	 0.335699	 -0.147253
H	 0.351057	 -1.042375	 -0.262350
C	 1.766780	 -1.242382	 2.110448
H	 0.747559	 0.645285	 2.241859
H	 -0.319772	 -0.725335	 2.126115
H	 2.716542	 -0.839022	 1.771119
H	 1.832337	 -1.384506	 3.184900
H	 1.642633	 -2.220723	 1.654435

	symmetry c1
}
set optking {
	frozen_dihedral = ("
		10 7 4 8
	")
}

ee = optimize('scf')
oeprop('DIPOLE', 'QUADRUPOLE', 'MULLIKEN_CHARGES')
f=open( 'psi4out.xyz', 'w' )
f.write( "18  " )
f.write( str(ee) + "\n" )
f.write( MOL.save_string_xyz() )
f.close()
--------------------------------------------------------------------------

    Molecular point group: c1
  Charge       = 0
  Multiplicity = 1
  Basis Set: 6-31G*
  Basis Set:
  @DF-RHF Final Energy:  -271.17727882158016
    Total Energy =                       -271.1772788215803303
    Molecular point group: c1
  Basis Set: 6-31G*
  Basis Set:
  Basis Set: 6-31G*
  Basis Set:
  @DF-RHF Final Energy:  -271.17789338933079
    Total Energy =                       -271.1778933893309613
  Basis Set: 6-31G*
  Basis Set:
  Basis Set: 6-31G*
  Basis Set:
  @DF-RHF Final Energy:  -271.17840480947825
    Total Energy =                       -271.1784048094785362
  Basis Set: 6-31G*
  Basis Set:
  Basis Set: 6-31G*
  Basis Set:
  @DF-RHF Final Energy:  -271.17844205114386
    Total Energy =                       -271.1784420511438611
  Basis Set: 6-31G*
  Basis Set:
  Basis Set: 6-31G*
  Basis Set:
  @DF-RHF Final Energy:  -271.17844363324309
    Total Energy =                       -271.1784436332428641
  Basis Set: 6-31G*
  Basis Set:
  Basis Set: 6-31G*
  Basis Set:
  @DF-RHF Final Energy:  -271.17844615155514
    Total Energy =                       -271.1784461515547946
  Basis Set: 6-31G*
  Basis Set:
  Charge       = 0
  Multiplicity = 1
  Basis Set: 6-31G*
  Basis Set:

    Orbital Energies (a.u.)
    -----------------------

    Doubly Occupied:

       1A    -20.553562     2A    -11.267320     3A    -11.212402
       4A    -11.210098     5A    -11.206227     6A    -11.204457
       7A     -1.360058     8A     -1.073899     9A     -1.006514
      10A     -0.913017    11A     -0.831009    12A     -0.769037
      13A     -0.704140    14A     -0.645440    15A     -0.624669
      16A     -0.584057    17A     -0.562725    18A     -0.552140
      19A     -0.536501    20A     -0.499826    21A     -0.488463
      22A     -0.462662    23A     -0.455689    24A     -0.448017
      25A     -0.428778

  @DF-RHF Final Energy:  -271.17844623462292

   => Energetics <=

    Nuclear Repulsion Energy =            253.9681008170102530
    One-Electron Energy =                -871.0916734841853213
    Two-Electron Energy =                 345.9451264325520583
    DFT Exchange-Correlation Energy =       0.0000000000000000
    Empirical Dispersion Energy =           0.0000000000000000
    PCM Polarization Energy =               0.0000000000000000
    EFP Energy =                            0.0000000000000000
    Total Energy =                       -271.1784462346229816
    Molecular point group: c1
  Basis Set: 6-31G*
  Basis Set:

  -Total Gradient:
     Atom            X                  Y                   Z
    ------   -----------------  -----------------  -----------------
       1       -0.000001390656    -0.000002847231     0.000000387552
       2       -0.000003403331     0.000001564930     0.000001119248
       3        0.000003245639     0.000001903129     0.000011469334
       4        0.000437552634     0.000528093717     0.000038255487
       5        0.000002118184    -0.000001829383    -0.000001845714
       6       -0.000008735127    -0.000005223871     0.000002585566
       7        0.000385454207     0.000491588860     0.000046941613
       8       -0.000467819879    -0.000583742985    -0.000059863907
       9        0.000007953743    -0.000006714388    -0.000000472270
      10       -0.000350960490    -0.000430089567    -0.000035935661
      11        0.000000167256     0.000002236706     0.000000423415
      12       -0.000005489605     0.000008661587    -0.000005481891
      13        0.000001336491    -0.000000788548     0.000000437973
      14       -0.000001070162     0.000000000728     0.000005200470
      15       -0.000000498523    -0.000000382852    -0.000003070487
      16       -0.000000516991    -0.000001670236    -0.000002416493
      17        0.000001740395     0.000001458307    -0.000000097212
      18        0.000000316209    -0.000002218905     0.000002362976

  **** Optimization is complete! (in 7 steps) ****
    Final optimized geometry and variables:
    Molecular point group: c1

    Geometry (in Angstrom), charge = 0, multiplicity = 1:

    H           -2.772081528699    -0.916594201297    -0.640944909505
    O           -1.912865357161    -0.623688741834    -0.908847105317
    C           -1.653790231005     0.644947785376    -0.362358938502
    C           -0.265060119493     1.088012685106    -0.796399448378
    H           -2.386688557837     1.368505051326    -0.715035034763
    H           -1.725540962832     0.614988181181     0.722368121435
    C            0.870083803008     0.134230097332    -0.407853895756
    H           -0.274789473319     1.197875379286    -1.877209542119
    H           -0.080504194722     2.075575507390    -0.377530283210
    C            1.012300999441    -0.122418846070     1.094320878125
    H            1.802358276205     0.550423530445    -0.784589098784
    H            0.725701336805    -0.812181266681    -0.918758998721
    C            2.237868303678    -0.972799607810     1.428591824630
    H            1.077701676244     0.826816171949     1.623979945245
    H            0.123488223796    -0.623903372094     1.466190028584
    H            3.154109103463    -0.483587458886     1.110045022614
    H            2.313295473208    -1.153333863967     2.496645748871
    H            2.189786502912    -1.937930435176     0.932396823330

  Mulliken Charges: (a.u.)
   Center  Symbol    Alpha    Beta     Spin     Total
       1     H     0.28060  0.28060  0.00000  0.43881
       2     O     4.36995  4.36995  0.00000 -0.73990
       3     C     2.99945  2.99945  0.00000  0.00110
       4     C     3.16223  3.16223  0.00000 -0.32445
       5     H     0.42909  0.42909  0.00000  0.14182
       6     H     0.43046  0.43046  0.00000  0.13908
       7     C     3.15163  3.15163  0.00000 -0.30326
       8     H     0.41452  0.41452  0.00000  0.17096
       9     H     0.42426  0.42426  0.00000  0.15149
      10     C     3.15534  3.15534  0.00000 -0.31067
      11     H     0.42441  0.42441  0.00000  0.15118
      12     H     0.40904  0.40904  0.00000  0.18191
      13     C     3.23894  3.23894  0.00000 -0.47788
      14     H     0.42680  0.42680  0.00000  0.14641
      15     H     0.41941  0.41941  0.00000  0.16117
      16     H     0.42262  0.42262  0.00000  0.15476
      17     H     0.42084  0.42084  0.00000  0.15832
      18     H     0.42042  0.42042  0.00000  0.15916

   Total alpha = 25.00000, Total beta = 25.00000, Total charge =  0.00000
