  ==> Input File <==

--------------------------------------------------------------------------
set {
	reference rhf
	basis 6-31G*
}

set_num_threads( 4 )
memory 2 gb

molecule MOL {
0 1

H	 2.735652	 -0.225617	 0.898917
N	 2.332695	 -0.069570	 0.000000
C	 0.936681	 -0.007078	 0.000000
H	 2.777004	 0.698143	 -0.456052
C	 0.227108	 -0.002120	 -1.198267
C	 0.227108	 -0.002120	 1.198267
H	 0.761569	 -0.014657	 -2.132680
C	 -1.156334	 0.010459	 -1.192360
H	 0.761569	 -0.014657	 2.132680
C	 -1.156334	 0.010459	 1.192360
H	 -1.684791	 0.014915	 -2.129421
C	 -1.862085	 0.017996	 0.000000
H	 -1.684791	 0.014915	 2.129421
H	 -2.936703	 0.028387	 0.000000

	symmetry c1
}
set optking {
	frozen_dihedral = ("
		1 2 3 5
	")
}

ee = optimize('scf')
oeprop('DIPOLE', 'QUADRUPOLE', 'MULLIKEN_CHARGES')
f=open( 'psi4out.xyz', 'w' )
f.write( "14  " )
f.write( str(ee) + "\n" )
f.write( MOL.save_string_xyz() )
f.close()
--------------------------------------------------------------------------

    Molecular point group: c1
  Charge       = 0
  Multiplicity = 1
  Basis Set: 6-31G*
  Basis Set:
  @DF-RHF Final Energy:  -285.72798141957031
    Total Energy =                       -285.7279814195704262
    Molecular point group: c1
  Basis Set: 6-31G*
  Basis Set:
  Basis Set: 6-31G*
  Basis Set:
  @DF-RHF Final Energy:  -285.72825426250239
    Total Energy =                       -285.7282542625023325
  Basis Set: 6-31G*
  Basis Set:
  Basis Set: 6-31G*
  Basis Set:
  @DF-RHF Final Energy:  -285.72829549844374
    Total Energy =                       -285.7282954984436856
  Basis Set: 6-31G*
  Basis Set:
  Basis Set: 6-31G*
  Basis Set:
  @DF-RHF Final Energy:  -285.72829872965809
    Total Energy =                       -285.7282987296579790
  Basis Set: 6-31G*
  Basis Set:
  Charge       = 0
  Multiplicity = 1
  Basis Set: 6-31G*
  Basis Set:

    Orbital Energies (a.u.)
    -----------------------

    Doubly Occupied:

       1A    -15.554935     2A    -11.266879     3A    -11.228327
       4A    -11.227622     5A    -11.219788     6A    -11.217272
       7A    -11.216827     8A     -1.215437     9A     -1.125004
      10A     -1.009278    11A     -0.983852    12A     -0.827159
      13A     -0.807958    14A     -0.702058    15A     -0.679345
      16A     -0.649616    17A     -0.604614    18A     -0.591248
      19A     -0.579487    20A     -0.514860    21A     -0.501676
      22A     -0.486077    23A     -0.432494    24A     -0.330271
      25A     -0.296940

  @DF-RHF Final Energy:  -285.72829956913120

   => Energetics <=

    Nuclear Repulsion Energy =            272.8489445886855265
    One-Electron Energy =                -926.6164378132631327
    Two-Electron Energy =                 368.0391936554461267
    DFT Exchange-Correlation Energy =       0.0000000000000000
    Empirical Dispersion Energy =           0.0000000000000000
    PCM Polarization Energy =               0.0000000000000000
    EFP Energy =                            0.0000000000000000
    Total Energy =                       -285.7282995691314795
    Molecular point group: c1
  Basis Set: 6-31G*
  Basis Set:

  -Total Gradient:
     Atom            X                  Y                   Z
    ------   -----------------  -----------------  -----------------
       1       -0.000211386521    -0.003734933437    -0.000589332937
       2        0.000193287909     0.003527688534     0.000825994922
       3        0.000138479683     0.003046979882    -0.000373047492
       4       -0.000039534197    -0.000056674427    -0.000008851823
       5       -0.000063092243    -0.002823251826     0.000082451309
       6        0.000023101716     0.000027106737     0.000050480305
       7        0.000016550880     0.000002088925     0.000000389330
       8       -0.000055398807     0.000037833219     0.000032977376
       9       -0.000006987101    -0.000006901112    -0.000014682027
      10        0.000013912603    -0.000010872053     0.000005490744
      11        0.000006429124    -0.000006306068     0.000014301486
      12        0.000014470369    -0.000006555606    -0.000038224366
      13       -0.000021194484     0.000007359491    -0.000012296649
      14       -0.000008638928    -0.000003562258     0.000024349819

  **** Optimization is complete! (in 5 steps) ****
    Final optimized geometry and variables:
    Molecular point group: c1

    Geometry (in Angstrom), charge = 0, multiplicity = 1:

    H            2.750863775537    -0.216772618676     0.877574481857
    N            2.338379082167    -0.066827225714    -0.017895708559
    C            0.934011098758     0.000449221689     0.005454230292
    H            2.781775940724     0.687514357716    -0.497840111752
    C            0.230546539221    -0.004023001552    -1.196801666918
    C            0.221279257430    -0.002495404204     1.198239620445
    H            0.776694518318    -0.036926276653    -2.122856039242
    C           -1.151203252618     0.023615509140    -1.198951733704
    H            0.751180736558    -0.004832644023     2.135545192969
    C           -1.165100535863    -0.001025108705     1.188750261863
    H           -1.677695791149     0.028198347159    -2.137096333755
    C           -1.861061373320     0.021083249814    -0.006558438414
    H           -1.698857494693    -0.006776440600     2.122782833540
    H           -2.935970879449     0.030366220042    -0.011967452423

  Mulliken Charges: (a.u.)
   Center  Symbol    Alpha    Beta     Spin     Total
       1     H     0.32105  0.32105  0.00000  0.35791
       2     N     3.94966  3.94966  0.00000 -0.89932
       3     C     2.86346  2.86346  0.00000  0.27308
       4     H     0.31937  0.31937  0.00000  0.36126
       5     C     3.11506  3.11506  0.00000 -0.23011
       6     C     3.12565  3.12565  0.00000 -0.25131
       7     H     0.39948  0.39948  0.00000  0.20104
       8     C     3.09338  3.09338  0.00000 -0.18676
       9     H     0.40516  0.40516  0.00000  0.18969
      10     C     3.09257  3.09257  0.00000 -0.18513
      11     H     0.40061  0.40061  0.00000  0.19878
      12     C     3.11159  3.11159  0.00000 -0.22317
      13     H     0.40079  0.40079  0.00000  0.19841
      14     H     0.40218  0.40218  0.00000  0.19564

   Total alpha = 25.00000, Total beta = 25.00000, Total charge = -0.00000
