  ==> Input File <==

--------------------------------------------------------------------------
set {
	reference rhf
	basis 6-31G*
}

set_num_threads( 4 )
memory 2 gb

molecule MOL {
0 1

H	 2.504419	 -0.758754	 -1.000713
N	 2.434251	 -0.367735	 -0.081097
C	 1.267428	 0.496480	 0.024474
H	 3.274491	 0.156063	 0.075578
C	 -0.016086	 -0.325158	 -0.029487
H	 1.288818	 1.183521	 -0.816092
H	 1.267576	 1.109062	 0.929528
C	 -1.282277	 0.529072	 0.046735
H	 -0.012495	 -0.908639	 -0.945788
H	 -0.015903	 -1.041248	 0.791956
C	 -2.563920	 -0.301775	 -0.006060
H	 -1.284084	 1.244622	 -0.773004
H	 -1.271387	 1.115393	 0.963286
H	 -2.621848	 -0.873522	 -0.927727
H	 -3.445135	 0.329952	 0.047812
H	 -2.609542	 -1.004582	 0.821105

	symmetry c1
}
set optking {
	frozen_dihedral = ("
		1 2 3 6
	")
}

ee = optimize('scf')
oeprop('DIPOLE', 'QUADRUPOLE', 'MULLIKEN_CHARGES')
f=open( 'psi4out.xyz', 'w' )
f.write( "16  " )
f.write( str(ee) + "\n" )
f.write( MOL.save_string_xyz() )
f.close()
--------------------------------------------------------------------------

    Molecular point group: c1
  Charge       = 0
  Multiplicity = 1
  Basis Set: 6-31G*
  Basis Set:
  @DF-RHF Final Energy:  -212.31467068126003
    Total Energy =                       -212.3146706812598836
    Molecular point group: c1
  Basis Set: 6-31G*
  Basis Set:
  Basis Set: 6-31G*
  Basis Set:
  @DF-RHF Final Energy:  -212.31658222313825
    Total Energy =                       -212.3165822231382549
  Basis Set: 6-31G*
  Basis Set:
  Basis Set: 6-31G*
  Basis Set:
  @DF-RHF Final Energy:  -212.31688312401209
    Total Energy =                       -212.3168831240118948
  Basis Set: 6-31G*
  Basis Set:
  Basis Set: 6-31G*
  Basis Set:
  @DF-RHF Final Energy:  -212.31688583471094
    Total Energy =                       -212.3168858347108312
  Basis Set: 6-31G*
  Basis Set:
  Basis Set: 6-31G*
  Basis Set:
  @DF-RHF Final Energy:  -212.31689116096746
    Total Energy =                       -212.3168911609675433
  Basis Set: 6-31G*
  Basis Set:
  Charge       = 0
  Multiplicity = 1
  Basis Set: 6-31G*
  Basis Set:

    Orbital Energies (a.u.)
    -----------------------

    Doubly Occupied:

       1A    -15.533083     2A    -11.240125     3A    -11.214453
       4A    -11.208325     5A    -11.207455     6A     -1.176814
       7A     -1.058969     8A     -0.958426     9A     -0.843323
      10A     -0.790822    11A     -0.666572    12A     -0.633964
      13A     -0.606674    14A     -0.575253    15A     -0.562169
      16A     -0.526334    17A     -0.498352    18A     -0.469984
      19A     -0.464574    20A     -0.461497    21A     -0.381705

  @DF-RHF Final Energy:  -212.31689174744770

   => Energetics <=

    Nuclear Repulsion Energy =            186.1968972128424866
    One-Electron Energy =                -654.8698262885059194
    Two-Electron Energy =                 256.3560373282156775
    DFT Exchange-Correlation Energy =       0.0000000000000000
    Empirical Dispersion Energy =           0.0000000000000000
    PCM Polarization Energy =               0.0000000000000000
    EFP Energy =                            0.0000000000000000
    Total Energy =                       -212.3168917474477553
    Molecular point group: c1
  Basis Set: 6-31G*
  Basis Set:

  -Total Gradient:
     Atom            X                  Y                   Z
    ------   -----------------  -----------------  -----------------
       1        0.000624616129     0.000922667000    -0.000279383603
       2       -0.000945752801    -0.001316394880     0.000183691360
       3        0.000854006519     0.001072698306     0.000695918650
       4        0.000015615448    -0.000006645970     0.000001903422
       5        0.000012578425     0.000032344530    -0.000003577660
       6       -0.000556801642    -0.000712109925    -0.000608495691
       7       -0.000011038403    -0.000004446830     0.000009019010
       8       -0.000007396268     0.000000805245    -0.000030422547
       9        0.000011420219     0.000020839085     0.000011810910
      10        0.000006144089    -0.000005359729     0.000010670489
      11       -0.000005071626     0.000002015261     0.000020559310
      12        0.000005533452     0.000000565084    -0.000005765208
      13       -0.000001553033    -0.000005208355    -0.000008436195
      14        0.000000020568     0.000008873846    -0.000002940413
      15       -0.000002462569    -0.000002192926     0.000009447278
      16        0.000000141497    -0.000008449741    -0.000003999112

  **** Optimization is complete! (in 6 steps) ****
    Final optimized geometry and variables:
    Molecular point group: c1

    Geometry (in Angstrom), charge = 0, multiplicity = 1:

    H            2.539100591953    -0.755973382839    -0.961299081575
    N            2.434453567199    -0.374190892599    -0.040343975985
    C            1.267237882073     0.495505152684     0.019753898360
    H            3.270334319081     0.145445460486     0.147164469842
    C           -0.016951494929    -0.326847719491    -0.016349606846
    H            1.242077797374     1.233018207046    -0.785974740146
    H            1.313211694296     1.049042921794     0.952433219014
    C           -1.282818216652     0.527864057796     0.059492964171
    H           -0.035237225455    -0.917381937691    -0.931790769122
    H            0.006339957648    -1.036477637906     0.805659807088
    C           -2.564739871639    -0.303690920827     0.027192532441
    H           -1.293621390482     1.237136631467    -0.765713955609
    H           -1.262980681556     1.121600650931     0.971207580338
    H           -2.633266682293    -0.882269509857    -0.889738978386
    H           -3.445662096088     0.328089794634     0.086246820222
    H           -2.600177668568    -1.000458169697     0.859675288508

  Mulliken Charges: (a.u.)
   Center  Symbol    Alpha    Beta     Spin     Total
       1     H     0.33514  0.33514  0.00000  0.32971
       2     N     3.92107  3.92107  0.00000 -0.84215
       3     C     3.06274  3.06274  0.00000 -0.12548
       4     H     0.33253  0.33253  0.00000  0.33494
       5     C     3.14777  3.14777  0.00000 -0.29554
       6     H     0.43425  0.43425  0.00000  0.13150
       7     H     0.42109  0.42109  0.00000  0.15783
       8     C     3.15593  3.15593  0.00000 -0.31185
       9     H     0.42762  0.42762  0.00000  0.14477
      10     H     0.41390  0.41390  0.00000  0.17220
      11     C     3.23853  3.23853  0.00000 -0.47705
      12     H     0.42408  0.42408  0.00000  0.15184
      13     H     0.42300  0.42300  0.00000  0.15400
      14     H     0.42194  0.42194  0.00000  0.15612
      15     H     0.41982  0.41982  0.00000  0.16036
      16     H     0.42059  0.42059  0.00000  0.15881

   Total alpha = 21.00000, Total beta = 21.00000, Total charge = -0.00000
