  ==> Input File <==

--------------------------------------------------------------------------
set {
	reference rhf
	basis 6-31G*
}

set_num_threads( 1 )
memory 2 gb

molecule MOL {
0 1

O	 0.749854	 1.307668	 -0.000040
C	 0.576249	 0.131685	 -0.000108
C	 -0.766779	 -0.556801	 -0.000461
O	 1.568443	 -0.749345	 -0.000005
C	 -1.945214	 0.412366	 0.000161
H	 -0.796911	 -1.211249	 -0.867467
H	 -0.796854	 -1.212390	 0.865687
C	 -3.139854	 -0.137674	 0.777887
H	 -2.235451	 0.623721	 -1.023408
H	 -1.630136	 1.358710	 0.426464
H	 -3.494567	 -1.071357	 0.350256
H	 -3.966316	 0.565333	 0.765861
H	 -2.882881	 -0.327147	 1.816414
C	 2.886820	 -0.232538	 0.000322
H	 3.059106	 0.369571	 -0.880203
H	 3.540187	 -1.091012	 0.000050
H	 3.059019	 0.368956	 0.881266

	symmetry c1
}
set optking {
	frozen_dihedral = ("
		1 2 3 6,
		14 4 2 1
	")
}

ee = energy('scf')
oeprop('DIPOLE', 'QUADRUPOLE', 'MULLIKEN_CHARGES')
f=open( 'psi4out.xyz', 'w' )
f.write( "17  " )
f.write( str(ee) + "\n" )
f.write( MOL.save_string_xyz() )
f.close()
--------------------------------------------------------------------------

    Molecular point group: c1

    Geometry (in Angstrom), charge = 0, multiplicity = 1:

       Center              X                  Y                   Z               Mass
    ------------   -----------------  -----------------  -----------------  -----------------
           O          0.728076973343     1.281262188665    -0.114533023707    15.994914619560
           C          0.554471973343     0.105279188665    -0.114601023707    12.000000000000
           C         -0.788556026657    -0.583206811335    -0.114954023707    12.000000000000
           O          1.546665973343    -0.775750811335    -0.114498023707    15.994914619560
           C         -1.966991026657     0.385960188665    -0.114332023707    12.000000000000
           H         -0.818688026657    -1.237654811335    -0.981960023707     1.007825032070
           H         -0.818631026657    -1.238795811335     0.751193976293     1.007825032070
           C         -3.161631026657    -0.164079811335     0.663393976293    12.000000000000
           H         -2.257228026657     0.597315188665    -1.137901023707     1.007825032070
           H         -1.651913026657     1.332304188665     0.311970976293     1.007825032070
           H         -3.516344026657    -1.097762811335     0.235762976293     1.007825032070
           H         -3.988093026657     0.538927188665     0.651367976293     1.007825032070
           H         -2.904658026657    -0.353552811335     1.701920976293     1.007825032070
           C          2.865042973343    -0.258943811335    -0.114171023707    12.000000000000
           H          3.037328973343     0.343165188665    -0.994696023707     1.007825032070
           H          3.518409973343    -1.117417811335    -0.114443023707     1.007825032070
           H          3.037241973343     0.342550188665     0.766772976293     1.007825032070

  Charge       = 0
  Multiplicity = 1
  Basis Set: 6-31G*
  Basis Set:

    Orbital Energies (a.u.)
    -----------------------

    Doubly Occupied:

       1A    -20.604425     2A    -20.546354     3A    -11.373118
       4A    -11.281330     5A    -11.235105     6A    -11.219252
       7A    -11.213650     8A     -1.470162     9A     -1.363844
      10A     -1.079992    11A     -1.001132    12A     -0.939348
      13A     -0.827369    14A     -0.767081    15A     -0.702345
      16A     -0.682891    17A     -0.672999    18A     -0.633671
      19A     -0.598281    20A     -0.572804    21A     -0.568977
      22A     -0.529440    23A     -0.523649    24A     -0.491929
      25A     -0.487359    26A     -0.475434    27A     -0.457212
      28A     -0.439651

  @DF-RHF Final Energy:  -344.90377228010755

   => Energetics <=

    Nuclear Repulsion Energy =            313.0984973752182441
    One-Electron Energy =               -1090.4870392048208032
    Two-Electron Energy =                 432.4847695494938193
    DFT Exchange-Correlation Energy =       0.0000000000000000
    Empirical Dispersion Energy =           0.0000000000000000
    PCM Polarization Energy =               0.0000000000000000
    EFP Energy =                            0.0000000000000000
    Total Energy =                       -344.9037722801087398

  Mulliken Charges: (a.u.)
   Center  Symbol    Alpha    Beta     Spin     Total
       1     O     4.28483  4.28483  0.00000 -0.56967
       2     C     2.61010  2.61010  0.00000  0.77980
       3     C     3.20801  3.20801  0.00000 -0.41603
       4     O     4.30583  4.30583  0.00000 -0.61166
       5     C     3.15768  3.15768  0.00000 -0.31536
       6     H     0.39862  0.39862  0.00000  0.20275
       7     H     0.39960  0.39960  0.00000  0.20080
       8     C     3.24348  3.24348  0.00000 -0.48696
       9     H     0.41642  0.41642  0.00000  0.16716
      10     H     0.39791  0.39791  0.00000  0.20417
      11     H     0.42206  0.42206  0.00000  0.15587
      12     H     0.41627  0.41627  0.00000  0.16745
      13     H     0.42050  0.42050  0.00000  0.15899
      14     C     3.09236  3.09236  0.00000 -0.18472
      15     H     0.40895  0.40895  0.00000  0.18210
      16     H     0.40835  0.40835  0.00000  0.18331
      17     H     0.40901  0.40901  0.00000  0.18198

   Total alpha = 28.00000, Total beta = 28.00000, Total charge = -0.00000
