  ==> Input File <==

--------------------------------------------------------------------------
set {
	reference rhf
	basis 6-31G*
}

set_num_threads( 1 )
memory 2 gb

molecule MOL {
0 1

H	 -2.499100	 -0.730091	 -0.745082
O	 -2.347518	 -0.290803	 0.079804
C	 -1.184022	 0.487508	 -0.006784
C	 0.062599	 -0.378592	 0.031606
H	 -1.176523	 1.099369	 -0.904519
H	 -1.187323	 1.153111	 0.844927
O	 1.171513	 0.459272	 -0.058250
H	 0.050699	 -1.089204	 -0.797170
H	 0.078739	 -0.954914	 0.954740
C	 1.872232	 0.362908	 -1.257770
H	 1.245393	 0.627998	 -2.107141
H	 2.703305	 1.052575	 -1.206967
H	 2.256935	 -0.642878	 -1.413296

	symmetry c1
}
set optking {
	frozen_dihedral = ("
		8 4 3 5,
		1 2 3 5,
		4 7 10 13
	")
}

ee = energy('scf')
oeprop('DIPOLE', 'QUADRUPOLE', 'MULLIKEN_CHARGES')
f=open( 'psi4out.xyz', 'w' )
f.write( "13  " )
f.write( str(ee) + "\n" )
f.write( MOL.save_string_xyz() )
f.close()
--------------------------------------------------------------------------

    Molecular point group: c1

    Geometry (in Angstrom), charge = 0, multiplicity = 1:

       Center              X                  Y                   Z               Mass
    ------------   -----------------  -----------------  -----------------  -----------------
           H         -2.389744556696    -0.846807044187    -0.483851879680     1.007825032070
           O         -2.238162556696    -0.407519044187     0.341034120320    15.994914619560
           C         -1.074666556696     0.370791955813     0.254446120320    12.000000000000
           C          0.171954443304    -0.495308044187     0.292836120320    12.000000000000
           H         -1.067167556696     0.982652955813    -0.643288879680     1.007825032070
           H         -1.077967556696     1.036394955813     1.106157120320     1.007825032070
           O          1.280868443304     0.342555955813     0.202980120320    15.994914619560
           H          0.160054443304    -1.205920044187    -0.535939879680     1.007825032070
           H          0.188094443304    -1.071630044187     1.215970120320     1.007825032070
           C          1.981587443304     0.246191955813    -0.996539879680    12.000000000000
           H          1.354748443304     0.511281955813    -1.845910879680     1.007825032070
           H          2.812660443304     0.935858955813    -0.945736879680     1.007825032070
           H          2.366290443304    -0.759594044187    -1.152065879680     1.007825032070

  Charge       = 0
  Multiplicity = 1
  Basis Set: 6-31G*
  Basis Set:

    Orbital Energies (a.u.)
    -----------------------

    Doubly Occupied:

       1A    -20.561194     2A    -20.559437     3A    -11.272983
       4A    -11.270669     5A    -11.267737     6A     -1.389675
       7A     -1.364796     8A     -1.016203     9A     -0.920491
      10A     -0.840902    11A     -0.711337    12A     -0.669140
      13A     -0.662233    14A     -0.642302    15A     -0.588416
      16A     -0.575923    17A     -0.545655    18A     -0.491137
      19A     -0.472351    20A     -0.465938    21A     -0.405474

  @DF-RHF Final Energy:  -267.94625943633025

   => Energetics <=

    Nuclear Repulsion Energy =            191.8936570584977801
    One-Electron Energy =                -746.2918246888178828
    Two-Electron Energy =                 286.4519081939895386
    DFT Exchange-Correlation Energy =       0.0000000000000000
    Empirical Dispersion Energy =           0.0000000000000000
    PCM Polarization Energy =               0.0000000000000000
    EFP Energy =                            0.0000000000000000
    Total Energy =                       -267.9462594363305925

  Mulliken Charges: (a.u.)
   Center  Symbol    Alpha    Beta     Spin     Total
       1     H     0.28203  0.28203  0.00000  0.43594
       2     O     4.37077  4.37077  0.00000 -0.74155
       3     C     3.00237  3.00237  0.00000 -0.00475
       4     C     3.00576  3.00576  0.00000 -0.01152
       5     H     0.42856  0.42856  0.00000  0.14288
       6     H     0.40779  0.40779  0.00000  0.18442
       7     O     4.30521  4.30521  0.00000 -0.61042
       8     H     0.43614  0.43614  0.00000  0.12772
       9     H     0.41141  0.41141  0.00000  0.17719
      10     C     3.08161  3.08161  0.00000 -0.16322
      11     H     0.43143  0.43143  0.00000  0.13713
      12     H     0.41029  0.41029  0.00000  0.17941
      13     H     0.42661  0.42661  0.00000  0.14678

   Total alpha = 21.00000, Total beta = 21.00000, Total charge = -0.00000
