  ==> Input File <==

--------------------------------------------------------------------------
set {
	reference rhf
	basis 6-31G*
}

set_num_threads( 1 )
memory 2 gb

molecule MOL {
0 1

H	 -2.322399	 -0.292606	 3.272521
C	 -2.335815	 -0.523717	 2.225110
C	 -1.210634	 -0.564374	 1.549600
H	 -3.281125	 -0.717494	 1.754205
O	 -1.180634	 -0.819263	 0.215062
H	 -0.253058	 -0.380495	 2.003949
C	 0.051604	 -1.018856	 -0.387932
C	 1.043764	 0.054862	 -0.001873
H	 -0.017620	 -1.041351	 -1.469781
H	 0.437898	 -1.966374	 -0.042284
F	 2.212596	 -0.199467	 -0.571921
F	 0.652529	 1.252447	 -0.405055
F	 1.230877	 0.110694	 1.300533

	symmetry c1
}
set optking {
	frozen_dihedral = ("
		11 8 7 9,
		6 3 2 1,
		6 3 5 7
	")
}

ee = energy('scf')
oeprop('DIPOLE', 'QUADRUPOLE', 'MULLIKEN_CHARGES')
f=open( 'psi4out.xyz', 'w' )
f.write( "13  " )
f.write( str(ee) + "\n" )
f.write( MOL.save_string_xyz() )
f.close()
--------------------------------------------------------------------------

    Molecular point group: c1

    Geometry (in Angstrom), charge = 0, multiplicity = 1:

       Center              X                  Y                   Z               Mass
    ------------   -----------------  -----------------  -----------------  -----------------
           H         -2.513160608331    -0.133485391531     2.830023577992     1.007825032070
           C         -2.526576608331    -0.364596391531     1.782612577992    12.000000000000
           C         -1.401395608331    -0.405253391531     1.107102577992    12.000000000000
           H         -3.471886608331    -0.558373391531     1.311707577992     1.007825032070
           O         -1.371395608331    -0.660142391531    -0.227435422008    15.994914619560
           H         -0.443819608331    -0.221374391531     1.561451577992     1.007825032070
           C         -0.139157608331    -0.859735391531    -0.830429422008    12.000000000000
           C          0.853002391669     0.213982608469    -0.444370422008    12.000000000000
           H         -0.208381608331    -0.882230391531    -1.912278422008     1.007825032070
           H          0.247136391669    -1.807253391531    -0.484781422008     1.007825032070
           F          2.021834391669    -0.040346391531    -1.014418422008    18.998403224000
           F          0.461767391669     1.411567608469    -0.847552422008    18.998403224000
           F          1.040115391669     0.269814608469     0.858035577992    18.998403224000

  Charge       = 0
  Multiplicity = 1
  Basis Set: 6-31G*
  Basis Set:

    Orbital Energies (a.u.)
    -----------------------

    Doubly Occupied:

       1A    -26.360914     2A    -26.351459     3A    -26.347171
       4A    -20.602369     5A    -11.512811     6A    -11.320085
       7A    -11.283602     8A    -11.208578     9A     -1.754667
      10A     -1.657453    11A     -1.644522    12A     -1.434713
      13A     -1.083107    14A     -1.014947    15A     -0.935870
      16A     -0.851843    17A     -0.844271    18A     -0.837294
      19A     -0.770370    20A     -0.734172    21A     -0.716942
      22A     -0.707527    23A     -0.681250    24A     -0.662680
      25A     -0.661336    26A     -0.653923    27A     -0.639905
      28A     -0.586715    29A     -0.556821    30A     -0.523133
      31A     -0.492388    32A     -0.344684

  @DF-RHF Final Energy:  -527.51560146559871

   => Energetics <=

    Nuclear Repulsion Energy =            420.6501914451190487
    One-Electron Energy =               -1564.7765362965035365
    Two-Electron Energy =                 616.6107433857869182
    DFT Exchange-Correlation Energy =       0.0000000000000000
    Empirical Dispersion Energy =           0.0000000000000000
    PCM Polarization Energy =               0.0000000000000000
    EFP Energy =                            0.0000000000000000
    Total Energy =                       -527.5156014655976833

  Mulliken Charges: (a.u.)
   Center  Symbol    Alpha    Beta     Spin     Total
       1     H     0.40842  0.40842  0.00000  0.18317
       2     C     3.23876  3.23876  0.00000 -0.47752
       3     C     2.92229  2.92229  0.00000  0.15542
       4     H     0.40571  0.40571  0.00000  0.18857
       5     O     4.30914  4.30914  0.00000 -0.61827
       6     H     0.37256  0.37256  0.00000  0.25488
       7     C     3.04926  3.04926  0.00000 -0.09852
       8     C     2.46706  2.46706  0.00000  1.06589
       9     H     0.38796  0.38796  0.00000  0.22409
      10     H     0.40455  0.40455  0.00000  0.19089
      11     F     4.68173  4.68173  0.00000 -0.36346
      12     F     4.67607  4.67607  0.00000 -0.35213
      13     F     4.67650  4.67650  0.00000 -0.35300

   Total alpha = 32.00000, Total beta = 32.00000, Total charge =  0.00000
