  ==> Input File <==

--------------------------------------------------------------------------
set {
	reference rhf
	basis 6-31G*
}

set_num_threads( 4 )
memory 2 gb

molecule MOL {
0 1

H	 1.206855	 -2.314598	 -0.000203
C	 0.235364	 -1.847414	 -0.000327
O	 0.464886	 -0.454746	 -0.000158
H	 -0.308778	 -2.152563	 0.885573
H	 -0.308510	 -2.152443	 -0.886453
C	 -0.590998	 0.343045	 0.000118
O	 -1.699443	 -0.054298	 0.000227
H	 -0.340329	 1.404368	 0.000207

	symmetry c1
}
set optking {
	frozen_dihedral = ("
		2 3 6 7
	")
}

ee = optimize('scf')
oeprop('DIPOLE', 'QUADRUPOLE', 'MULLIKEN_CHARGES')
f=open( 'psi4out.xyz', 'w' )
f.write( "8  " )
f.write( str(ee) + "\n" )
f.write( MOL.save_string_xyz() )
f.close()
--------------------------------------------------------------------------

    Molecular point group: c1
  Charge       = 0
  Multiplicity = 1
  Basis Set: 6-31G*
  Basis Set:
  @DF-RHF Final Energy:  -227.78786975888119
    Total Energy =                       -227.7878697588811860
    Molecular point group: c1
  Basis Set: 6-31G*
  Basis Set:
  Basis Set: 6-31G*
  Basis Set:
  @DF-RHF Final Energy:  -227.78882666628505
    Total Energy =                       -227.7888266662849901
  Basis Set: 6-31G*
  Basis Set:
  Basis Set: 6-31G*
  Basis Set:
  @DF-RHF Final Energy:  -227.78904570499384
    Total Energy =                       -227.7890457049938959
  Basis Set: 6-31G*
  Basis Set:
  Basis Set: 6-31G*
  Basis Set:
  @DF-RHF Final Energy:  -227.78904780156918
    Total Energy =                       -227.7890478015690974
  Basis Set: 6-31G*
  Basis Set:
  Basis Set: 6-31G*
  Basis Set:
  @DF-RHF Final Energy:  -227.78902949892722
    Total Energy =                       -227.7890294989271638
  Basis Set: 6-31G*
  Basis Set:
  Charge       = 0
  Multiplicity = 1
  Basis Set: 6-31G*
  Basis Set:

    Orbital Energies (a.u.)
    -----------------------

    Doubly Occupied:

       1A    -20.617261     2A    -20.559692     3A    -11.380541
       4A    -11.289000     5A     -1.479794     6A     -1.376543
       7A     -0.998087     8A     -0.819030     9A     -0.745167
      10A     -0.681248    11A     -0.680334    12A     -0.600159
      13A     -0.557874    14A     -0.533722    15A     -0.465351
      16A     -0.458852

  @DF-RHF Final Energy:  -227.78905025747761

   => Energetics <=

    Nuclear Repulsion Energy =            123.7958646213193958
    One-Electron Energy =                -556.6845205431166050
    Two-Electron Energy =                 205.0996056643195971
    DFT Exchange-Correlation Energy =       0.0000000000000000
    Empirical Dispersion Energy =           0.0000000000000000
    PCM Polarization Energy =               0.0000000000000000
    EFP Energy =                            0.0000000000000000
    Total Energy =                       -227.7890502574775837
    Molecular point group: c1
  Basis Set: 6-31G*
  Basis Set:

  -Total Gradient:
     Atom            X                  Y                   Z
    ------   -----------------  -----------------  -----------------
       1       -0.000007959265     0.000013400086     0.000000000418
       2        0.000036233300     0.000008883886     0.000003030319
       3        0.000031181491    -0.000071448374     0.000004821385
       4       -0.000007209502     0.000006317428     0.000008458345
       5       -0.000007538874     0.000007722459    -0.000008854395
       6       -0.000087011727    -0.000021590493    -0.000028084340
       7        0.000063737132     0.000048093073     0.000009508612
       8       -0.000021432556     0.000008621934     0.000011119657

  **** Optimization is complete! (in 6 steps) ****
    Final optimized geometry and variables:
    Molecular point group: c1

    Geometry (in Angstrom), charge = 0, multiplicity = 1:

    H            1.622503270085    -1.778269831500    -0.000259066916
    C            0.644499757214    -1.324459230844    -0.000183313467
    O            0.867619242744     0.077069307033     0.000009882007
    H            0.093375231811    -1.618364003942     0.881313402053
    H            0.093354048871    -1.618113893989    -0.881749990210
    C           -0.198822746890     0.849114432188     0.000113645995
    O           -1.322090449739     0.476282768503     0.000058373467
    H            0.096955495684     1.892497816246     0.000441909812

  Mulliken Charges: (a.u.)
   Center  Symbol    Alpha    Beta     Spin     Total
       1     H     0.40589  0.40589  0.00000  0.18823
       2     C     3.09601  3.09601  0.00000 -0.19201
       3     O     4.28434  4.28434  0.00000 -0.56868
       4     H     0.40663  0.40663  0.00000  0.18673
       5     H     0.40663  0.40663  0.00000  0.18674
       6     C     2.72910  2.72910  0.00000  0.54180
       7     O     4.26190  4.26190  0.00000 -0.52380
       8     H     0.40950  0.40950  0.00000  0.18100

   Total alpha = 16.00000, Total beta = 16.00000, Total charge =  0.00000
