  ==> Input File <==

--------------------------------------------------------------------------
set {
	reference rhf
	basis 6-31G*
}

set_num_threads( 1 )
memory 2 gb

molecule MOL {
0 1

H	 -3.135461	 -1.215070	 0.001379
O	 -2.310168	 -0.871793	 -0.309793
C	 -2.026376	 0.340750	 0.341611
C	 -0.673256	 0.843270	 -0.132153
H	 -2.792215	 1.080697	 0.115987
H	 -2.013526	 0.200402	 1.421792
C	 0.486613	 -0.083066	 0.235839
H	 -0.715586	 0.970948	 -1.210718
H	 -0.508072	 1.829858	 0.297090
C	 0.793056	 -1.114939	 -0.850966
H	 0.254561	 -0.591121	 1.166186
H	 1.377506	 0.515251	 0.423367
C	 1.955944	 -2.036880	 -0.485742
H	 -0.095694	 -1.713772	 -1.038690
H	 1.018509	 -0.603244	 -1.784659
H	 1.745760	 -2.588980	 0.425795
H	 2.148955	 -2.759080	 -1.273219
H	 2.869396	 -1.470983	 -0.324883

	symmetry c1
}
set optking {
	frozen_dihedral = ("
		14 10 7 11,
		2 3 4 8,
		1 2 3 4
	")
}

ee = energy('scf')
oeprop('DIPOLE', 'QUADRUPOLE', 'MULLIKEN_CHARGES')
f=open( 'psi4out.xyz', 'w' )
f.write( "18  " )
f.write( str(ee) + "\n" )
f.write( MOL.save_string_xyz() )
f.close()
--------------------------------------------------------------------------

    Molecular point group: c1

    Geometry (in Angstrom), charge = 0, multiplicity = 1:

       Center              X                  Y                   Z               Mass
    ------------   -----------------  -----------------  -----------------  -----------------
           H         -2.790765378659    -0.704796599651     0.199435366460     1.007825032070
           O         -1.965472378659    -0.361519599651    -0.111736633540    15.994914619560
           C         -1.681680378659     0.851023400349     0.539667366460    12.000000000000
           C         -0.328560378659     1.353543400349     0.065903366460    12.000000000000
           H         -2.447519378659     1.590970400349     0.314043366460     1.007825032070
           H         -1.668830378659     0.710675400349     1.619848366460     1.007825032070
           C          0.831308621341     0.427207400349     0.433895366460    12.000000000000
           H         -0.370890378659     1.481221400349    -1.012661633540     1.007825032070
           H         -0.163376378659     2.340131400349     0.495146366460     1.007825032070
           C          1.137751621341    -0.604665599651    -0.652909633540    12.000000000000
           H          0.599256621341    -0.080847599651     1.364242366460     1.007825032070
           H          1.722201621341     1.025524400349     0.621423366460     1.007825032070
           C          2.300639621341    -1.526606599651    -0.287685633540    12.000000000000
           H          0.249001621341    -1.203498599651    -0.840633633540     1.007825032070
           H          1.363204621341    -0.092970599651    -1.586602633540     1.007825032070
           H          2.090455621341    -2.078706599651     0.623851366460     1.007825032070
           H          2.493650621341    -2.248806599651    -1.075162633540     1.007825032070
           H          3.214091621341    -0.960709599651    -0.126826633540     1.007825032070

  Charge       = 0
  Multiplicity = 1
  Basis Set: 6-31G*
  Basis Set:

    Orbital Energies (a.u.)
    -----------------------

    Doubly Occupied:

       1A    -20.555271     2A    -11.268848     3A    -11.211492
       4A    -11.206655     5A    -11.200071     6A    -11.198638
       7A     -1.362103     8A     -1.072184     9A     -1.004862
      10A     -0.911318    11A     -0.818839    12A     -0.778197
      13A     -0.705321    14A     -0.647638    15A     -0.614626
      16A     -0.576127    17A     -0.568983    18A     -0.556815
      19A     -0.524336    20A     -0.503645    21A     -0.485069
      22A     -0.462138    23A     -0.449792    24A     -0.445450
      25A     -0.427666

  @DF-RHF Final Energy:  -271.17623607430835

   => Energetics <=

    Nuclear Repulsion Energy =            255.0530272615663705
    One-Electron Energy =                -873.3461397122981680
    Two-Electron Energy =                 347.1168763764233063
    DFT Exchange-Correlation Energy =       0.0000000000000000
    Empirical Dispersion Energy =           0.0000000000000000
    PCM Polarization Energy =               0.0000000000000000
    EFP Energy =                            0.0000000000000000
    Total Energy =                       -271.1762360743084628

  Mulliken Charges: (a.u.)
   Center  Symbol    Alpha    Beta     Spin     Total
       1     H     0.28042  0.28042  0.00000  0.43916
       2     O     4.36880  4.36880  0.00000 -0.73761
       3     C     2.99745  2.99745  0.00000  0.00509
       4     C     3.16414  3.16414  0.00000 -0.32827
       5     H     0.42967  0.42967  0.00000  0.14066
       6     H     0.43210  0.43210  0.00000  0.13580
       7     C     3.15154  3.15154  0.00000 -0.30309
       8     H     0.41366  0.41366  0.00000  0.17268
       9     H     0.42129  0.42129  0.00000  0.15741
      10     C     3.15581  3.15581  0.00000 -0.31163
      11     H     0.42277  0.42277  0.00000  0.15447
      12     H     0.42375  0.42375  0.00000  0.15249
      13     C     3.23970  3.23970  0.00000 -0.47940
      14     H     0.40221  0.40221  0.00000  0.19557
      15     H     0.42690  0.42690  0.00000  0.14620
      16     H     0.42354  0.42354  0.00000  0.15292
      17     H     0.42101  0.42101  0.00000  0.15799
      18     H     0.42523  0.42523  0.00000  0.14954

   Total alpha = 25.00000, Total beta = 25.00000, Total charge =  0.00000
