  ==> Input File <==

--------------------------------------------------------------------------
set {
	reference rhf
	basis 6-31G*
}

set_num_threads( 4 )
memory 2 gb

molecule MOL {
0 1

O	 -2.324811	 1.361668	 -0.277141
C	 -2.105949	 0.203097	 -0.092081
C	 -0.889235	 -0.467034	 -0.705952
C	 -3.002726	 -0.644460	 0.782455
C	 0.030471	 -1.038720	 0.385130
H	 -0.352159	 0.284045	 -1.274927
H	 -1.191198	 -1.256530	 -1.388257
C	 1.284766	 -1.693335	 -0.198682
H	 0.298742	 -0.232097	 1.058016
H	 -0.514721	 -1.773006	 0.976176
C	 2.203773	 -2.342142	 0.842727
H	 1.847453	 -0.950496	 -0.761087
H	 0.982161	 -2.453791	 -0.915609
C	 2.860789	 -1.356627	 1.810759
H	 2.983164	 -2.888418	 0.317539
H	 1.641260	 -3.083866	 1.406209
H	 3.421811	 -0.597011	 1.273206
H	 3.551644	 -1.870432	 2.471912
H	 2.131342	 -0.850008	 2.433683
H	 -3.496582	 -1.399307	 0.176174
H	 -3.747939	 -0.023774	 1.260148
H	 -2.421318	 -1.168775	 1.535358

	symmetry c1
}
set optking {
	frozen_dihedral = ("
		6 3 2 1
	")
}

ee = optimize('scf')
oeprop('DIPOLE', 'QUADRUPOLE', 'MULLIKEN_CHARGES')
f=open( 'psi4out.xyz', 'w' )
f.write( "22  " )
f.write( str(ee) + "\n" )
f.write( MOL.save_string_xyz() )
f.close()
--------------------------------------------------------------------------

    Molecular point group: c1
  Charge       = 0
  Multiplicity = 1
  Basis Set: 6-31G*
  Basis Set:
  @DF-RHF Final Energy:  -348.09603122723178
    Total Energy =                       -348.0960312272317765
    Molecular point group: c1
  Basis Set: 6-31G*
  Basis Set:
  Basis Set: 6-31G*
  Basis Set:
  @DF-RHF Final Energy:  -348.09580744295340
    Total Energy =                       -348.0958074429535714
  Basis Set: 6-31G*
  Basis Set:
  Basis Set: 6-31G*
  Basis Set:
  @DF-RHF Final Energy:  -348.09669032834807
    Total Energy =                       -348.0966903283484726
  Basis Set: 6-31G*
  Basis Set:
  Basis Set: 6-31G*
  Basis Set:
  @DF-RHF Final Energy:  -348.09741594637791
    Total Energy =                       -348.0974159463779074
  Basis Set: 6-31G*
  Basis Set:
  @DF-RHF Final Energy:  -348.09743772471950
    Total Energy =                       -348.0974377247193274
  @DF-RHF Final Energy:  -348.09762746140592
    Total Energy =                       -348.0976274614060912
  @DF-RHF Final Energy:  -348.09763373905918
    Total Energy =                       -348.0976337390586650
  @DF-RHF Final Energy:  -348.09776609187446
    Total Energy =                       -348.0977660918740071
  Basis Set: 6-31G*
  Basis Set:
  @DF-RHF Final Energy:  -348.09779262730694
    Total Energy =                       -348.0977926273066601
  Basis Set: 6-31G*
  Basis Set:
  Basis Set: 6-31G*
  Basis Set:
  @DF-RHF Final Energy:  -348.09777823863078
    Total Energy =                       -348.0977782386307808
  Basis Set: 6-31G*
  Basis Set:
  Basis Set: 6-31G*
  Basis Set:
  @DF-RHF Final Energy:  -348.09779474360784
    Total Energy =                       -348.0977947436076647
  Basis Set: 6-31G*
  Basis Set:
  Charge       = 0
  Multiplicity = 1
  Basis Set: 6-31G*
  Basis Set:

    Orbital Energies (a.u.)
    -----------------------

    Doubly Occupied:

       1A    -20.547709     2A    -11.324231     3A    -11.232525
       4A    -11.229661     5A    -11.227327     6A    -11.224709
       7A    -11.222950     8A    -11.214045     9A     -1.392951
      10A     -1.098788    11A     -1.046001    12A     -0.996597
      13A     -0.940204    14A     -0.862253    15A     -0.789080
      16A     -0.732759    17A     -0.662859    18A     -0.644402
      19A     -0.631677    20A     -0.617043    21A     -0.602269
      22A     -0.585108    23A     -0.559446    24A     -0.539725
      25A     -0.533041    26A     -0.526506    27A     -0.497113
      28A     -0.488822    29A     -0.472877    30A     -0.468607
      31A     -0.463887    32A     -0.396341

  @DF-RHF Final Energy:  -348.09779554271751

   => Energetics <=

    Nuclear Repulsion Energy =            372.8163128786683842
    One-Electron Energy =               -1210.2851879684201322
    Two-Electron Energy =                 489.3710795470343555
    DFT Exchange-Correlation Energy =       0.0000000000000000
    Empirical Dispersion Energy =           0.0000000000000000
    PCM Polarization Energy =               0.0000000000000000
    EFP Energy =                            0.0000000000000000
    Total Energy =                       -348.0977955427173356
    Molecular point group: c1
  Basis Set: 6-31G*
  Basis Set:

  -Total Gradient:
     Atom            X                  Y                   Z
    ------   -----------------  -----------------  -----------------
       1       -0.000138395958    -0.000053854577    -0.000221993848
       2        0.000253800654     0.000095941416     0.000361647737
       3       -0.000252419963    -0.000153013298    -0.000408914636
       4       -0.000006222499    -0.000009940986    -0.000020765807
       5        0.000024261583     0.000030815828     0.000014979352
       6        0.000128051507     0.000080417113     0.000226298453
       7       -0.000024823103     0.000011719332    -0.000005089020
       8       -0.000009929678     0.000017220828     0.000008596520
       9        0.000010082036    -0.000010040476     0.000009306948
      10        0.000024566478    -0.000006751478    -0.000001221305
      11       -0.000009897240    -0.000018906429     0.000015042359
      12       -0.000005185705     0.000004059511     0.000005808862
      13       -0.000010045122     0.000007767777    -0.000003006301
      14        0.000004113816     0.000002675047     0.000004696268
      15       -0.000002602745     0.000003271691    -0.000001995146
      16        0.000008036092    -0.000008705016     0.000003374485
      17        0.000007686649     0.000001529394     0.000001805786
      18       -0.000003453159     0.000000646018     0.000001953319
      19        0.000006093379    -0.000001383954    -0.000005111806
      20       -0.000007629171     0.000001174047     0.000004103756
      21        0.000004182237    -0.000000691086    -0.000002867828
      22       -0.000000270088     0.000006049298     0.000013351851

  **** Optimization is complete! (in 12 steps) ****
    Final optimized geometry and variables:
    Molecular point group: c1

    Geometry (in Angstrom), charge = 0, multiplicity = 1:

    O           -2.113014215081     2.100985660520    -0.668896231077
    C           -1.878914746974     0.956542003359    -0.424488027099
    C           -0.651090310788     0.266214053760    -0.989677504900
    C           -2.803358006825     0.144257095122     0.460214160921
    C            0.282112700647    -0.320428567828     0.079763101600
    H           -0.123945058139     0.997952510483    -1.589829166483
    H           -0.984647081883    -0.529833689448    -1.653490439598
    C            1.548162093726    -0.922781449752    -0.535534204999
    H            0.547084972636     0.462291109857     0.785056257700
    H           -0.237508453958    -1.089210386798     0.646555196021
    C            2.481689365428    -1.605240865579     0.470620757123
    H            2.095516274830    -0.144319581721    -1.063389129842
    H            1.255755436042    -1.652699598687    -1.287590234042
    C            3.119721014768    -0.658622975498     1.488971340773
    H            3.271786971744    -2.106539228200    -0.082532041871
    H            1.936230130153    -2.387403930082     0.994827152825
    H            3.662509807086     0.140789480684     0.992044673748
    H            3.823342751284    -1.191677708924     2.120662928825
    H            2.381229515805    -0.202262730499     2.139782258311
    H           -2.964880859553    -0.851434367932     0.059934883983
    H           -3.748386614020     0.660102321020     0.559709974293
    H           -2.363380708820     0.031414924051     1.446922874958

  Mulliken Charges: (a.u.)
   Center  Symbol    Alpha    Beta     Spin     Total
       1     O     4.26101  4.26101  0.00000 -0.52201
       2     C     2.73315  2.73315  0.00000  0.53370
       3     C     3.20495  3.20495  0.00000 -0.40991
       4     C     3.29033  3.29033  0.00000 -0.58066
       5     C     3.16683  3.16683  0.00000 -0.33365
       6     H     0.39921  0.39921  0.00000  0.20158
       7     H     0.41226  0.41226  0.00000  0.17547
       8     C     3.15261  3.15261  0.00000 -0.30523
       9     H     0.41219  0.41219  0.00000  0.17562
      10     H     0.41934  0.41934  0.00000  0.16132
      11     C     3.15339  3.15339  0.00000 -0.30678
      12     H     0.41955  0.41955  0.00000  0.16091
      13     H     0.42078  0.42078  0.00000  0.15844
      14     C     3.24188  3.24188  0.00000 -0.48377
      15     H     0.41878  0.41878  0.00000  0.16245
      16     H     0.42297  0.42297  0.00000  0.15405
      17     H     0.42035  0.42035  0.00000  0.15929
      18     H     0.41766  0.41766  0.00000  0.16469
      19     H     0.42019  0.42019  0.00000  0.15961
      20     H     0.41207  0.41207  0.00000  0.17586
      21     H     0.39615  0.39615  0.00000  0.20769
      22     H     0.40434  0.40434  0.00000  0.19132

   Total alpha = 32.00000, Total beta = 32.00000, Total charge =  0.00000
