  ==> Input File <==

--------------------------------------------------------------------------
set {
	reference rhf
	basis 6-31G*
}

set_num_threads( 1 )
memory 2 gb

molecule MOL {
0 1

H	 -3.407059	 -1.043082	 0.000000
O	 -3.119761	 -0.140267	 0.000000
C	 -1.777559	 -0.059267	 0.000000
C	 -1.108397	 1.161071	 -0.000000
C	 -1.065958	 -1.252452	 0.000000
H	 -1.667498	 2.081243	 -0.000000
C	 0.270489	 1.183266	 -0.000000
H	 -1.604818	 -2.180838	 0.000000
C	 0.312790	 -1.213867	 -0.000000
H	 0.799760	 2.117595	 -0.000000
C	 0.997528	 -0.002769	 0.000000
H	 0.864714	 -2.138228	 -0.000000
C	 2.473455	 0.022756	 0.000000
O	 3.135595	 1.013881	 -0.000000
H	 2.952367	 -0.962033	 -0.000000

	symmetry c1
}
set optking {
	frozen_dihedral = ("
		7 11 13 14
	")
}

ee = energy('scf')
oeprop('DIPOLE', 'QUADRUPOLE', 'MULLIKEN_CHARGES')
f=open( 'psi4out.xyz', 'w' )
f.write( "15  " )
f.write( str(ee) + "\n" )
f.write( MOL.save_string_xyz() )
f.close()
--------------------------------------------------------------------------

    Molecular point group: c1

    Geometry (in Angstrom), charge = 0, multiplicity = 1:

       Center              X                  Y                   Z               Mass
    ------------   -----------------  -----------------  -----------------  -----------------
           H         -3.402165115391    -1.124174466627     0.000000000000     1.007825032070
           O         -3.114867115391    -0.221359466627     0.000000000000    15.994914619560
           C         -1.772665115391    -0.140359466627     0.000000000000    12.000000000000
           C         -1.103503115391     1.079978533373     0.000000000000    12.000000000000
           C         -1.061064115391    -1.333544466627     0.000000000000    12.000000000000
           H         -1.662604115391     2.000150533373     0.000000000000     1.007825032070
           C          0.275382884609     1.102173533373     0.000000000000    12.000000000000
           H         -1.599924115391    -2.261930466627     0.000000000000     1.007825032070
           C          0.317683884609    -1.294959466627     0.000000000000    12.000000000000
           H          0.804653884609     2.036502533373     0.000000000000     1.007825032070
           C          1.002421884609    -0.083861466627     0.000000000000    12.000000000000
           H          0.869607884609    -2.219320466627     0.000000000000     1.007825032070
           C          2.478348884609    -0.058336466627     0.000000000000    12.000000000000
           O          3.140488884609     0.932788533373     0.000000000000    15.994914619560
           H          2.957260884609    -1.043125466627     0.000000000000     1.007825032070

  Charge       = 0
  Multiplicity = 1
  Basis Set: 6-31G*
  Basis Set:

    Orbital Energies (a.u.)
    -----------------------

    Doubly Occupied:

       1A    -20.609719     2A    -20.556099     3A    -11.328358
       4A    -11.325062     5A    -11.263531     6A    -11.255750
       7A    -11.244122     8A    -11.240882     9A    -11.239215
      10A     -1.432157    11A     -1.397317    12A     -1.171243
      13A     -1.042902    14A     -1.038145    15A     -0.893499
      16A     -0.859296    17A     -0.804481    18A     -0.757301
      19A     -0.697708    20A     -0.687192    21A     -0.638879
      22A     -0.626171    23A     -0.611255    24A     -0.608084
      25A     -0.583536    26A     -0.554475    27A     -0.549606
      28A     -0.506560    29A     -0.484137    30A     -0.418768
      31A     -0.358486    32A     -0.327215

  @DF-RHF Final Energy:  -418.28763063407189

   => Energetics <=

    Nuclear Repulsion Energy =            401.4356195914701857
    One-Electron Energy =               -1365.2242292087712485
    Two-Electron Energy =                 545.5009789832295155
    DFT Exchange-Correlation Energy =       0.0000000000000000
    Empirical Dispersion Energy =           0.0000000000000000
    PCM Polarization Energy =               0.0000000000000000
    EFP Energy =                            0.0000000000000000
    Total Energy =                       -418.2876306340715473

  Mulliken Charges: (a.u.)
   Center  Symbol    Alpha    Beta     Spin     Total
       1     H     0.26682  0.26682  0.00000  0.46635
       2     O     4.37579  4.37579  0.00000 -0.75158
       3     C     2.77493  2.77493  0.00000  0.45015
       4     C     3.12966  3.12966  0.00000 -0.25931
       5     C     3.15453  3.15453  0.00000 -0.30907
       6     H     0.38623  0.38623  0.00000  0.22755
       7     C     3.07804  3.07804  0.00000 -0.15609
       8     H     0.39972  0.39972  0.00000  0.20056
       9     C     3.09096  3.09096  0.00000 -0.18193
      10     H     0.37356  0.37356  0.00000  0.25288
      11     C     3.06932  3.06932  0.00000 -0.13864
      12     H     0.39046  0.39046  0.00000  0.21908
      13     C     2.83024  2.83024  0.00000  0.33952
      14     O     4.25431  4.25431  0.00000 -0.50862
      15     H     0.42542  0.42542  0.00000  0.14915

   Total alpha = 32.00000, Total beta = 32.00000, Total charge =  0.00000
