                              Psi4 1.0.54 Driver

  ==> Input File <==

--------------------------------------------------------------------------
set {
	reference rhf
	basis cc-pvtz
}

set_num_threads( 4 )
memory 2 gb

molecule MOL {
0 1

H	 1.097818	 -0.601522	 -0.237622
C	 0.848385	 0.440008	 0.000011
C	 -0.623497	 0.751021	 0.000090
O	 1.707242	 1.218716	 0.230711
C	 -1.523725	 -0.474323	 -0.000013
H	 -0.813143	 1.382932	 -0.864897
H	 -0.813071	 1.382716	 0.865253
H	 -1.342980	 -1.087348	 -0.873016
H	 -2.565269	 -0.177464	 0.000070
H	 -1.342898	 -1.087564	 0.872820

	symmetry c1
}
set optking {
	frozen_dihedral = ("
		4 2 3 6
	")
}

ee,wfn = optimize('scf', return_wfn=True)
oeprop( wfn, 'DIPOLE', 'QUADRUPOLE', 'MULLIKEN_CHARGES')
f=open( 'psi4out.xyz', 'w' )
f.write( "10  " )
f.write( str(ee) + "\n" )
f.write( MOL.save_string_xyz() )
f.close()
--------------------------------------------------------------------------

    Molecular point group: c1
  Charge       = 0
  Multiplicity = 1
  Basis Set: CC-PVTZ
  Basis Set:
  @DF-RHF Final Energy:  -192.02191165412242
    Total Energy =                       -192.0219116541223627
    Molecular point group: c1
  Basis Set: CC-PVTZ
  Basis Set:
  Basis Set: CC-PVTZ
  Basis Set:
  @DF-RHF Final Energy:  -192.02171756309968
    Total Energy =                       -192.0217175630996849
  Basis Set: CC-PVTZ
  Basis Set:
  Basis Set: CC-PVTZ
  Basis Set:
  @DF-RHF Final Energy:  -192.02186590328483
    Total Energy =                       -192.0218659032848905
  Basis Set: CC-PVTZ
  Basis Set:
  Basis Set: CC-PVTZ
  Basis Set:
  @DF-RHF Final Energy:  -192.02215913548588
    Total Energy =                       -192.0221591354859356
  Basis Set: CC-PVTZ
  Basis Set:
  Charge       = 0
  Multiplicity = 1
  Basis Set: CC-PVTZ
  Basis Set:

    Orbital Energies (a.u.)
    -----------------------

    Doubly Occupied:

       1A    -20.552776     2A    -11.323817     3A    -11.238259
       4A    -11.230334     5A     -1.408740     6A     -1.067628
       7A     -0.902911     8A     -0.798797     9A     -0.663698
      10A     -0.643430    11A     -0.637158    12A     -0.555382
      13A     -0.547095    14A     -0.526269    15A     -0.492371
      16A     -0.415130

  @DF-RHF Final Energy:  -192.02216020766690

   => Energetics <=

    Nuclear Repulsion Energy =            117.1375457551855988
    One-Electron Energy =                -492.3118185663046802
    Two-Electron Energy =                 183.1521126034521387
    DFT Exchange-Correlation Energy =       0.0000000000000000
    Empirical Dispersion Energy =           0.0000000000000000
    PCM Polarization Energy =               0.0000000000000000
    EFP Energy =                            0.0000000000000000
    Total Energy =                       -192.0221602076669285
    Molecular point group: c1
  Basis Set: CC-PVTZ
  Basis Set:

  -Total Gradient:
     Atom            X                  Y                   Z
    ------   -----------------  -----------------  -----------------
       1       -0.000040373364    -0.000042336431    -0.000007825161
       2        0.000004102942    -0.000084283759     0.001155012494
       3       -0.000088366569    -0.000666018748    -0.000800672784
       4       -0.000015472868     0.000187760358    -0.000744564802
       5        0.000004591398    -0.000011548003     0.000024786506
       6        0.000156227939     0.000620414802     0.000383637560
       7       -0.000019716545    -0.000010855590    -0.000015706579
       8        0.000006365022     0.000012782278     0.000004248049
       9       -0.000002272299     0.000004151856    -0.000000359798
      10       -0.000005085657    -0.000010066762     0.000001444517

  **** Optimization is complete! (in 5 steps) ****
    Final optimized geometry and variables:
    Molecular point group: c1

    Geometry (in Angstrom), charge = 0, multiplicity = 1:

    H            0.986357203256    -1.106406763880    -0.319428192049
    C            0.748165715469    -0.064226984693    -0.068895653720
    C           -0.720156758320     0.290536832004    -0.036146756182
    O            1.617489676939     0.708713818847     0.137707002128
    C           -1.642434153182    -0.921834980017    -0.036660293819
    H           -0.907757264313     0.919155976507    -0.901615510192
    H           -0.884951725951     0.915595719140     0.833184514278
    H           -1.488597907717    -1.533755023626    -0.918638419121
    H           -2.680115661638    -0.614826749552    -0.025550194129
    H           -1.472985368198    -1.546067164314     0.833767563146

  Mulliken Charges: (a.u.)
   Center  Symbol    Alpha    Beta     Spin     Total
       1     H     0.46347  0.46347  0.00000  0.07306
       2     C     2.90565  2.90565  0.00000  0.18871
       3     C     3.08250  3.08250  0.00000 -0.16501
       4     O     4.16507  4.16507  0.00000 -0.33014
       5     C     3.15408  3.15408  0.00000 -0.30816
       6     H     0.44224  0.44224  0.00000  0.11552
       7     H     0.43925  0.43925  0.00000  0.12149
       8     H     0.45298  0.45298  0.00000  0.09405
       9     H     0.44419  0.44419  0.00000  0.11162
      10     H     0.45057  0.45057  0.00000  0.09887

   Total alpha = 16.00000, Total beta = 16.00000, Total charge =  0.00000

*** Psi4 exiting successfully. Buy a developer a beer!
