                              Psi4 1.0.54 Driver

  ==> Input File <==

--------------------------------------------------------------------------
set {
	reference rhf
	basis cc-pvtz
}

set_num_threads( 4 )
memory 2 gb

molecule MOL {
0 1

O	 -2.081319	 -0.951530	 -0.502732
N	 -1.613558	 0.006676	 0.014756
C	 -0.329345	 -0.171618	 0.743966
O	 -2.068523	 1.100482	 -0.024385
C	 -0.612728	 -0.529054	 2.197589
H	 0.195967	 0.764792	 0.656770
H	 0.197555	 -0.959757	 0.232649
C	 0.680572	 -0.723363	 2.984853
H	 -1.204163	 0.261028	 2.645399
H	 -1.204814	 -1.436391	 2.227778
C	 0.424970	 -1.089362	 4.442657
H	 1.271377	 0.186731	 2.938842
H	 1.275234	 -1.501636	 2.515730
H	 -0.139585	 -0.313204	 4.947190
H	 -0.137682	 -2.012958	 4.520817
H	 1.357347	 -1.222498	 4.977549

	symmetry c1
}
set optking {
	frozen_dihedral = ("
		5 3 2 1
	")
}

ee,wfn = optimize('scf', return_wfn=True)
oeprop( wfn, 'DIPOLE', 'QUADRUPOLE', 'MULLIKEN_CHARGES')
f=open( 'psi4out.xyz', 'w' )
f.write( "16  " )
f.write( str(ee) + "\n" )
f.write( MOL.save_string_xyz() )
f.close()
--------------------------------------------------------------------------

    Molecular point group: c1
  Charge       = 0
  Multiplicity = 1
  Basis Set: CC-PVTZ
  Basis Set:
  @DF-RHF Final Energy:  -360.90932116191078
    Total Energy =                       -360.9093211619107251
    Molecular point group: c1
  Basis Set: CC-PVTZ
  Basis Set:
  Basis Set: CC-PVTZ
  Basis Set:
  @DF-RHF Final Energy:  -360.90366189070733
    Total Energy =                       -360.9036618907074399
  Basis Set: CC-PVTZ
  Basis Set:
  Basis Set: CC-PVTZ
  Basis Set:
  @DF-RHF Final Energy:  -360.90856233445174
    Total Energy =                       -360.9085623344513465
  Basis Set: CC-PVTZ
  Basis Set:
  Basis Set: CC-PVTZ
  Basis Set:
  @DF-RHF Final Energy:  -360.90950919486170
    Total Energy =                       -360.9095091948616982
  Basis Set: CC-PVTZ
  Basis Set:
  Basis Set: CC-PVTZ
  Basis Set:
  @DF-RHF Final Energy:  -360.90953135606219
    Total Energy =                       -360.9095313560624163
  Basis Set: CC-PVTZ
  Basis Set:
  Charge       = 0
  Multiplicity = 1
  Basis Set: CC-PVTZ
  Basis Set:

    Orbital Energies (a.u.)
    -----------------------

    Doubly Occupied:

       1A    -20.589657     2A    -20.589518     3A    -15.836187
       4A    -11.296302     5A    -11.250739     6A    -11.241935
       7A    -11.225947     8A     -1.635248     9A     -1.419451
      10A     -1.136709    11A     -1.060200    12A     -0.948782
      13A     -0.843374    14A     -0.829325    15A     -0.757733
      16A     -0.737912    17A     -0.728012    18A     -0.679603
      19A     -0.615700    20A     -0.607975    21A     -0.567868
      22A     -0.542215    23A     -0.517383    24A     -0.504234
      25A     -0.496877    26A     -0.486006    27A     -0.469993
      28A     -0.452134

  @DF-RHF Final Energy:  -360.90953384314611

   => Energetics <=

    Nuclear Repulsion Energy =            313.0089468171141220
    One-Electron Energy =               -1111.7029229429990664
    Two-Electron Energy =                 437.7844422827387234
    DFT Exchange-Correlation Energy =       0.0000000000000000
    Empirical Dispersion Energy =           0.0000000000000000
    PCM Polarization Energy =               0.0000000000000000
    EFP Energy =                            0.0000000000000000
    Total Energy =                       -360.9095338431462778
    Molecular point group: c1
  Basis Set: CC-PVTZ
  Basis Set:

  -Total Gradient:
     Atom            X                  Y                   Z
    ------   -----------------  -----------------  -----------------
       1       -0.000096092265     0.000196493404    -0.000061710572
       2        0.000041303291     0.000016272786     0.000173998909
       3        0.000028945012     0.000026171625    -0.000034868985
       4       -0.000039604257    -0.000233600785    -0.000122049581
       5        0.000018244563     0.000012705854    -0.000009377616
       6        0.000029226650    -0.000008974050     0.000017670699
       7        0.000012901254     0.000006391944     0.000032724042
       8       -0.000000964548    -0.000009302388     0.000009973832
       9        0.000006668982    -0.000001673210    -0.000007635050
      10       -0.000001425208    -0.000005107641    -0.000002589884
      11        0.000005719127     0.000004203843     0.000003483604
      12       -0.000005390887    -0.000002643904    -0.000003140695
      13        0.000001324003    -0.000002701924     0.000000521419
      14       -0.000002109017     0.000000247989     0.000001693152
      15        0.000001760862    -0.000000459500    -0.000001589600
      16       -0.000000507566     0.000001975959     0.000002896321

  **** Optimization is complete! (in 6 steps) ****
    Final optimized geometry and variables:
    Molecular point group: c1

    Geometry (in Angstrom), charge = 0, multiplicity = 1:

    O           -1.246860910441    -0.617593020045    -1.892077150794
    N           -0.777481946548     0.338867205913    -1.372724489159
    C            0.505055861438     0.157766846381    -0.641124537352
    O           -1.259049064647     1.421851879101    -1.364176294767
    C            0.218512889142    -0.200051050762     0.811796120692
    H            1.032312176926     1.093270941557    -0.726566731150
    H            1.031688624015    -0.630902834270    -1.151856803041
    C            1.510079351187    -0.396399668966     1.601458870129
    H           -0.372726460041     0.590613805500     1.258771268364
    H           -0.374830067504    -1.106645552479     0.840511945264
    C            1.251216887769    -0.754863138522     3.060586870078
    H            2.104651499029     0.511059323858     1.552188726085
    H            2.102144967199    -1.179134318765     1.136476777783
    H            0.687944213478     0.025153287656     3.560597792736
    H            0.685958962520    -1.676569631624     3.142170420999
    H            2.182381959519    -0.887996608066     3.597589415025

  Mulliken Charges: (a.u.)
   Center  Symbol    Alpha    Beta     Spin     Total
       1     O     4.17403  4.17403  0.00000 -0.34807
       2     N     3.27565  3.27565  0.00000  0.44869
       3     C     3.04011  3.04011  0.00000 -0.08022
       4     O     4.17423  4.17423  0.00000 -0.34846
       5     C     3.10123  3.10123  0.00000 -0.20246
       6     H     0.43397  0.43397  0.00000  0.13207
       7     H     0.43388  0.43388  0.00000  0.13225
       8     C     3.09351  3.09351  0.00000 -0.18703
       9     H     0.43773  0.43773  0.00000  0.12453
      10     H     0.43803  0.43803  0.00000  0.12394
      11     C     3.14827  3.14827  0.00000 -0.29653
      12     H     0.45038  0.45038  0.00000  0.09923
      13     H     0.45035  0.45035  0.00000  0.09929
      14     H     0.45172  0.45172  0.00000  0.09657
      15     H     0.45173  0.45173  0.00000  0.09654
      16     H     0.44517  0.44517  0.00000  0.10965

   Total alpha = 28.00000, Total beta = 28.00000, Total charge =  0.00000

*** Psi4 exiting successfully. Buy a developer a beer!
