  ==> Input File <==

--------------------------------------------------------------------------
set {
	reference rhf
	basis 6-31G*
}

set_num_threads( 4 )
memory 2 gb

molecule MOL {
0 1

H	 3.893188	 0.355400	 -0.101367
N	 3.092854	 -0.246221	 -0.068770
C	 1.865559	 0.531981	 0.018834
H	 3.199514	 -0.826043	 0.741946
C	 0.645745	 -0.382037	 -0.029944
H	 1.841966	 1.207024	 -0.831236
H	 1.815756	 1.155410	 0.915079
C	 -0.679275	 0.379305	 0.025956
H	 0.698998	 -0.976915	 -0.937203
H	 0.693479	 -1.083846	 0.802235
C	 -1.704436	 -0.263147	 0.962264
H	 -1.101380	 0.442857	 -0.975861
H	 -0.497412	 1.404495	 0.344953
C	 -3.028338	 0.498647	 1.011889
H	 -1.888708	 -1.287072	 0.644718
H	 -1.286397	 -0.325619	 1.964759
H	 -3.488796	 0.548899	 0.029153
H	 -3.733869	 0.018722	 1.683083
H	 -2.881906	 1.517515	 1.359535

	symmetry c1
}
set optking {
	frozen_dihedral = ("
		12 8 5 9
	")
}

ee = optimize('scf')
oeprop('DIPOLE', 'QUADRUPOLE', 'MULLIKEN_CHARGES')
f=open( 'psi4out.xyz', 'w' )
f.write( "19  " )
f.write( str(ee) + "\n" )
f.write( MOL.save_string_xyz() )
f.close()
--------------------------------------------------------------------------

    Molecular point group: c1
  Charge       = 0
  Multiplicity = 1
  Basis Set: 6-31G*
  Basis Set:
  @DF-RHF Final Energy:  -251.34746756863055
    Total Energy =                       -251.3474675686306909
    Molecular point group: c1
  Basis Set: 6-31G*
  Basis Set:
  Basis Set: 6-31G*
  Basis Set:
  @DF-RHF Final Energy:  -251.34768083473833
    Total Energy =                       -251.3476808347382416
  Basis Set: 6-31G*
  Basis Set:
  Basis Set: 6-31G*
  Basis Set:
  @DF-RHF Final Energy:  -251.34775112257998
    Total Energy =                       -251.3477511225802346
  Basis Set: 6-31G*
  Basis Set:
  Basis Set: 6-31G*
  Basis Set:
  @DF-RHF Final Energy:  -251.34775476576937
    Total Energy =                       -251.3477547657691957
  Basis Set: 6-31G*
  Basis Set:
  Basis Set: 6-31G*
  Basis Set:
  @DF-RHF Final Energy:  -251.34776227635956
    Total Energy =                       -251.3477622763596742
  Basis Set: 6-31G*
  Basis Set:
  Charge       = 0
  Multiplicity = 1
  Basis Set: 6-31G*
  Basis Set:

    Orbital Energies (a.u.)
    -----------------------

    Doubly Occupied:

       1A    -15.532388     2A    -11.239869     3A    -11.214427
       4A    -11.212648     5A    -11.209188     6A    -11.207565
       7A     -1.176662     8A     -1.071619     9A     -0.997441
      10A     -0.900094    11A     -0.814196    12A     -0.789137
      13A     -0.662728    14A     -0.640459    15A     -0.615728
      16A     -0.593209    17A     -0.561170    18A     -0.548238
      19A     -0.535467    20A     -0.490661    21A     -0.487712
      22A     -0.465386    23A     -0.457507    24A     -0.447391
      25A     -0.381035

  @DF-RHF Final Energy:  -251.34776229294226

   => Energetics <=

    Nuclear Repulsion Energy =            245.8837336884100182
    One-Electron Energy =                -825.9591416571774971
    Two-Electron Energy =                 328.7276456758252152
    DFT Exchange-Correlation Energy =       0.0000000000000000
    Empirical Dispersion Energy =           0.0000000000000000
    PCM Polarization Energy =               0.0000000000000000
    EFP Energy =                            0.0000000000000000
    Total Energy =                       -251.3477622929422068
    Molecular point group: c1
  Basis Set: 6-31G*
  Basis Set:

  -Total Gradient:
     Atom            X                  Y                   Z
    ------   -----------------  -----------------  -----------------
       1       -0.000003793556     0.000003102954     0.000005813440
       2        0.000005634326    -0.000006728459     0.000023405307
       3       -0.000008323135    -0.000001474065    -0.000052943654
       4        0.000005873568    -0.000004153061     0.000000481471
       5       -0.002093647173    -0.003736103389     0.002044325443
       6       -0.000000122993     0.000000243432    -0.000006196550
       7       -0.000013205215    -0.000009319454    -0.000003817524
       8        0.002300395333     0.003991387324    -0.000926526965
       9        0.001405324495     0.002490737273    -0.001541486497
      10        0.000000666991    -0.000013293930    -0.000005365710
      11        0.000002185801     0.000010572859    -0.000011209133
      12       -0.001589901338    -0.002734267025     0.000481361128
      13       -0.000008443071     0.000005166970     0.000000230579
      14       -0.000005626889    -0.000001407120    -0.000000207113
      15        0.000001770830     0.000000215747    -0.000001364302
      16        0.000002860680     0.000006820478    -0.000006010315
      17       -0.000000960780     0.000000084759    -0.000000262859
      18       -0.000002614214     0.000000414366     0.000000756454
      19        0.000001926336    -0.000001999660    -0.000000983198

  **** Optimization is complete! (in 6 steps) ****
    Final optimized geometry and variables:
    Molecular point group: c1

    Geometry (in Angstrom), charge = 0, multiplicity = 1:

    H            3.835296491630     0.259755941462    -0.495836062196
    N            3.035354335908    -0.341161185621    -0.445822733031
    C            1.812989284587     0.435511115094    -0.305953542859
    H            3.168012881146    -0.934690807481     0.351110444151
    C            0.588832747276    -0.476771717517    -0.321250175318
    H            1.758311343398     1.121196753730    -1.146431090678
    H            1.793446862848     1.048231574840     0.599018052881
    C           -0.739077455470     0.302601399915    -0.265982655562
    H            0.644171523013    -1.071726625692    -1.226593369861
    H            0.654615464728    -1.166626306770     0.517969897830
    C           -1.785859302397    -0.346689776773     0.644081618079
    H           -1.159687666222     0.373141553802    -1.265954960518
    H           -0.564043841071     1.321882561434     0.072333205863
    C           -3.117231760729     0.402584626669     0.655177059169
    H           -1.951047790870    -1.373520499935     0.324314897276
    H           -1.393769459894    -0.403084658763     1.657546069770
    H           -3.553673897494     0.441593637184    -0.338962989950
    H           -3.835032719590    -0.078659013793     1.312389302839
    H           -2.988625029910     1.425448395159     0.998480461838

  Mulliken Charges: (a.u.)
   Center  Symbol    Alpha    Beta     Spin     Total
       1     H     0.33241  0.33241  0.00000  0.33518
       2     N     3.92221  3.92221  0.00000 -0.84441
       3     C     3.06266  3.06266  0.00000 -0.12533
       4     H     0.33530  0.33530  0.00000  0.32939
       5     C     3.15375  3.15375  0.00000 -0.30751
       6     H     0.42058  0.42058  0.00000  0.15885
       7     H     0.43490  0.43490  0.00000  0.13020
       8     C     3.15687  3.15687  0.00000 -0.31373
       9     H     0.41060  0.41060  0.00000  0.17879
      10     H     0.42547  0.42547  0.00000  0.14907
      11     C     3.15278  3.15278  0.00000 -0.30557
      12     H     0.42027  0.42027  0.00000  0.15947
      13     H     0.42301  0.42301  0.00000  0.15399
      14     C     3.23989  3.23989  0.00000 -0.47978
      15     H     0.42196  0.42196  0.00000  0.15607
      16     H     0.42403  0.42403  0.00000  0.15195
      17     H     0.42163  0.42163  0.00000  0.15674
      18     H     0.41946  0.41946  0.00000  0.16108
      19     H     0.42222  0.42222  0.00000  0.15556

   Total alpha = 25.00000, Total beta = 25.00000, Total charge = -0.00000
