                              Psi4 1.0.54 Driver

  ==> Input File <==

--------------------------------------------------------------------------
set {
	reference rhf
	basis cc-pvtz
}

set_num_threads( 4 )
memory 2 gb

molecule MOL {
0 1

O	 -2.081319	 -0.951530	 -0.502732
N	 -1.613558	 0.006676	 0.014756
C	 -0.329345	 -0.171618	 0.743966
O	 -2.068523	 1.100482	 -0.024385
C	 0.835904	 0.041968	 -0.213982
H	 -0.346048	 -1.174374	 1.137184
H	 -0.333613	 0.555559	 1.538590
C	 0.550753	 1.178874	 -1.191889
H	 1.728022	 0.262230	 0.360620
H	 1.017395	 -0.877840	 -0.757812
C	 1.699456	 1.408995	 -2.167596
H	 0.359073	 2.092632	 -0.637143
H	 -0.356302	 0.958551	 -1.746971
H	 2.613030	 1.664394	 -1.642380
H	 1.893784	 0.521093	 -2.758852
H	 1.471470	 2.218709	 -2.849906

	symmetry c1
}
set optking {
	frozen_dihedral = ("
		9 5 3 2
	")
}

ee,wfn = optimize('scf', return_wfn=True)
oeprop( wfn, 'DIPOLE', 'QUADRUPOLE', 'MULLIKEN_CHARGES')
f=open( 'psi4out.xyz', 'w' )
f.write( "16  " )
f.write( str(ee) + "\n" )
f.write( MOL.save_string_xyz() )
f.close()
--------------------------------------------------------------------------

    Molecular point group: c1
  Charge       = 0
  Multiplicity = 1
  Basis Set: CC-PVTZ
  Basis Set:
  @DF-RHF Final Energy:  -360.90277446969043
    Total Energy =                       -360.9027744696904847
    Molecular point group: c1
  Basis Set: CC-PVTZ
  Basis Set:
  Basis Set: CC-PVTZ
  Basis Set:
  @DF-RHF Final Energy:  -360.90193549324647
    Total Energy =                       -360.9019354932462988
  Basis Set: CC-PVTZ
  Basis Set:
  Basis Set: CC-PVTZ
  Basis Set:
  @DF-RHF Final Energy:  -360.90260533883679
    Total Energy =                       -360.9026053388367927
  Basis Set: CC-PVTZ
  Basis Set:
  Basis Set: CC-PVTZ
  Basis Set:
  @DF-RHF Final Energy:  -360.90461227418166
    Total Energy =                       -360.9046122741816021
  Basis Set: CC-PVTZ
  Basis Set:
  @DF-RHF Final Energy:  -360.90641230388678
    Total Energy =                       -360.9064123038866683
  @DF-RHF Final Energy:  -360.90659771148370
    Total Energy =                       -360.9065977114843236
  @DF-RHF Final Energy:  -360.90676207032544
    Total Energy =                       -360.9067620703253283
  Basis Set: CC-PVTZ
  Basis Set:
  @DF-RHF Final Energy:  -360.90680635751352
    Total Energy =                       -360.9068063575136875
  Basis Set: CC-PVTZ
  Basis Set:
  Basis Set: CC-PVTZ
  Basis Set:
  @DF-RHF Final Energy:  -360.90686731821296
    Total Energy =                       -360.9068673182130738
  Basis Set: CC-PVTZ
  Basis Set:
  Basis Set: CC-PVTZ
  Basis Set:
  @DF-RHF Final Energy:  -360.90686981892952
    Total Energy =                       -360.9068698189296924
  Basis Set: CC-PVTZ
  Basis Set:
  Charge       = 0
  Multiplicity = 1
  Basis Set: CC-PVTZ
  Basis Set:

    Orbital Energies (a.u.)
    -----------------------

    Doubly Occupied:

       1A    -20.592779     2A    -20.588078     3A    -15.836300
       4A    -11.296781     5A    -11.250464     6A    -11.232919
       7A    -11.221022     8A     -1.635932     9A     -1.420101
      10A     -1.133864    11A     -1.054253    12A     -0.947439
      13A     -0.856351    14A     -0.814224    15A     -0.753708
      16A     -0.739364    17A     -0.730018    18A     -0.669230
      19A     -0.617500    20A     -0.600399    21A     -0.574020
      22A     -0.544360    23A     -0.507576    24A     -0.494435
      25A     -0.492603    26A     -0.483014    27A     -0.472249
      28A     -0.453657

  @DF-RHF Final Energy:  -360.90687008186956

   => Energetics <=

    Nuclear Repulsion Energy =            322.0448485413352273
    One-Electron Energy =               -1129.8781557096958750
    Two-Electron Energy =                 446.9264370864913190
    DFT Exchange-Correlation Energy =       0.0000000000000000
    Empirical Dispersion Energy =           0.0000000000000000
    PCM Polarization Energy =               0.0000000000000000
    EFP Energy =                            0.0000000000000000
    Total Energy =                       -360.9068700818693287
    Molecular point group: c1
  Basis Set: CC-PVTZ
  Basis Set:

  -Total Gradient:
     Atom            X                  Y                   Z
    ------   -----------------  -----------------  -----------------
       1       -0.000018869128    -0.000048836781    -0.000026643061
       2       -0.000044015071     0.003970990105     0.001284388320
       3       -0.000240401145    -0.004218828971    -0.001632402905
       4        0.000025863336    -0.000066798040    -0.000018496884
       5        0.001634754717    -0.004764534647     0.000019044396
       6        0.000017199777    -0.000001194032     0.000011585801
       7       -0.000000011577    -0.000005892438     0.000002760799
       8       -0.000014541929     0.000003184466     0.000003504409
       9       -0.001385117252     0.005149481553     0.000346561512
      10        0.000004978855     0.000002124532    -0.000005708145
      11        0.000004099072    -0.000010685753     0.000010027035
      12        0.000005470235    -0.000005524739     0.000000123883
      13        0.000014436154    -0.000004293180     0.000009281700
      14       -0.000001603274    -0.000000439530    -0.000003520869
      15        0.000002945658     0.000001212512    -0.000000282331
      16       -0.000005188429     0.000000034942    -0.000000223658

  **** Optimization is complete! (in 11 steps) ****
    Final optimized geometry and variables:
    Molecular point group: c1

    Geometry (in Angstrom), charge = 0, multiplicity = 1:

    O           -1.481335487692    -1.256119475935    -0.241745034236
    N           -1.130678786901    -0.479080095369     0.583742619434
    C            0.254204028174    -0.634313376448     1.108522562603
    O           -1.786182397306     0.408829476924     1.011758287934
    C            1.300512051225    -0.281465525774     0.050158417359
    H            0.336474321029    -1.662137274338     1.423066612455
    H            0.307916454512     0.024722784645     1.957653641765
    C            0.972804097028     0.956690725408    -0.786624139815
    H            2.214543446665    -0.073202013359     0.595870870983
    H            1.473019104459    -1.131727507834    -0.595782315302
    C            2.108602800571     1.314770555978    -1.738784485603
    H            0.770811473342     1.795927474127    -0.128580929699
    H            0.068756270097     0.786823502315    -1.359407187410
    H            3.023469156843     1.531808747575    -1.197751584050
    H            2.314343660132     0.501110160046    -2.425727944404
    H            1.857071189659     2.188410087779    -2.327342774644

  Mulliken Charges: (a.u.)
   Center  Symbol    Alpha    Beta     Spin     Total
       1     O     4.17511  4.17511  0.00000 -0.35021
       2     N     3.27908  3.27908  0.00000  0.44185
       3     C     3.04830  3.04830  0.00000 -0.09661
       4     O     4.17041  4.17041  0.00000 -0.34082
       5     C     3.09971  3.09971  0.00000 -0.19941
       6     H     0.42753  0.42753  0.00000  0.14493
       7     H     0.43177  0.43177  0.00000  0.13647
       8     C     3.09336  3.09336  0.00000 -0.18673
       9     H     0.44645  0.44645  0.00000  0.10711
      10     H     0.44031  0.44031  0.00000  0.11939
      11     C     3.15021  3.15021  0.00000 -0.30041
      12     H     0.44546  0.44546  0.00000  0.10908
      13     H     0.44034  0.44034  0.00000  0.11933
      14     H     0.45532  0.45532  0.00000  0.08936
      15     H     0.45262  0.45262  0.00000  0.09477
      16     H     0.44404  0.44404  0.00000  0.11191

   Total alpha = 28.00000, Total beta = 28.00000, Total charge =  0.00000

*** Psi4 exiting successfully. Buy a developer a beer!
