  ==> Input File <==

--------------------------------------------------------------------------
set {
	reference rhf
	basis cc-pvtz
}

set_num_threads( 4 )
memory 2 gb

molecule MOL {
0 1

H	 -2.266619	 1.169943	 0.000098
O	 -1.438073	 1.611259	 0.000041
C	 -0.408657	 0.734701	 0.000005
C	 0.466617	 0.799328	 -1.068231
C	 -0.225890	 -0.193233	 1.018655
H	 0.291365	 1.529204	 -1.834063
C	 1.539089	 -0.064711	 -1.133097
C	 0.860030	 -1.048802	 0.927515
C	 -1.181936	 -0.262476	 2.183723
H	 2.214428	 -0.008715	 -1.965420
C	 1.742262	 -0.995913	 -0.133090
H	 1.015122	 -1.771716	 1.706815
H	 -2.194892	 -0.486532	 1.861173
H	 -0.885847	 -1.038513	 2.874766
H	 -1.209222	 0.671049	 2.738801
H	 2.574350	 -1.671251	 -0.176878

	symmetry c1
}
set optking {
	frozen_dihedral = ("
		4 3 2 1
	")
}

ee = optimize('scf')
oeprop('DIPOLE', 'QUADRUPOLE', 'MULLIKEN_CHARGES')
f=open( 'psi4out.xyz', 'w' )
f.write( "16  " )
f.write( str(ee) + "\n" )
f.write( MOL.save_string_xyz() )
f.close()
--------------------------------------------------------------------------

    Molecular point group: c1
  Charge       = 0
  Multiplicity = 1
  Basis Set: CC-PVTZ
  Basis Set:
  @DF-RHF Final Energy:  -344.71636025839149
    Total Energy =                       -344.7163602583914326
    Molecular point group: c1
  Basis Set: CC-PVTZ
  Basis Set:
  Basis Set: CC-PVTZ
  Basis Set:
  @DF-RHF Final Energy:  -344.71684304343017
    Total Energy =                       -344.7168430434299466
  Basis Set: CC-PVTZ
  Basis Set:
  Basis Set: CC-PVTZ
  Basis Set:
  @DF-RHF Final Energy:  -344.71690561019233
    Total Energy =                       -344.7169056101922138
  Basis Set: CC-PVTZ
  Basis Set:
  Basis Set: CC-PVTZ
  Basis Set:
  @DF-RHF Final Energy:  -344.71691493020808
    Total Energy =                       -344.7169149302085316
  Basis Set: CC-PVTZ
  Basis Set:
  Basis Set: CC-PVTZ
  Basis Set:
  @DF-RHF Final Energy:  -344.71691877187652
    Total Energy =                       -344.7169187718768626
  Basis Set: CC-PVTZ
  Basis Set:
  Basis Set: CC-PVTZ
  Basis Set:
  @DF-RHF Final Energy:  -344.71692062722860
    Total Energy =                       -344.7169206272284896
  Basis Set: CC-PVTZ
  Basis Set:
  Charge       = 0
  Multiplicity = 1
  Basis Set: CC-PVTZ
  Basis Set:

    Orbital Energies (a.u.)
    -----------------------

    Doubly Occupied:

       1A    -20.572693     2A    -11.284466     3A    -11.234119
       4A    -11.227123     5A    -11.226908     6A    -11.223928
       7A    -11.221672     8A    -11.221054     9A     -1.399819
      10A     -1.153702    11A     -1.049621    12A     -1.007454
      13A     -0.938759    14A     -0.829538    15A     -0.815274
      16A     -0.731104    17A     -0.675061    18A     -0.653983
      19A     -0.624872    20A     -0.596029    21A     -0.574576
      22A     -0.571635    23A     -0.550146    24A     -0.528312
      25A     -0.503741    26A     -0.488045    27A     -0.469815
      28A     -0.333333    29A     -0.319671

  @DF-RHF Final Energy:  -344.71692097092091

   => Energetics <=

    Nuclear Repulsion Energy =            350.6359334307045401
    One-Electron Energy =               -1162.6528015792650876
    Two-Electron Energy =                 467.2999471776398650
    DFT Exchange-Correlation Energy =       0.0000000000000000
    Empirical Dispersion Energy =           0.0000000000000000
    PCM Polarization Energy =               0.0000000000000000
    EFP Energy =                            0.0000000000000000
    Total Energy =                       -344.7169209709206825
    Molecular point group: c1
  Basis Set: CC-PVTZ
  Basis Set:

  -Total Gradient:
     Atom            X                  Y                   Z
    ------   -----------------  -----------------  -----------------
       1       -0.000031484085     0.000065261974    -0.001690028529
       2       -0.000305147477    -0.000459793231     0.001816596044
       3        0.001064767329     0.001215316202     0.000434116070
       4       -0.000769883757    -0.000750819334    -0.000592986405
       5        0.000040560233    -0.000077401811     0.000036222466
       6        0.000001761996    -0.000001826339    -0.000001201209
       7        0.000040107406    -0.000070906644     0.000035139322
       8       -0.000080222530     0.000024696728     0.000041394933
       9       -0.000008314192     0.000001512121    -0.000020255205
      10       -0.000003109635     0.000005361324    -0.000003368367
      11        0.000037081673     0.000043324137    -0.000077222699
      12        0.000007830251    -0.000002749057    -0.000001597300
      13        0.000010618568     0.000009421659     0.000003929715
      14        0.000001055108    -0.000003063211     0.000005135411
      15       -0.000002451704     0.000003093603     0.000005322775
      16       -0.000003169187    -0.000001428116     0.000008802980

  **** Optimization is complete! (in 7 steps) ****
    Final optimized geometry and variables:
    Molecular point group: c1

    Geometry (in Angstrom), charge = 0, multiplicity = 1:

    H           -2.356410713154     1.079081293673    -0.206414075365
    O           -1.525171994223     1.519987095067    -0.203017830138
    C           -0.497244006821     0.621981822822    -0.253877157485
    C            0.376355990912     0.690610005928    -1.318488529615
    C           -0.321406671676    -0.310587882770     0.761797166081
    H            0.204937321308     1.427051282297    -2.079059053483
    C            1.453431849659    -0.172792460514    -1.385956080495
    C            0.758505944538    -1.171713764325     0.668144792218
    C           -1.278937994552    -0.368230116504     1.923910064552
    H            2.133728200714    -0.113143487365    -2.213777458382
    C            1.644358563618    -1.109875281503    -0.392031934506
    H            0.913047113117    -1.899365059343     1.442926039247
    H           -2.271210696629    -0.680446213693     1.611009511899
    H           -0.936725731005    -1.074551567593     2.667517596245
    H           -1.379629630573     0.602104605053     2.393975862419
    H            2.476013059493    -1.786365370532    -0.435792037728

  Mulliken Charges: (a.u.)
   Center  Symbol    Alpha    Beta     Spin     Total
       1     H     0.38667  0.38667  0.00000  0.22666
       2     O     4.18732  4.18732  0.00000 -0.37464
       3     C     2.88290  2.88290  0.00000  0.23421
       4     C     3.10814  3.10814  0.00000 -0.21628
       5     C     2.99969  2.99969  0.00000  0.00062
       6     H     0.41756  0.41756  0.00000  0.16487
       7     C     3.07373  3.07373  0.00000 -0.14746
       8     C     3.09148  3.09148  0.00000 -0.18295
       9     C     3.15315  3.15315  0.00000 -0.30630
      10     H     0.42219  0.42219  0.00000  0.15562
      11     C     3.08171  3.08171  0.00000 -0.16343
      12     H     0.42489  0.42489  0.00000  0.15022
      13     H     0.45676  0.45676  0.00000  0.08649
      14     H     0.44985  0.44985  0.00000  0.10030
      15     H     0.43974  0.43974  0.00000  0.12052
      16     H     0.42423  0.42423  0.00000  0.15155

   Total alpha = 29.00000, Total beta = 29.00000, Total charge = -0.00000
