                              Psi4 1.0.54 Driver

  ==> Input File <==

--------------------------------------------------------------------------
set {
	reference rhf
	basis cc-pvtz
}

set_num_threads( 4 )
memory 2 gb

molecule MOL {
0 1

O	 -1.274771	 -2.762610	 -0.483625
C	 -0.886214	 -1.889651	 -1.189598
C	 -0.881910	 -0.448129	 -0.720509
C	 -0.360501	 -2.168505	 -2.577630
C	 0.376695	 -0.140025	 0.100361
H	 -1.761232	 -0.300771	 -0.106352
H	 -0.942113	 0.224139	 -1.569800
C	 1.630207	 -0.772146	 -0.501001
H	 0.486632	 0.935267	 0.162725
H	 0.248225	 -0.501310	 1.117842
C	 2.907848	 -0.545876	 0.309149
H	 1.772784	 -0.391628	 -1.509394
H	 1.468529	 -1.842059	 -0.599744
C	 3.373802	 0.906639	 0.372125
H	 3.699140	 -1.146831	 -0.127906
H	 2.764321	 -0.923458	 1.318191
H	 3.519798	 1.311927	 -0.623875
H	 4.316899	 0.983758	 0.900700
H	 2.661122	 1.540651	 0.885346
H	 -1.042917	 -1.747117	 -3.308888
H	 -0.274786	 -3.232498	 -2.736189
H	 0.601832	 -1.691430	 -2.725631

	symmetry c1
}
set optking {
	frozen_dihedral = ("
		6 3 5 8
	")
}

ee,wfn = optimize('scf', return_wfn=True)
oeprop( wfn, 'DIPOLE', 'QUADRUPOLE', 'MULLIKEN_CHARGES')
f=open( 'psi4out.xyz', 'w' )
f.write( "22  " )
f.write( str(ee) + "\n" )
f.write( MOL.save_string_xyz() )
f.close()
--------------------------------------------------------------------------

    Molecular point group: c1
  Charge       = 0
  Multiplicity = 1
  Basis Set: CC-PVTZ
  Basis Set:
  @DF-RHF Final Energy:  -348.21589281132475
    Total Energy =                       -348.2158928113246361
    Molecular point group: c1
  Basis Set: CC-PVTZ
  Basis Set:
  Basis Set: CC-PVTZ
  Basis Set:
  @DF-RHF Final Energy:  -348.21894491693592
    Total Energy =                       -348.2189449169362092
  Basis Set: CC-PVTZ
  Basis Set:
  Basis Set: CC-PVTZ
  Basis Set:
  @DF-RHF Final Energy:  -348.21952051830658
    Total Energy =                       -348.2195205183062399
  Basis Set: CC-PVTZ
  Basis Set:
  Basis Set: CC-PVTZ
  Basis Set:
  @DF-RHF Final Energy:  -348.21916311656713
    Total Energy =                       -348.2191631165671311
  Basis Set: CC-PVTZ
  Basis Set:
  @DF-RHF Final Energy:  -348.21973028096903
    Total Energy =                       -348.2197302809689745
  @DF-RHF Final Energy:  -348.21983900252570
    Total Energy =                       -348.2198390025254184
  @DF-RHF Final Energy:  -348.21995626479566
    Total Energy =                       -348.2199562647955418
  @DF-RHF Final Energy:  -348.21998942976143
    Total Energy =                       -348.2199894297613696
  @DF-RHF Final Energy:  -348.21999630912507
    Total Energy =                       -348.2199963091250083
  @DF-RHF Final Energy:  -348.22000237911243
    Total Energy =                       -348.2200023791127705
  @DF-RHF Final Energy:  -348.22001643328957
    Total Energy =                       -348.2200164332892882
  @DF-RHF Final Energy:  -348.22003131203223
    Total Energy =                       -348.2200313120323472
  @DF-RHF Final Energy:  -348.22006550518643
    Total Energy =                       -348.2200655051863123
  @DF-RHF Final Energy:  -348.22007454038595
    Total Energy =                       -348.2200745403861220
  @DF-RHF Final Energy:  -348.22007771805420
    Total Energy =                       -348.2200777180539717
  @DF-RHF Final Energy:  -348.22008024373724
    Total Energy =                       -348.2200802437374705
  @DF-RHF Final Energy:  -348.22008226288153
    Total Energy =                       -348.2200822628816468
  @DF-RHF Final Energy:  -348.22008406079772
    Total Energy =                       -348.2200840607973191
  Basis Set: CC-PVTZ
  Basis Set:
  @DF-RHF Final Energy:  -348.22008265313377
    Total Energy =                       -348.2200826531336020
  Basis Set: CC-PVTZ
  Basis Set:
  Basis Set: CC-PVTZ
  Basis Set:
  @DF-RHF Final Energy:  -348.22008516595042
    Total Energy =                       -348.2200851659500245
  Basis Set: CC-PVTZ
  Basis Set:
  Basis Set: CC-PVTZ
  Basis Set:
  @DF-RHF Final Energy:  -348.22008510154893
    Total Energy =                       -348.2200851015487615
  Basis Set: CC-PVTZ
  Basis Set:
  Charge       = 0
  Multiplicity = 1
  Basis Set: CC-PVTZ
  Basis Set:

    Orbital Energies (a.u.)
    -----------------------

    Doubly Occupied:

       1A    -20.535941     2A    -11.320162     3A    -11.228869
       4A    -11.226922     5A    -11.222782     6A    -11.215550
       7A    -11.214834     8A    -11.208393     9A     -1.397335
      10A     -1.092216    11A     -1.042510    12A     -1.000874
      13A     -0.938045    14A     -0.857599    15A     -0.788049
      16A     -0.725815    17A     -0.664530    18A     -0.637179
      19A     -0.628005    20A     -0.618234    21A     -0.603371
      22A     -0.584768    23A     -0.561573    24A     -0.550178
      25A     -0.529877    26A     -0.525751    27A     -0.495679
      28A     -0.485923    29A     -0.466130    30A     -0.462981
      31A     -0.453400    32A     -0.398727

  @DF-RHF Final Energy:  -348.22008486492871

   => Energetics <=

    Nuclear Repulsion Energy =            381.4669940461923261
    One-Electron Energy =               -1228.0097553648861322
    Two-Electron Energy =                 498.3226764537651547
    DFT Exchange-Correlation Energy =       0.0000000000000000
    Empirical Dispersion Energy =           0.0000000000000000
    PCM Polarization Energy =               0.0000000000000000
    EFP Energy =                            0.0000000000000000
    Total Energy =                       -348.2200848649286513
    Molecular point group: c1
  Basis Set: CC-PVTZ
  Basis Set:

  -Total Gradient:
     Atom            X                  Y                   Z
    ------   -----------------  -----------------  -----------------
       1       -0.000207754897     0.000196226701    -0.000097664551
       2        0.000524840838    -0.000177822186     0.000094796907
       3       -0.000400109259     0.005240276836    -0.001335794174
       4        0.000261961786     0.000207542755     0.000103184086
       5        0.001699989280     0.004547268128    -0.003140263946
       6        0.000014849098    -0.005477161498     0.001963025392
       7       -0.000308316426    -0.000105410897    -0.000113858440
       8       -0.001423653613    -0.004122808656     0.002544204950
       9       -0.000302294697     0.000044357285     0.000054423366
      10        0.000294211404    -0.000348654864    -0.000031518934
      11       -0.000134195913    -0.000049931926    -0.000009787051
      12       -0.000008965687     0.000027941511     0.000042801941
      13        0.000035789608     0.000043751384    -0.000040137662
      14        0.000063245585     0.000036219104     0.000028929283
      15        0.000012238174     0.000001943627     0.000003683452
      16        0.000033157931     0.000001851579     0.000031871644
      17        0.000001029335    -0.000003891367    -0.000022934640
      18       -0.000007074362     0.000021298334     0.000001415623
      19        0.000007885595    -0.000016679760     0.000009784633
      20       -0.000005998116     0.000021349381    -0.000062422967
      21       -0.000015292978    -0.000038317238     0.000067540263
      22       -0.000135542685    -0.000049348236    -0.000091279176

  **** Optimization is complete! (in 22 steps) ****
    Final optimized geometry and variables:
    Molecular point group: c1

    Geometry (in Angstrom), charge = 0, multiplicity = 1:

    O           -1.594921760319    -1.765317233315     0.152017074129
    C           -1.519107205412    -0.924207951837    -0.683716828849
    C           -1.390740290772     0.542939489196    -0.302787718750
    C           -1.579947980682    -1.261079841239    -2.152752234084
    C           -0.191548826890     0.839233436086     0.613126459230
    H           -2.305999867994     0.749279273190     0.242431452255
    H           -1.368837745498     1.163086764560    -1.190355106248
    C            1.117317541463     0.167602451804     0.195785052433
    H           -0.074526975159     1.914459974451     0.667702684587
    H           -0.435132394127     0.498901164726     1.613267952704
    C            2.299569736977     0.482088175353     1.114944684246
    H            1.374762036046     0.459416106798    -0.821636599629
    H            0.972195925201    -0.905230171496     0.185532435130
    C            2.779552010871     1.930881109978     1.071255144098
    H            3.126181011146    -0.165218753603     0.839525669243
    H            2.037096766371     0.218048787736     2.135705133769
    H            3.046671821550     2.222231477049     0.060306030908
    H            3.656754451276     2.063199314804     1.694063568844
    H            2.024223547218     2.621723154862     1.425983251236
    H           -2.408532282610    -0.736434524140    -2.617311973758
    H           -1.698529003888    -2.325491568894    -2.286090729310
    H           -0.673737979570    -0.924979884087    -2.645429972647

  Mulliken Charges: (a.u.)
   Center  Symbol    Alpha    Beta     Spin     Total
       1     O     4.18128  4.18128  0.00000 -0.36256
       2     C     2.85247  2.85247  0.00000  0.29507
       3     C     3.11450  3.11450  0.00000 -0.22900
       4     C     3.15304  3.15304  0.00000 -0.30607
       5     C     3.08806  3.08806  0.00000 -0.17611
       6     H     0.43780  0.43780  0.00000  0.12441
       7     H     0.44457  0.44457  0.00000  0.11087
       8     C     3.10990  3.10990  0.00000 -0.21981
       9     H     0.44519  0.44519  0.00000  0.10963
      10     H     0.44661  0.44661  0.00000  0.10678
      11     C     3.09179  3.09179  0.00000 -0.18359
      12     H     0.45621  0.45621  0.00000  0.08758
      13     H     0.43619  0.43619  0.00000  0.12761
      14     C     3.15170  3.15170  0.00000 -0.30340
      15     H     0.44746  0.44746  0.00000  0.10508
      16     H     0.45186  0.45186  0.00000  0.09629
      17     H     0.45565  0.45565  0.00000  0.08869
      18     H     0.44574  0.44574  0.00000  0.10851
      19     H     0.45447  0.45447  0.00000  0.09105
      20     H     0.44894  0.44894  0.00000  0.10213
      21     H     0.43683  0.43683  0.00000  0.12635
      22     H     0.44975  0.44975  0.00000  0.10050

   Total alpha = 32.00000, Total beta = 32.00000, Total charge = -0.00000

*** Psi4 exiting successfully. Buy a developer a beer!
