  ==> Input File <==

--------------------------------------------------------------------------
set {
	reference rhf
	basis cc-pvtz
}

set_num_threads( 4 )
memory 2 gb

molecule MOL {
0 1

H	 -2.198009	 0.555177	 2.460379
C	 -1.695336	 -0.170279	 3.095923
O	 -0.480993	 -0.567124	 2.552392
H	 -1.495208	 0.286704	 4.054048
H	 -2.362622	 -1.017214	 3.245304
C	 -0.582541	 -1.186108	 1.312156
C	 0.795339	 -1.477920	 0.773048
H	 -1.132108	 -2.123066	 1.401921
H	 -1.115113	 -0.551112	 0.607474
O	 1.401606	 -0.295166	 0.366636
H	 1.385128	 -1.967273	 1.545132
H	 0.706864	 -2.165091	 -0.068344
C	 2.714315	 -0.441627	 -0.061017
H	 2.765292	 -0.641548	 -1.128869
H	 3.305661	 0.447341	 0.150952
H	 3.143725	 -1.278506	 0.470147

	symmetry c1
}
set optking {
	frozen_dihedral = ("
		7 10 13 14
	")
}

ee = optimize('scf')
oeprop('DIPOLE', 'QUADRUPOLE', 'MULLIKEN_CHARGES')
f=open( 'psi4out.xyz', 'w' )
f.write( "16  " )
f.write( str(ee) + "\n" )
f.write( MOL.save_string_xyz() )
f.close()
--------------------------------------------------------------------------

    Molecular point group: c1
  Charge       = 0
  Multiplicity = 1
  Basis Set: CC-PVTZ
  Basis Set:
  @DF-RHF Final Energy:  -307.09492690422229
    Total Energy =                       -307.0949269042223477
    Molecular point group: c1
  Basis Set: CC-PVTZ
  Basis Set:
  Basis Set: CC-PVTZ
  Basis Set:
  @DF-RHF Final Energy:  -307.09593229600728
    Total Energy =                       -307.0959322960072200
  Basis Set: CC-PVTZ
  Basis Set:
  Basis Set: CC-PVTZ
  Basis Set:
  @DF-RHF Final Energy:  -307.09617710562355
    Total Energy =                       -307.0961771056239513
  Basis Set: CC-PVTZ
  Basis Set:
  Charge       = 0
  Multiplicity = 1
  Basis Set: CC-PVTZ
  Basis Set:

    Orbital Energies (a.u.)
    -----------------------

    Doubly Occupied:

       1A    -20.547618     2A    -20.546162     3A    -11.267649
       4A    -11.266783     5A    -11.261483     6A    -11.261216
       7A     -1.390658     8A     -1.373159     9A     -1.032009
      10A     -0.937347    11A     -0.892100    12A     -0.824131
      13A     -0.685504    14A     -0.682031    15A     -0.659117
      16A     -0.637812    17A     -0.631124    18A     -0.597913
      19A     -0.553023    20A     -0.536582    21A     -0.509334
      22A     -0.479381    23A     -0.464304    24A     -0.422245
      25A     -0.411980

  @DF-RHF Final Energy:  -307.09617874410810

   => Energetics <=

    Nuclear Repulsion Energy =            258.7761092925917410
    One-Electron Energy =                -932.0032471828905045
    Two-Electron Energy =                 366.1309591461906052
    DFT Exchange-Correlation Energy =       0.0000000000000000
    Empirical Dispersion Energy =           0.0000000000000000
    PCM Polarization Energy =               0.0000000000000000
    EFP Energy =                            0.0000000000000000
    Total Energy =                       -307.0961787441081583
    Molecular point group: c1
  Basis Set: CC-PVTZ
  Basis Set:

  -Total Gradient:
     Atom            X                  Y                   Z
    ------   -----------------  -----------------  -----------------
       1        0.000001657889    -0.000000035506    -0.000000808601
       2       -0.000004969884    -0.000003089028    -0.000004889975
       3        0.000010867633     0.000001985122     0.000018693736
       4        0.000004561597    -0.000001991993    -0.000002704732
       5       -0.000000279470    -0.000000367998     0.000000555689
       6       -0.000006967233     0.000036368130    -0.000020340645
       7        0.000752576534     0.000252811307     0.002109649679
       8        0.000012651624    -0.000003178153     0.000001334095
       9       -0.000000933440    -0.000003358578    -0.000004030359
      10       -0.000968351484     0.000402024705    -0.003333291161
      11        0.000024635870     0.000024478939     0.000006434963
      12        0.000003015879     0.000008160112     0.000017391009
      13        0.000126317640    -0.003556176484     0.001672244283
      14        0.000021477981     0.002856519617    -0.000453083844
      15       -0.000015280210     0.000019291174    -0.000014351915
      16        0.000039019076    -0.000033441366     0.000007197778

  **** Optimization is complete! (in 4 steps) ****
    Final optimized geometry and variables:
    Molecular point group: c1

    Geometry (in Angstrom), charge = 0, multiplicity = 1:

    H           -2.546110618150     1.261141238263     1.116366342335
    C           -2.052817717048     0.528000109931     1.750431127372
    O           -0.843031030143     0.117751861052     1.206785114632
    H           -1.847861267790     0.980058029939     2.709872552731
    H           -2.730547433149    -0.311093362966     1.897183622243
    C           -0.951181747823    -0.496444405819    -0.035265469930
    C            0.423589878404    -0.804008577083    -0.573843476694
    H           -1.511855719265    -1.427133564062     0.051615080780
    H           -1.475752709301     0.146704495008    -0.738444127204
    O            1.046115438805     0.375006404526    -0.967662555588
    H            1.004848815396    -1.305259938707     0.196067133870
    H            0.323937217298    -1.485856660863    -1.418565142521
    C            2.361697945078     0.239550904058    -1.398676760984
    H            2.407618097441     0.056334739470    -2.469439708520
    H            2.876615756056     1.169383714203    -1.197960654657
    H            2.880172966421    -0.559537501808    -0.877466740208

  Mulliken Charges: (a.u.)
   Center  Symbol    Alpha    Beta     Spin     Total
       1     H     0.47020  0.47020  0.00000  0.05960
       2     C     3.03203  3.03203  0.00000 -0.06406
       3     O     4.17030  4.17030  0.00000 -0.34060
       4     H     0.44641  0.44641  0.00000  0.10718
       5     H     0.47372  0.47372  0.00000  0.05255
       6     C     2.96200  2.96200  0.00000  0.07600
       7     C     2.95991  2.95991  0.00000  0.08018
       8     H     0.47621  0.47621  0.00000  0.04758
       9     H     0.47079  0.47079  0.00000  0.05842
      10     O     4.17252  4.17252  0.00000 -0.34505
      11     H     0.46905  0.46905  0.00000  0.06189
      12     H     0.47736  0.47736  0.00000  0.04528
      13     C     3.02983  3.02983  0.00000 -0.05965
      14     H     0.46679  0.46679  0.00000  0.06643
      15     H     0.44929  0.44929  0.00000  0.10142
      16     H     0.47358  0.47358  0.00000  0.05283

   Total alpha = 25.00000, Total beta = 25.00000, Total charge = -0.00000
