  ==> Input File <==

--------------------------------------------------------------------------
set {
	reference rhf
	basis 6-31G*
}

set_num_threads( 4 )
memory 2 gb

molecule MOL {
0 1

H	 -0.786300	 -2.513999	 0.282146
N	 -0.041802	 -1.855462	 0.157521
C	 -0.563778	 -0.502042	 0.037919
H	 0.442305	 -2.120517	 -0.679224
C	 0.575259	 0.508231	 -0.048326
H	 -1.156976	 -0.297068	 0.924089
H	 -1.228022	 -0.371411	 -0.820253
C	 1.954651	 -0.143624	 0.035137
H	 0.475158	 1.060484	 -0.977307
H	 0.469181	 1.234488	 0.755973
H	 2.103292	 -0.853109	 -0.774172
H	 2.742821	 0.599562	 -0.030094
H	 2.083613	 -0.679371	 0.971560

	symmetry c1
}
set optking {
	frozen_dihedral = ("
		6 3 5 9
	")
}

ee = optimize('scf')
oeprop('DIPOLE', 'QUADRUPOLE', 'MULLIKEN_CHARGES')
f=open( 'psi4out.xyz', 'w' )
f.write( "13  " )
f.write( str(ee) + "\n" )
f.write( MOL.save_string_xyz() )
f.close()
--------------------------------------------------------------------------

    Molecular point group: c1
  Charge       = 0
  Multiplicity = 1
  Basis Set: 6-31G*
  Basis Set:
  @DF-RHF Final Energy:  -173.27020565803684
    Total Energy =                       -173.2702056580369003
    Molecular point group: c1
  Basis Set: 6-31G*
  Basis Set:
  Basis Set: 6-31G*
  Basis Set:
  @DF-RHF Final Energy:  -173.27051311909156
    Total Energy =                       -173.2705131190915893
  Basis Set: 6-31G*
  Basis Set:
  Basis Set: 6-31G*
  Basis Set:
  @DF-RHF Final Energy:  -173.27298975547808
    Total Energy =                       -173.2729897554781360
  Basis Set: 6-31G*
  Basis Set:
  Basis Set: 6-31G*
  Basis Set:
  @DF-RHF Final Energy:  -173.27318374247082
    Total Energy =                       -173.2731837424709056
  Basis Set: 6-31G*
  Basis Set:
  Basis Set: 6-31G*
  Basis Set:
  @DF-RHF Final Energy:  -173.27319315575926
    Total Energy =                       -173.2731931557592588
  Basis Set: 6-31G*
  Basis Set:
  Basis Set: 6-31G*
  Basis Set:
  @DF-RHF Final Energy:  -173.27319801814917
    Total Energy =                       -173.2731980181492588
  Basis Set: 6-31G*
  Basis Set:
  Charge       = 0
  Multiplicity = 1
  Basis Set: 6-31G*
  Basis Set:

    Orbital Energies (a.u.)
    -----------------------

    Doubly Occupied:

       1A    -15.533032     2A    -11.241114     3A    -11.212048
       4A    -11.200646     5A     -1.175873     6A     -1.024259
       7A     -0.905239     8A     -0.785289     9A     -0.667893
      10A     -0.630643    11A     -0.589511    12A     -0.558845
      13A     -0.535469    14A     -0.488469    15A     -0.473308
      16A     -0.459099    17A     -0.378403

  @DF-RHF Final Energy:  -173.27320093611365

   => Energetics <=

    Nuclear Repulsion Energy =            133.7759304198845598
    One-Electron Energy =                -498.3799842277045400
    Two-Electron Energy =                 191.3308528717062984
    DFT Exchange-Correlation Energy =       0.0000000000000000
    Empirical Dispersion Energy =           0.0000000000000000
    PCM Polarization Energy =               0.0000000000000000
    EFP Energy =                            0.0000000000000000
    Total Energy =                       -173.2732009361136818
    Molecular point group: c1
  Basis Set: 6-31G*
  Basis Set:

  -Total Gradient:
     Atom            X                  Y                   Z
    ------   -----------------  -----------------  -----------------
       1        0.000001542925     0.000014117273    -0.000000334025
       2        0.000000368592     0.000011827873    -0.000005238512
       3        0.000891250603    -0.000915775345     0.001158543470
       4        0.000000684110     0.000001468903    -0.000000447182
       5        0.000845020994    -0.001075408028    -0.001060050565
       6       -0.000885220491     0.000928561654    -0.000798166672
       7        0.000003605691     0.000002725957    -0.000001927392
       8       -0.000001509837     0.000006816991    -0.000003341508
       9       -0.000853672518     0.001030845772     0.000700934683
      10       -0.000004377303    -0.000002340108     0.000001667503
      11       -0.000001747821     0.000001167923     0.000004162603
      12        0.000001977670    -0.000000741776     0.000001951527
      13        0.000002077385    -0.000003267089     0.000002246070

  **** Optimization is complete! (in 7 steps) ****
    Final optimized geometry and variables:
    Molecular point group: c1

    Geometry (in Angstrom), charge = 0, multiplicity = 1:

    H           -1.373057553138    -1.967198282592     0.297698484006
    N           -0.592665425544    -1.369837240294     0.104099257654
    C           -1.038292095785     0.014238898773     0.005068384289
    H           -0.200529481995    -1.683044889584    -0.762882825108
    C            0.124455375068     1.037250197618    -0.088108598447
    H           -1.624633004731     0.223369427015     0.892642662520
    H           -1.712228929906     0.171754171490    -0.838415145285
    C            1.536184374292     0.457568001927     0.013157415198
    H            0.034347410109     1.597561954537    -1.014745384273
    H            0.002219687538     1.771435390067     0.703218299680
    H            1.756216200830    -0.223374146688    -0.802900551455
    H            2.266448936461     1.260442845951    -0.027580321676
    H            1.675730856458    -0.086032386522     0.938655748208

  Mulliken Charges: (a.u.)
   Center  Symbol    Alpha    Beta     Spin     Total
       1     H     0.33165  0.33165  0.00000  0.33670
       2     N     3.92247  3.92247  0.00000 -0.84494
       3     C     3.06226  3.06226  0.00000 -0.12451
       4     H     0.33415  0.33415  0.00000  0.33170
       5     C     3.16466  3.16466  0.00000 -0.32931
       6     H     0.41899  0.41899  0.00000  0.16202
       7     H     0.43188  0.43188  0.00000  0.13625
       8     C     3.23156  3.23156  0.00000 -0.46311
       9     H     0.42265  0.42265  0.00000  0.15471
      10     H     0.41946  0.41946  0.00000  0.16107
      11     H     0.42758  0.42758  0.00000  0.14484
      12     H     0.42399  0.42399  0.00000  0.15201
      13     H     0.40871  0.40871  0.00000  0.18257

   Total alpha = 17.00000, Total beta = 17.00000, Total charge = -0.00000
