                              Psi4 1.0.54 Driver

  ==> Input File <==

--------------------------------------------------------------------------
set {
	reference rhf
	basis cc-pvtz
}

set_num_threads( 4 )
memory 2 gb

molecule MOL {
0 1

H	 -0.366580	 2.045936	 -0.305749
C	 0.351829	 1.335402	 0.083171
N	 -0.000018	 0.000080	 -0.334844
H	 1.327156	 1.599860	 -0.305483
H	 0.380566	 1.445403	 1.171437
C	 0.980746	 -0.972385	 0.083239
C	 -1.332532	 -0.363116	 0.083170
H	 0.722132	 -1.949020	 -0.305856
H	 1.955307	 -0.705340	 -0.305483
H	 1.061329	 -1.052572	 1.171424
H	 -2.049198	 0.349186	 -0.305672
H	 -1.588612	 -1.340519	 -0.305715
H	 -1.442369	 -0.392858	 1.171362

	symmetry c1
}
ee,wfn = energy('scf', return_wfn=True)
oeprop( wfn, 'DIPOLE', 'QUADRUPOLE', 'MULLIKEN_CHARGES')
oeprop( wfn, 'GRID_ESP')
f=open( 'psi4out.xyz', 'w' )
f.write( "13  " )
f.write( str(ee) + "\n" )
f.write( MOL.save_string_xyz() )
f.close()
--------------------------------------------------------------------------

    Molecular point group: c1

    Geometry (in Angstrom), charge = 0, multiplicity = 1:

       Center              X                  Y                   Z               Mass
    ------------   -----------------  -----------------  -----------------  -----------------
           H         -0.366579878791     2.045935850345    -0.305741006830     1.007825032070
           C          0.351829121209     1.335401850345     0.083178993170    12.000000000000
           N         -0.000017878791     0.000079850345    -0.334836006830    14.003074004780
           H          1.327156121209     1.599859850345    -0.305475006830     1.007825032070
           H          0.380566121209     1.445402850345     1.171444993170     1.007825032070
           C          0.980746121209    -0.972385149655     0.083246993170    12.000000000000
           C         -1.332531878791    -0.363116149655     0.083177993170    12.000000000000
           H          0.722132121209    -1.949020149655    -0.305848006830     1.007825032070
           H          1.955307121209    -0.705340149655    -0.305475006830     1.007825032070
           H          1.061329121209    -1.052572149655     1.171431993170     1.007825032070
           H         -2.049197878791     0.349185850345    -0.305664006830     1.007825032070
           H         -1.588611878791    -1.340519149655    -0.305707006830     1.007825032070
           H         -1.442368878791    -0.392858149655     1.171369993170     1.007825032070

  Charge       = 0
  Multiplicity = 1
  Basis Set: CC-PVTZ
  Basis Set:

    Orbital Energies (a.u.)
    -----------------------

    Doubly Occupied:

       1A    -15.539429     2A    -11.234226     3A    -11.234213
       4A    -11.234191     5A     -1.227168     6A     -0.952412
       7A     -0.952399     8A     -0.806787     9A     -0.643577
      10A     -0.631473    11A     -0.631457    12A     -0.544073
      13A     -0.544035    14A     -0.517189    15A     -0.502426
      16A     -0.502353    17A     -0.349338

  @DF-RHF Final Energy:  -173.33402114410487

   => Energetics <=

    Nuclear Repulsion Energy =            139.4684151874764382
    One-Electron Energy =                -509.5115219244461855
    Two-Electron Energy =                 196.7090855928648807
    DFT Exchange-Correlation Energy =       0.0000000000000000
    Empirical Dispersion Energy =           0.0000000000000000
    PCM Polarization Energy =               0.0000000000000000
    EFP Energy =                            0.0000000000000000
    Total Energy =                       -173.3340211441048950

  Mulliken Charges: (a.u.)
   Center  Symbol    Alpha    Beta     Spin     Total
       1     H     0.45261  0.45261  0.00000  0.09478
       2     C     3.08902  3.08902  0.00000 -0.17804
       3     N     3.59562  3.59562  0.00000 -0.19124
       4     H     0.45261  0.45261  0.00000  0.09479
       5     H     0.47392  0.47392  0.00000  0.05215
       6     C     3.08904  3.08904  0.00000 -0.17807
       7     C     3.08904  3.08904  0.00000 -0.17808
       8     H     0.45259  0.45259  0.00000  0.09482
       9     H     0.45260  0.45260  0.00000  0.09480
      10     H     0.47388  0.47388  0.00000  0.05224
      11     H     0.45260  0.45260  0.00000  0.09480
      12     H     0.45259  0.45259  0.00000  0.09482
      13     H     0.47389  0.47389  0.00000  0.05222

   Total alpha = 17.00000, Total beta = 17.00000, Total charge =  0.00000

*** Psi4 exiting successfully. Buy a developer a beer!
