                              Psi4 1.0.54 Driver

  ==> Input File <==

--------------------------------------------------------------------------
set {
	reference rhf
	basis cc-pvtz
}

set_num_threads( 4 )
memory 2 gb

molecule MOL {
0 1

H	 2.938802	 -0.911834	 -1.488618
C	 2.222364	 -1.111407	 -0.702381
C	 1.322304	 0.099773	 -0.484271
H	 1.646650	 -1.983324	 -0.991663
H	 2.776218	 -1.357934	 0.196402
C	 0.308557	 -0.162619	 0.622645
H	 0.791220	 0.338974	 -1.397214
H	 1.918110	 0.963774	 -0.216961
N	 -1.069352	 -0.004081	 0.085342
H	 0.371632	 -1.172932	 0.991288
H	 0.400391	 0.548875	 1.426218
O	 -1.584901	 -0.965470	 -0.377818
O	 -1.548033	 1.079343	 0.130056

	symmetry c1
}
set optking {
	frozen_dihedral = ("
		7 3 6 9
	")
}

ee,wfn = optimize('scf', return_wfn=True)
oeprop( wfn, 'DIPOLE', 'QUADRUPOLE', 'MULLIKEN_CHARGES')
f=open( 'psi4out.xyz', 'w' )
f.write( "13  " )
f.write( str(ee) + "\n" )
f.write( MOL.save_string_xyz() )
f.close()
--------------------------------------------------------------------------

    Molecular point group: c1
  Charge       = 0
  Multiplicity = 1
  Basis Set: CC-PVTZ
  Basis Set:
  @DF-RHF Final Energy:  -321.85557712417761
    Total Energy =                       -321.8555771241777279
    Molecular point group: c1
  Basis Set: CC-PVTZ
  Basis Set:
  Basis Set: CC-PVTZ
  Basis Set:
  @DF-RHF Final Energy:  -321.85287352226828
    Total Energy =                       -321.8528735222681121
  Basis Set: CC-PVTZ
  Basis Set:
  Basis Set: CC-PVTZ
  Basis Set:
  @DF-RHF Final Energy:  -321.84674739401044
    Total Energy =                       -321.8467473940103218
  Basis Set: CC-PVTZ
  Basis Set:
  Basis Set: CC-PVTZ
  Basis Set:
  @DF-RHF Final Energy:  -321.85577084656791
    Total Energy =                       -321.8557708465680207
  Basis Set: CC-PVTZ
  Basis Set:
  @DF-RHF Final Energy:  -321.85591569574234
    Total Energy =                       -321.8559156957423966
  @DF-RHF Final Energy:  -321.85605553073799
    Total Energy =                       -321.8560555307382174
  Basis Set: CC-PVTZ
  Basis Set:
  @DF-RHF Final Energy:  -321.85606344581265
    Total Energy =                       -321.8560634458126515
  Basis Set: CC-PVTZ
  Basis Set:
  Basis Set: CC-PVTZ
  Basis Set:
  @DF-RHF Final Energy:  -321.85606730960660
    Total Energy =                       -321.8560673096067717
  Basis Set: CC-PVTZ
  Basis Set:
  Basis Set: CC-PVTZ
  Basis Set:
  @DF-RHF Final Energy:  -321.85606847614599
    Total Energy =                       -321.8560684761461630
  Basis Set: CC-PVTZ
  Basis Set:
  Charge       = 0
  Multiplicity = 1
  Basis Set: CC-PVTZ
  Basis Set:

    Orbital Energies (a.u.)
    -----------------------

    Doubly Occupied:

       1A    -20.591385     2A    -20.589505     3A    -15.836961
       4A    -11.297394     5A    -11.255399     6A    -11.233234
       7A     -1.636083     8A     -1.420310     9A     -1.131234
      10A     -1.026564    11A     -0.884909    12A     -0.834094
      13A     -0.762912    14A     -0.737694    15A     -0.727304
      16A     -0.658932    17A     -0.616207    18A     -0.591920
      19A     -0.538405    20A     -0.520622    21A     -0.514971
      22A     -0.484222    23A     -0.474462    24A     -0.454186

  @DF-RHF Final Energy:  -321.85606931129530

   => Energetics <=

    Nuclear Repulsion Energy =            249.0924039511340595
    One-Electron Energy =                -932.2591305279364633
    Two-Electron Energy =                 361.3106572655070750
    DFT Exchange-Correlation Energy =       0.0000000000000000
    Empirical Dispersion Energy =           0.0000000000000000
    PCM Polarization Energy =               0.0000000000000000
    EFP Energy =                            0.0000000000000000
    Total Energy =                       -321.8560693112953004
    Molecular point group: c1
  Basis Set: CC-PVTZ
  Basis Set:

  -Total Gradient:
     Atom            X                  Y                   Z
    ------   -----------------  -----------------  -----------------
       1        0.000000885737     0.000001164989    -0.000000115887
       2       -0.000000639738    -0.000001431923     0.000003917742
       3       -0.000069046361    -0.000504872885    -0.000106199308
       4       -0.000002172718    -0.000001653502    -0.000000946602
       5        0.000001221543    -0.000001607907     0.000000125229
       6        0.000052585470     0.000440462132     0.000094032598
       7        0.000045546646     0.000352271263     0.000069058181
       8        0.000003129895     0.000005811787     0.000002467603
       9       -0.000041458542    -0.000307138461    -0.000074894989
      10        0.000002666785    -0.000015916522    -0.000017187023
      11       -0.000003941363    -0.000011102171     0.000008799810
      12        0.000002040621    -0.000004090627     0.000034283591
      13        0.000009182025     0.000048103825    -0.000013340944

  **** Optimization is complete! (in 10 steps) ****
    Final optimized geometry and variables:
    Molecular point group: c1

    Geometry (in Angstrom), charge = 0, multiplicity = 1:

    H            2.914592020280    -1.106754715874    -1.428344376728
    C            2.200628833510    -1.211510208964    -0.621087584301
    C            1.426327991289     0.086074053421    -0.419701626990
    H            1.530924229049    -2.026748025959    -0.867054432594
    H            2.749572678799    -1.484261877028     0.273672494091
    C            0.412315048163    -0.000455590063     0.737474172976
    H            0.905879752939     0.344553613004    -1.332570407552
    H            2.111140971111     0.899151993729    -0.218585449388
    N           -0.955364544231     0.297174044135     0.236977109562
    H            0.357615430728    -0.993800561191     1.149748293254
    H            0.606411991107     0.720575829857     1.511527483054
    O           -1.553705323279    -0.597218707240    -0.261723400089
    O           -1.344516634685     1.411550948485     0.339255055105

  Mulliken Charges: (a.u.)
   Center  Symbol    Alpha    Beta     Spin     Total
       1     H     0.44494  0.44494  0.00000  0.11012
       2     C     3.14927  3.14927  0.00000 -0.29854
       3     C     3.08893  3.08893  0.00000 -0.17786
       4     H     0.44566  0.44566  0.00000  0.10869
       5     H     0.45350  0.45350  0.00000  0.09300
       6     C     3.04292  3.04292  0.00000 -0.08584
       7     H     0.44027  0.44027  0.00000  0.11946
       8     H     0.44290  0.44290  0.00000  0.11419
       9     N     3.27886  3.27886  0.00000  0.44228
      10     H     0.43624  0.43624  0.00000  0.12751
      11     H     0.43054  0.43054  0.00000  0.13893
      12     O     4.17493  4.17493  0.00000 -0.34986
      13     O     4.17104  4.17104  0.00000 -0.34209

   Total alpha = 24.00000, Total beta = 24.00000, Total charge = -0.00000

*** Psi4 exiting successfully. Buy a developer a beer!
