                              Psi4 1.0.54 Driver

  ==> Input File <==

--------------------------------------------------------------------------
set {
	reference rhf
	basis cc-pvtz
}

set_num_threads( 4 )
memory 2 gb

molecule MOL {
0 1

H	 1.695381	 -0.990570	 0.918880
C	 0.826841	 -1.090974	 0.284633
O	 0.000000	 0.000000	 0.518769
H	 1.153191	 -1.128361	 -0.752648
H	 0.326931	 -2.027969	 0.521244
C	 -1.165153	 0.000000	 -0.236961
H	 -1.229451	 0.882440	 -0.870223
H	 -2.002557	 0.000000	 0.445289
H	 -1.229451	 -0.882440	 -0.870223

	symmetry c1
}
set optking {
	frozen_dihedral = ("
		2 3 6 7
	")
}

ee,wfn = optimize('scf', return_wfn=True)
oeprop( wfn, 'DIPOLE', 'QUADRUPOLE', 'MULLIKEN_CHARGES')
f=open( 'psi4out.xyz', 'w' )
f.write( "9  " )
f.write( str(ee) + "\n" )
f.write( MOL.save_string_xyz() )
f.close()
--------------------------------------------------------------------------

    Molecular point group: c1
  Charge       = 0
  Multiplicity = 1
  Basis Set: CC-PVTZ
  Basis Set:
  @DF-RHF Final Energy:  -154.12295149672161
    Total Energy =                       -154.1229514967216119
    Molecular point group: c1
  Basis Set: CC-PVTZ
  Basis Set:
  Basis Set: CC-PVTZ
  Basis Set:
  @DF-RHF Final Energy:  -154.12335701558351
    Total Energy =                       -154.1233570155835366
  Basis Set: CC-PVTZ
  Basis Set:
  Basis Set: CC-PVTZ
  Basis Set:
  @DF-RHF Final Energy:  -154.12344490857942
    Total Energy =                       -154.1234449085793869
  Basis Set: CC-PVTZ
  Basis Set:
  Charge       = 0
  Multiplicity = 1
  Basis Set: CC-PVTZ
  Basis Set:

    Orbital Energies (a.u.)
    -----------------------

    Doubly Occupied:

       1A    -20.546512     2A    -11.263602     3A    -11.262644
       4A     -1.377532     5A     -0.975814     6A     -0.872597
       7A     -0.658562     8A     -0.654893     9A     -0.644656
      10A     -0.559096    11A     -0.527837    12A     -0.475191
      13A     -0.414676

  @DF-RHF Final Energy:  -154.12344546710193

   => Energetics <=

    Nuclear Repulsion Energy =             84.5684253705686615
    One-Electron Energy =                -376.9165161071225612
    Two-Electron Energy =                 138.2246452694519121
    DFT Exchange-Correlation Energy =       0.0000000000000000
    Empirical Dispersion Energy =           0.0000000000000000
    PCM Polarization Energy =               0.0000000000000000
    EFP Energy =                            0.0000000000000000
    Total Energy =                       -154.1234454671019876
    Molecular point group: c1
  Basis Set: CC-PVTZ
  Basis Set:

  -Total Gradient:
     Atom            X                  Y                   Z
    ------   -----------------  -----------------  -----------------
       1        0.000035459179    -0.000038938003    -0.000000226702
       2        0.000124453322    -0.000047605032     0.000067218630
       3       -0.000089813169     0.000009581730    -0.000096012700
       4       -0.000032726024     0.000005123451     0.000009933373
       5       -0.000031979334     0.000052659601    -0.000009093879
       6        0.000038022037    -0.000010170821     0.000005849248
       7       -0.000037019074     0.000025554525     0.000025564587
       8       -0.000014395347    -0.000000150684    -0.000006164654
       9        0.000007998410     0.000003945233     0.000002932097

  **** Optimization is complete! (in 4 steps) ****
    Final optimized geometry and variables:
    Molecular point group: c1

    Geometry (in Angstrom), charge = 0, multiplicity = 1:

    H            1.840509850658    -0.579693987240     0.714208716191
    C            0.971929124820    -0.701458960512     0.083002712828
    O            0.112991993215     0.360725714297     0.338432333674
    H            1.296399729575    -0.715723441088    -0.954989420600
    H            0.507545413115    -1.657823814908     0.312257579009
    C           -1.075442353370     0.372382911523    -0.392071972385
    H           -1.133846160027     1.278072008536    -0.985066584927
    H           -1.922280895503     0.346801179565     0.284241987026
    H           -1.149078587566    -0.478358663751    -1.061784281463

  Mulliken Charges: (a.u.)
   Center  Symbol    Alpha    Beta     Spin     Total
       1     H     0.44986  0.44986  0.00000  0.10028
       2     C     3.02073  3.02073  0.00000 -0.04147
       3     O     4.17305  4.17305  0.00000 -0.34610
       4     H     0.47307  0.47307  0.00000  0.05385
       5     H     0.47306  0.47306  0.00000  0.05387
       6     C     3.01606  3.01606  0.00000 -0.03211
       7     H     0.45984  0.45984  0.00000  0.08032
       8     H     0.45967  0.45967  0.00000  0.08065
       9     H     0.47465  0.47465  0.00000  0.05071

   Total alpha = 13.00000, Total beta = 13.00000, Total charge =  0.00000

*** Psi4 exiting successfully. Buy a developer a beer!
