                              Psi4 1.0.54 Driver

  ==> Input File <==

--------------------------------------------------------------------------
set {
	reference rhf
	basis cc-pvtz
}

set_num_threads( 4 )
memory 2 gb

molecule MOL {
0 1

H	 2.363752	 1.401466	 0.370127
O	 1.449186	 1.460648	 0.574365
C	 0.700177	 0.619554	 -0.266242
C	 -0.713111	 0.588314	 0.266177
H	 1.110138	 -0.385860	 -0.265933
H	 0.697350	 0.993363	 -1.286848
O	 -1.421673	 -0.521378	 -0.196983
H	 -1.244794	 1.469161	 -0.069059
H	 -0.685100	 0.604721	 1.352683
H	 -0.933408	 -1.297830	 0.014544

	symmetry c1
}
set optking {
	frozen_dihedral = ("
		5 3 4 7
	")
}

ee,wfn = optimize('scf', return_wfn=True)
oeprop( wfn, 'DIPOLE', 'QUADRUPOLE', 'MULLIKEN_CHARGES')
f=open( 'psi4out.xyz', 'w' )
f.write( "10  " )
f.write( str(ee) + "\n" )
f.write( MOL.save_string_xyz() )
f.close()
--------------------------------------------------------------------------

    Molecular point group: c1
  Charge       = 0
  Multiplicity = 1
  Basis Set: CC-PVTZ
  Basis Set:
  @DF-RHF Final Energy:  -229.02296524378218
    Total Energy =                       -229.0229652437821812
    Molecular point group: c1
  Basis Set: CC-PVTZ
  Basis Set:
  Basis Set: CC-PVTZ
  Basis Set:
  @DF-RHF Final Energy:  -229.02377611052449
    Total Energy =                       -229.0237761105245795
  Basis Set: CC-PVTZ
  Basis Set:
  Basis Set: CC-PVTZ
  Basis Set:
  @DF-RHF Final Energy:  -229.02419119749527
    Total Energy =                       -229.0241911974952131
  Basis Set: CC-PVTZ
  Basis Set:
  Basis Set: CC-PVTZ
  Basis Set:
  @DF-RHF Final Energy:  -229.02425633454573
    Total Energy =                       -229.0242563345457825
  Basis Set: CC-PVTZ
  Basis Set:
  Basis Set: CC-PVTZ
  Basis Set:
  @DF-RHF Final Energy:  -229.02426324721336
    Total Energy =                       -229.0242632472134119
  Basis Set: CC-PVTZ
  Basis Set:
  Charge       = 0
  Multiplicity = 1
  Basis Set: CC-PVTZ
  Basis Set:

    Orbital Energies (a.u.)
    -----------------------

    Doubly Occupied:

       1A    -20.556726     2A    -20.551977     3A    -11.271802
       4A    -11.267434     5A     -1.379802     6A     -1.365987
       7A     -0.999040     8A     -0.848529     9A     -0.728543
      10A     -0.681361    11A     -0.650405    12A     -0.616406
      13A     -0.576745    14A     -0.528992    15A     -0.497042
      16A     -0.446893    17A     -0.441046

  @DF-RHF Final Energy:  -229.02426341289052

   => Energetics <=

    Nuclear Repulsion Energy =            131.4816639178262392
    One-Electron Energy =                -574.1943934482810619
    Two-Electron Energy =                 213.6884661175641895
    DFT Exchange-Correlation Energy =       0.0000000000000000
    Empirical Dispersion Energy =           0.0000000000000000
    PCM Polarization Energy =               0.0000000000000000
    EFP Energy =                            0.0000000000000000
    Total Energy =                       -229.0242634128906047
    Molecular point group: c1
  Basis Set: CC-PVTZ
  Basis Set:

  -Total Gradient:
     Atom            X                  Y                   Z
    ------   -----------------  -----------------  -----------------
       1       -0.000028619481    -0.000004342634     0.000012155121
       2        0.000000613309    -0.000026705388    -0.000020816758
       3        0.001818016859    -0.000040616347     0.005129774773
       4       -0.001381743103     0.002133458231    -0.003899320421
       5       -0.001216282159    -0.000382017498    -0.003499743035
       6       -0.000012180250    -0.000019267354    -0.000016346300
       7        0.000825253662    -0.001660816007     0.002290865756
       8        0.000005215009     0.000000938136     0.000001075627
       9       -0.000006717279     0.000006433639     0.000007418566
      10       -0.000003556568    -0.000007064780    -0.000005063327

  **** Optimization is complete! (in 6 steps) ****
    Final optimized geometry and variables:
    Molecular point group: c1

    Geometry (in Angstrom), charge = 0, multiplicity = 1:

    H            2.286527521328     1.077622119507     0.154042384793
    O            1.435300012226     0.915658566721     0.515735032276
    C            0.693223554115     0.090519332943    -0.335350712583
    C           -0.742024046230     0.064221689109     0.163469770454
    H            1.081973401208    -0.925848369725    -0.360356432107
    H            0.718445338062     0.457933810282    -1.357656253244
    O           -1.457736819850    -1.018614885167    -0.360273517807
    H           -1.262400822794     0.962388911946    -0.136131565477
    H           -0.728030880303     0.038650587391     1.248686325520
    H           -1.159367039227    -1.819230412014     0.030685422189

  Mulliken Charges: (a.u.)
   Center  Symbol    Alpha    Beta     Spin     Total
       1     H     0.39216  0.39216  0.00000  0.21568
       2     O     4.19911  4.19911  0.00000 -0.39822
       3     C     2.96122  2.96122  0.00000  0.07757
       4     C     2.97338  2.97338  0.00000  0.05324
       5     H     0.48264  0.48264  0.00000  0.03471
       6     H     0.47244  0.47244  0.00000  0.05512
       7     O     4.20409  4.20409  0.00000 -0.40817
       8     H     0.45484  0.45484  0.00000  0.09031
       9     H     0.46707  0.46707  0.00000  0.06586
      10     H     0.39305  0.39305  0.00000  0.21390

   Total alpha = 17.00000, Total beta = 17.00000, Total charge = -0.00000

*** Psi4 exiting successfully. Buy a developer a beer!
