                              Psi4 1.0.54 Driver

  ==> Input File <==

--------------------------------------------------------------------------
set {
	reference rhf
	basis cc-pvtz
}

set_num_threads( 4 )
memory 2 gb

molecule MOL {
0 1

H	 -4.340537	 -0.784487	 0.000000
O	 -3.958786	 0.074640	 0.000000
C	 -2.613554	 0.009900	 0.000000
C	 -2.002945	 -0.634093	 1.063299
C	 -1.841970	 0.555387	 -1.007962
H	 -2.611304	 -1.053585	 1.839693
C	 -0.629967	 -0.729360	 1.113802
H	 -2.308437	 1.056524	 -1.836115
C	 -0.463324	 0.458834	 -0.955705
H	 -0.159489	 -1.227902	 1.937133
C	 0.137217	 -0.182074	 0.103097
H	 0.130950	 0.883297	 -1.739525
Br	 2.029411	 -0.316085	 0.177399

	symmetry c1
}
set optking {
	frozen_dihedral = ("
		4 3 2 1
	")
}

ee,wfn = optimize('scf', return_wfn=True)
oeprop( wfn, 'DIPOLE', 'QUADRUPOLE', 'MULLIKEN_CHARGES')
f=open( 'psi4out.xyz', 'w' )
f.write( "13  " )
f.write( str(ee) + "\n" )
f.write( MOL.save_string_xyz() )
f.close()
--------------------------------------------------------------------------

    Molecular point group: c1
  Charge       = 0
  Multiplicity = 1
  Basis Set: CC-PVTZ
  Basis Set:
  @DF-RHF Final Energy: -2877.54233688697150
    Total Energy =                      -2877.5423368869719525
    Molecular point group: c1
  Basis Set: CC-PVTZ
  Basis Set:
  Basis Set: CC-PVTZ
  Basis Set:
  @DF-RHF Final Energy: -2877.54373447873650
    Total Energy =                      -2877.5437344787364964
  Basis Set: CC-PVTZ
  Basis Set:
  Basis Set: CC-PVTZ
  Basis Set:
  @DF-RHF Final Energy: -2877.54381725810072
    Total Energy =                      -2877.5438172581007166
  Basis Set: CC-PVTZ
  Basis Set:
  Basis Set: CC-PVTZ
  Basis Set:
  @DF-RHF Final Energy: -2877.54382684629309
    Total Energy =                      -2877.5438268462949054
  Basis Set: CC-PVTZ
  Basis Set:
  Charge       = 0
  Multiplicity = 1
  Basis Set: CC-PVTZ
  Basis Set:

    Orbital Energies (a.u.)
    -----------------------

    Doubly Occupied:

       1A   -490.020278     2A    -65.160609     3A    -58.515833
       4A    -58.514467     5A    -58.514455     6A    -20.586186
       7A    -11.305196     8A    -11.292397     9A    -11.252702
      10A    -11.251716    11A    -11.242902    12A    -11.240024
      13A     -9.834411    14A     -7.446033    15A     -7.439255
      16A     -7.439222    17A     -3.189724    18A     -3.186178
      19A     -3.186045    20A     -3.177405    21A     -3.177401
      22A     -1.414850    23A     -1.180534    24A     -1.067487
      25A     -1.041850    26A     -0.970598    27A     -0.863978
      28A     -0.826897    29A     -0.754377    30A     -0.682031
      31A     -0.659197    32A     -0.644684    33A     -0.610321
      34A     -0.601761    35A     -0.554359    36A     -0.530082
      37A     -0.502511    38A     -0.494995    39A     -0.432645
      40A     -0.415163    41A     -0.359233    42A     -0.326069

  @DF-RHF Final Energy: -2877.54382940173855

   => Energetics <=

    Nuclear Repulsion Energy =            525.2254085903280156
    One-Electron Energy =               -5041.7263566338651799
    Two-Electron Energy =                1638.9571186418002071
    DFT Exchange-Correlation Energy =       0.0000000000000000
    Empirical Dispersion Energy =           0.0000000000000000
    PCM Polarization Energy =               0.0000000000000000
    EFP Energy =                            0.0000000000000000
    Total Energy =                      -2877.5438294017371845
    Molecular point group: c1
  Basis Set: CC-PVTZ
  Basis Set:

  -Total Gradient:
     Atom            X                  Y                   Z
    ------   -----------------  -----------------  -----------------
       1        0.000070346707     0.000025536999    -0.002161000191
       2       -0.000125411226     0.000681679748     0.003124327126
       3        0.000045505674    -0.001994208061    -0.001888499862
       4        0.000039615746     0.001339481625     0.000874149932
       5       -0.000157569959    -0.000016030859    -0.000000823717
       6        0.000049899286     0.000009421290    -0.000018381760
       7       -0.000087110066    -0.000053445343     0.000054815272
       8       -0.000056926985    -0.000013526749     0.000031716781
       9        0.000217328239    -0.000069619609     0.000083733136
      10        0.000055482316     0.000009786151    -0.000003572324
      11       -0.000004213998     0.000105832819    -0.000150408909
      12       -0.000019740599    -0.000001282522     0.000010855076
      13       -0.000027205321    -0.000023625510     0.000043089449

  **** Optimization is complete! (in 5 steps) ****
    Final optimized geometry and variables:
    Molecular point group: c1

    Geometry (in Angstrom), charge = 0, multiplicity = 1:

    H           -4.369414872374    -0.623172106464    -0.168246716630
    O           -3.958990347323     0.223460298147    -0.161913832527
    C           -2.604566545514     0.107044737213    -0.108516438993
    C           -1.981694070594    -0.531743702228     0.947264724896
    C           -1.847622745858     0.701767358754    -1.098065396434
    H           -2.572972457433    -0.969366771475     1.728678758848
    C           -0.603287464743    -0.598234052060     1.000763525167
    H           -2.343335501790     1.205949005180    -1.903820215979
    C           -0.468444222742     0.648225600477    -1.041305693818
    H           -0.120277429433    -1.097210829591     1.816397674258
    C            0.145468316212    -0.006486943449     0.005406916199
    H            0.118740934478     1.109868573143    -1.809120736921
    BR           2.040152032538    -0.089259942291     0.081881699982

  Mulliken Charges: (a.u.)
   Center  Symbol    Alpha    Beta     Spin     Total
       1     H     0.38511  0.38511  0.00000  0.22977
       2     O     4.18486  4.18486  0.00000 -0.36972
       3     C     2.87822  2.87822  0.00000  0.24356
       4     C     3.10381  3.10381  0.00000 -0.20763
       5     C     3.09018  3.09018  0.00000 -0.18036
       6     H     0.41836  0.41836  0.00000  0.16329
       7     C     3.08736  3.08736  0.00000 -0.17472
       8     H     0.41309  0.41309  0.00000  0.17381
       9     C     3.08459  3.08459  0.00000 -0.16918
      10     H     0.41037  0.41037  0.00000  0.17925
      11     C     2.96894  2.96894  0.00000  0.06213
      12     H     0.41026  0.41026  0.00000  0.17947
      13    BR    17.56483 17.56483  0.00000 -0.12967

   Total alpha = 42.00000, Total beta = 42.00000, Total charge = -0.00000

*** Psi4 exiting successfully. Buy a developer a beer!
