  ==> Input File <==

--------------------------------------------------------------------------
set {
	reference rhf
	basis 6-31G*
}

set_num_threads( 1 )
memory 2 gb

molecule MOL {
0 1

O	 2.862325	 1.357334	 0.000267
C	 2.843464	 0.164689	 -0.000222
C	 1.546494	 -0.624492	 -0.000609
C	 4.124123	 -0.644674	 -0.000428
C	 0.291004	 0.242674	 0.000989
H	 1.557904	 -1.283758	 -0.867573
H	 1.558622	 -1.285963	 0.864672
C	 -0.990048	 -0.580145	 -0.146104
H	 0.358520	 0.967844	 -0.803809
H	 0.256947	 0.817662	 0.920976
C	 -2.255483	 0.279160	 -0.147142
H	 -0.947697	 -1.156882	 -1.068940
H	 -1.050605	 -1.306398	 0.663190
C	 -3.541122	 -0.536661	 -0.294048
H	 -2.196356	 1.005069	 -0.956203
H	 -2.299320	 0.855498	 0.775306
C	 -4.800820	 0.328697	 -0.294456
H	 -3.498986	 -1.112291	 -1.216381
H	 -3.602101	 -1.261630	 0.515001
H	 -4.785860	 1.042302	 -1.113415
H	 -5.695112	 -0.277663	 -0.400615
H	 -4.890338	 0.891030	 0.630700
H	 4.165367	 -1.288615	 -0.874074
H	 4.976217	 0.020734	 -0.001915
H	 4.166763	 -1.286207	 0.874930

	symmetry c1
}
set optking {
	frozen_dihedral = ("
		9 5 8 12,
		15 11 8 12,
		15 11 14 18,
		1 2 3 6
	")
}

ee = energy('scf')
oeprop('DIPOLE', 'QUADRUPOLE', 'MULLIKEN_CHARGES')
f=open( 'psi4out.xyz', 'w' )
f.write( "25  " )
f.write( str(ee) + "\n" )
f.write( MOL.save_string_xyz() )
f.close()
--------------------------------------------------------------------------

    Molecular point group: c1

    Geometry (in Angstrom), charge = 0, multiplicity = 1:

       Center              X                  Y                   Z               Mass
    ------------   -----------------  -----------------  -----------------  -----------------
           O          2.859400936267     1.352918686151     0.099035444240    15.994914619560
           C          2.840539936267     0.160273686151     0.098546444240    12.000000000000
           C          1.543569936267    -0.628907313849     0.098159444240    12.000000000000
           C          4.121198936267    -0.649089313849     0.098340444240    12.000000000000
           C          0.288079936267     0.238258686151     0.099757444240    12.000000000000
           H          1.554979936267    -1.288173313849    -0.768804555760     1.007825032070
           H          1.555697936267    -1.290378313849     0.963440444240     1.007825032070
           C         -0.992972063733    -0.584560313849    -0.047335555760    12.000000000000
           H          0.355595936267     0.963428686151    -0.705040555760     1.007825032070
           H          0.254022936267     0.813246686151     1.019744444240     1.007825032070
           C         -2.258407063733     0.274744686151    -0.048373555760    12.000000000000
           H         -0.950621063733    -1.161297313849    -0.970171555760     1.007825032070
           H         -1.053529063733    -1.310813313849     0.761958444240     1.007825032070
           C         -3.544046063733    -0.541076313849    -0.195279555760    12.000000000000
           H         -2.199280063733     1.000653686151    -0.857434555760     1.007825032070
           H         -2.302244063733     0.851082686151     0.874074444240     1.007825032070
           C         -4.803744063733     0.324281686151    -0.195687555760    12.000000000000
           H         -3.501910063733    -1.116706313849    -1.117612555760     1.007825032070
           H         -3.605025063733    -1.266045313849     0.613769444240     1.007825032070
           H         -4.788784063733     1.037886686151    -1.014646555760     1.007825032070
           H         -5.698036063733    -0.282078313849    -0.301846555760     1.007825032070
           H         -4.893262063733     0.886614686151     0.729468444240     1.007825032070
           H          4.162442936267    -1.293030313849    -0.775305555760     1.007825032070
           H          4.973292936267     0.016318686151     0.096853444240     1.007825032070
           H          4.163838936267    -1.290622313849     0.973698444240     1.007825032070

  Charge       = 0
  Multiplicity = 1
  Basis Set: 6-31G*
  Basis Set:

    Orbital Energies (a.u.)
    -----------------------

    Doubly Occupied:

       1A    -20.550478     2A    -11.326348     3A    -11.231847
       4A    -11.228367     5A    -11.217036     6A    -11.216428
       7A    -11.215340     8A    -11.213483     9A    -11.208295
      10A     -1.395805    11A     -1.093594    12A     -1.056310
      13A     -1.014518    14A     -0.969243    15A     -0.890690
      16A     -0.814083    17A     -0.790802    18A     -0.729921
      19A     -0.661720    20A     -0.651784    21A     -0.631883
      22A     -0.624113    23A     -0.595920    24A     -0.584266
      25A     -0.566476    26A     -0.559898    27A     -0.540105
      28A     -0.526157    29A     -0.512726    30A     -0.490125
      31A     -0.487514    32A     -0.473129    33A     -0.463769
      34A     -0.462255    35A     -0.450690    36A     -0.399471

  @DF-RHF Final Energy:  -387.13641901366697

   => Energetics <=

    Nuclear Repulsion Energy =            438.3691601772905528
    One-Electron Energy =               -1393.3219676523854105
    Two-Electron Energy =                 567.8163884614291419
    DFT Exchange-Correlation Energy =       0.0000000000000000
    Empirical Dispersion Energy =           0.0000000000000000
    PCM Polarization Energy =               0.0000000000000000
    EFP Energy =                            0.0000000000000000
    Total Energy =                       -387.1364190136657726

  Mulliken Charges: (a.u.)
   Center  Symbol    Alpha    Beta     Spin     Total
       1     O     4.26112  4.26112  0.00000 -0.52224
       2     C     2.73580  2.73580  0.00000  0.52840
       3     C     3.21097  3.21097  0.00000 -0.42195
       4     C     3.28664  3.28664  0.00000 -0.57328
       5     C     3.14823  3.14823  0.00000 -0.29645
       6     H     0.41010  0.41010  0.00000  0.17979
       7     H     0.40975  0.40975  0.00000  0.18050
       8     C     3.15398  3.15398  0.00000 -0.30796
       9     H     0.41022  0.41022  0.00000  0.17956
      10     H     0.41378  0.41378  0.00000  0.17245
      11     C     3.15075  3.15075  0.00000 -0.30149
      12     H     0.42471  0.42471  0.00000  0.15058
      13     H     0.42502  0.42502  0.00000  0.14996
      14     C     3.15150  3.15150  0.00000 -0.30300
      15     H     0.42225  0.42225  0.00000  0.15549
      16     H     0.42262  0.42262  0.00000  0.15477
      17     C     3.23933  3.23933  0.00000 -0.47867
      18     H     0.42351  0.42351  0.00000  0.15297
      19     H     0.42357  0.42357  0.00000  0.15286
      20     H     0.42132  0.42132  0.00000  0.15736
      21     H     0.41954  0.41954  0.00000  0.16093
      22     H     0.42142  0.42142  0.00000  0.15715
      23     H     0.40874  0.40874  0.00000  0.18252
      24     H     0.39645  0.39645  0.00000  0.20709
      25     H     0.40868  0.40868  0.00000  0.18264

   Total alpha = 36.00000, Total beta = 36.00000, Total charge =  0.00000
