  ==> Input File <==

--------------------------------------------------------------------------
set {
	reference rhf
	basis 6-31G*
}

set_num_threads( 4 )
memory 2 gb

molecule MOL {
0 1

H	 -0.944757	 -0.000069	 1.678017
O	 -0.042387	 -0.000390	 1.388199
C	 -0.001487	 0.000018	 -0.026623
C	 -0.912503	 1.104990	 -0.564887
C	 1.439753	 0.205041	 -0.497193
C	 -0.515386	 -1.374328	 -0.440751
H	 -0.936220	 1.105262	 -1.649938
H	 -0.564983	 2.083686	 -0.241950
H	 -1.923774	 0.969711	 -0.197396
H	 1.511610	 0.170780	 -1.579668
H	 1.818645	 1.171114	 -0.171501
H	 2.082443	 -0.564410	 -0.083948
H	 -0.524127	 -1.476923	 -1.521095
H	 -1.523361	 -1.524441	 -0.070695
H	 0.115835	 -2.151275	 -0.024451

	symmetry c1
}
set optking {
	frozen_dihedral = ("
		4 3 2 1
	")
}

ee = optimize('scf')
oeprop('DIPOLE', 'QUADRUPOLE', 'MULLIKEN_CHARGES')
f=open( 'psi4out.xyz', 'w' )
f.write( "15  " )
f.write( str(ee) + "\n" )
f.write( MOL.save_string_xyz() )
f.close()
--------------------------------------------------------------------------

    Molecular point group: c1
  Charge       = 0
  Multiplicity = 1
  Basis Set: 6-31G*
  Basis Set:
  @DF-RHF Final Energy:  -232.15102998479611
    Total Energy =                       -232.1510299847960823
    Molecular point group: c1
  Basis Set: 6-31G*
  Basis Set:
  Basis Set: 6-31G*
  Basis Set:
  @DF-RHF Final Energy:  -232.15274616377388
    Total Energy =                       -232.1527461637739975
  Basis Set: 6-31G*
  Basis Set:
  Basis Set: 6-31G*
  Basis Set:
  @DF-RHF Final Energy:  -232.15316187432038
    Total Energy =                       -232.1531618743205740
  Basis Set: 6-31G*
  Basis Set:
  Basis Set: 6-31G*
  Basis Set:
  @DF-RHF Final Energy:  -232.15314301923109
    Total Energy =                       -232.1531430192308676
  Basis Set: 6-31G*
  Basis Set:
  Basis Set: 6-31G*
  Basis Set:
  @DF-RHF Final Energy:  -232.15317305617197
    Total Energy =                       -232.1531730561719087
  Basis Set: 6-31G*
  Basis Set:
  Charge       = 0
  Multiplicity = 1
  Basis Set: 6-31G*
  Basis Set:

    Orbital Energies (a.u.)
    -----------------------

    Doubly Occupied:

       1A    -20.548964     2A    -11.281815     3A    -11.213173
       4A    -11.209013     5A    -11.205242     6A     -1.360568
       7A     -1.063320     8A     -0.942174     9A     -0.938698
      10A     -0.775615    11A     -0.670170    12A     -0.622620
      13A     -0.621030    14A     -0.574789    15A     -0.556683
      16A     -0.531668    17A     -0.516832    18A     -0.509019
      19A     -0.502832    20A     -0.457511    21A     -0.424834

  @DF-RHF Final Energy:  -232.15317265061074

   => Energetics <=

    Nuclear Repulsion Energy =            200.3628790741847467
    One-Electron Energy =                -711.9789622846260500
    Two-Electron Energy =                 279.4629105598304477
    DFT Exchange-Correlation Energy =       0.0000000000000000
    Empirical Dispersion Energy =           0.0000000000000000
    PCM Polarization Energy =               0.0000000000000000
    EFP Energy =                            0.0000000000000000
    Total Energy =                       -232.1531726506108271
    Molecular point group: c1
  Basis Set: 6-31G*
  Basis Set:

  -Total Gradient:
     Atom            X                  Y                   Z
    ------   -----------------  -----------------  -----------------
       1        0.000037960752     0.001143132430    -0.000091241745
       2       -0.000234171639    -0.001625402235     0.000047383931
       3        0.000716927649     0.000861311001     0.000011202068
       4       -0.000544735869    -0.000450628448     0.000045712749
       5       -0.000006939192    -0.000017960089    -0.000056951177
       6        0.000012855845     0.000025477271     0.000046888992
       7       -0.000008749991     0.000009247816    -0.000005744587
       8        0.000014566552     0.000016323377    -0.000014706022
       9        0.000037022338    -0.000009604341     0.000027915029
      10        0.000008769904    -0.000040604890     0.000024747006
      11       -0.000069057646     0.000043860448    -0.000019193354
      12        0.000024360914     0.000011639687     0.000036094370
      13        0.000013705543    -0.000011175380    -0.000047063997
      14        0.000034596806     0.000034945269    -0.000004451955
      15       -0.000037111966     0.000009438084    -0.000000591310

  **** Optimization is complete! (in 6 steps) ****
    Final optimized geometry and variables:
    Molecular point group: c1

    Geometry (in Angstrom), charge = 0, multiplicity = 1:

    H           -0.849435153957     0.090968939108     1.726043560974
    O            0.034904124682     0.052622013508     1.387764948829
    C           -0.001433989638    -0.001685503277    -0.026412323740
    C           -0.908344796825     1.107501610510    -0.562326430858
    C            1.440194920181     0.210588868277    -0.474166937877
    C           -0.510522480431    -1.375896051611    -0.466519452113
    H           -0.926308380014     1.113358318744    -1.647310233656
    H           -0.562942539206     2.076678636034    -0.218718800600
    H           -1.930938145270     0.970918094096    -0.217273848231
    H            1.523934300600     0.158006721230    -1.554894321459
    H            1.796383011849     1.180403677613    -0.145308698126
    H            2.081350812858    -0.548874243743    -0.040840538431
    H           -0.517430585006    -1.469522766075    -1.548152838142
    H           -1.524737572829    -1.541574462814    -0.111814854249
    H            0.119300141399    -2.157162404092    -0.055963061068

  Mulliken Charges: (a.u.)
   Center  Symbol    Alpha    Beta     Spin     Total
       1     H     0.28363  0.28363  0.00000  0.43275
       2     O     4.37632  4.37632  0.00000 -0.75264
       3     C     2.85293  2.85293  0.00000  0.29414
       4     C     3.24558  3.24558  0.00000 -0.49117
       5     C     3.23359  3.23359  0.00000 -0.46718
       6     C     3.23763  3.23763  0.00000 -0.47526
       7     H     0.41920  0.41920  0.00000  0.16161
       8     H     0.41228  0.41228  0.00000  0.17544
       9     H     0.42637  0.42637  0.00000  0.14725
      10     H     0.42409  0.42409  0.00000  0.15183
      11     H     0.41416  0.41416  0.00000  0.17169
      12     H     0.41278  0.41278  0.00000  0.17445
      13     H     0.42264  0.42264  0.00000  0.15471
      14     H     0.42636  0.42636  0.00000  0.14728
      15     H     0.41245  0.41245  0.00000  0.17510

   Total alpha = 21.00000, Total beta = 21.00000, Total charge = -0.00000
