                              Psi4 1.0.54 Driver

  ==> Input File <==

--------------------------------------------------------------------------
set {
	reference rhf
	basis cc-pvtz
}

set_num_threads( 4 )
memory 2 gb

molecule MOL {
0 1

O	 2.365569	 2.130822	 0.134221
C	 1.292431	 2.560722	 0.405644
C	 0.046609	 1.698423	 0.391442
C	 1.097913	 4.010905	 0.786901
C	 0.288398	 0.247429	 0.000314
H	 -0.406248	 1.761266	 1.378376
H	 -0.667259	 2.165641	 -0.283173
C	 -0.993089	 -0.581367	 -0.000217
H	 1.009270	 -0.189137	 0.682126
H	 0.748166	 0.215640	 -0.980877
C	 -2.258482	 0.271340	 0.000669
H	 -1.002280	 -1.233920	 -0.870484
H	 -1.002061	 -1.235367	 0.868958
C	 -3.544441	 -0.550271	 -0.000253
H	 -2.250545	 0.925250	 -0.867923
H	 -2.250598	 0.923423	 0.870642
C	 -4.804551	 0.308747	 0.000556
H	 -3.553737	 -1.201524	 -0.870151
H	 -3.553831	 -1.203282	 0.868313
H	 -4.842050	 0.949078	 -0.874436
H	 -5.698404	 -0.304480	 -0.000254
H	 -4.842277	 0.947103	 0.876982
H	 0.666813	 4.082182	 1.779433
H	 2.046019	 4.525680	 0.764686
H	 0.407115	 4.488391	 0.100718

	symmetry c1
}
set optking {
	frozen_dihedral = ("
		9 5 8 12
	")
}

ee,wfn = optimize('scf', return_wfn=True)
oeprop( wfn, 'DIPOLE', 'QUADRUPOLE', 'MULLIKEN_CHARGES')
f=open( 'psi4out.xyz', 'w' )
f.write( "25  " )
f.write( str(ee) + "\n" )
f.write( MOL.save_string_xyz() )
f.close()
--------------------------------------------------------------------------

    Molecular point group: c1
  Charge       = 0
  Multiplicity = 1
  Basis Set: CC-PVTZ
  Basis Set:
  @DF-RHF Final Energy:  -387.26126024424269
    Total Energy =                       -387.2612602442429761
    Molecular point group: c1
  Basis Set: CC-PVTZ
  Basis Set:
  Basis Set: CC-PVTZ
  Basis Set:
  @DF-RHF Final Energy:  -387.25843663341709
    Total Energy =                       -387.2584366334168635
  Basis Set: CC-PVTZ
  Basis Set:
  Basis Set: CC-PVTZ
  Basis Set:
  @DF-RHF Final Energy:  -387.26507322803064
    Total Energy =                       -387.2650732280308148
  Basis Set: CC-PVTZ
  Basis Set:
  Basis Set: CC-PVTZ
  Basis Set:
  @DF-RHF Final Energy:  -387.26561697177283
    Total Energy =                       -387.2656169717728289
  Basis Set: CC-PVTZ
  Basis Set:
  Basis Set: CC-PVTZ
  Basis Set:
  @DF-RHF Final Energy:  -387.26418760495210
    Total Energy =                       -387.2641876049517577
  Basis Set: CC-PVTZ
  Basis Set:
  Basis Set: CC-PVTZ
  Basis Set:
  @DF-RHF Final Energy:  -387.26561487561190
    Total Energy =                       -387.2656148756117318
  Basis Set: CC-PVTZ
  Basis Set:
  Basis Set: CC-PVTZ
  Basis Set:
  @DF-RHF Final Energy:  -387.26570341053304
    Total Energy =                       -387.2657034105327511
  Basis Set: CC-PVTZ
  Basis Set:
  Charge       = 0
  Multiplicity = 1
  Basis Set: CC-PVTZ
  Basis Set:

    Orbital Energies (a.u.)
    -----------------------

    Doubly Occupied:

       1A    -20.538453     2A    -11.319974     3A    -11.229229
       4A    -11.226164     5A    -11.215951     6A    -11.215697
       7A    -11.215297     8A    -11.214918     9A    -11.209347
      10A     -1.398520    11A     -1.094224    12A     -1.056586
      13A     -1.014168    14A     -0.968552    15A     -0.900404
      16A     -0.818141    17A     -0.786673    18A     -0.727849
      19A     -0.662958    20A     -0.656350    21A     -0.634306
      22A     -0.623588    23A     -0.597365    24A     -0.584215
      25A     -0.569347    26A     -0.561722    27A     -0.543903
      28A     -0.526448    29A     -0.523183    30A     -0.494580
      31A     -0.493756    32A     -0.477849    33A     -0.459868
      34A     -0.454827    35A     -0.447624    36A     -0.402467

  @DF-RHF Final Energy:  -387.26570358570387

   => Energetics <=

    Nuclear Repulsion Energy =            446.7595270482782439
    One-Electron Energy =               -1410.3214505858923076
    Two-Electron Energy =                 576.2962199519101887
    DFT Exchange-Correlation Energy =       0.0000000000000000
    Empirical Dispersion Energy =           0.0000000000000000
    PCM Polarization Energy =               0.0000000000000000
    EFP Energy =                            0.0000000000000000
    Total Energy =                       -387.2657035857039318
    Molecular point group: c1
  Basis Set: CC-PVTZ
  Basis Set:

  -Total Gradient:
     Atom            X                  Y                   Z
    ------   -----------------  -----------------  -----------------
       1        0.000080387728     0.000032509783    -0.000001515973
       2       -0.000086782505     0.000014547935     0.000020595792
       3        0.000036243303    -0.000020193969     0.000000799331
       4        0.000019502895    -0.000000053648    -0.000026874151
       5        0.001731574450    -0.002989431919    -0.005495241222
       6       -0.000016093003     0.000003438382    -0.000002087420
       7        0.000011134618    -0.000001964923     0.000012123441
       8        0.002596433364    -0.003895062493     0.004399165241
       9       -0.001858836405     0.003138094152     0.004001061171
      10        0.000003127553     0.000000959651     0.000004260640
      11        0.000010010259    -0.000044730448    -0.000090092302
      12       -0.002512389805     0.003801613468    -0.002861078983
      13       -0.000006200848    -0.000025195095    -0.000003270017
      14       -0.000009183227     0.000003963033     0.000008250838
      15       -0.000031374471    -0.000019316765    -0.000016645865
      16        0.000019084834     0.000025051733     0.000014849959
      17        0.000000026644    -0.000003868600     0.000022780589
      18        0.000002396902     0.000006944178    -0.000009158983
      19       -0.000003201817    -0.000015408536     0.000007032062
      20        0.000005213267    -0.000000731119    -0.000009444026
      21       -0.000015058912    -0.000007839336     0.000003868258
      22       -0.000004685761     0.000011712061     0.000010348519
      23        0.000004920858    -0.000013950858    -0.000000085826
      24        0.000027429104     0.000009171271     0.000001848138
      25       -0.000003679020    -0.000010257934     0.000008510790

  **** Optimization is complete! (in 8 steps) ****
    Final optimized geometry and variables:
    Molecular point group: c1

    Geometry (in Angstrom), charge = 0, multiplicity = 1:

    O            3.173663270110     0.919812809845    -0.097162923137
    C            2.147805812957     1.433238280212     0.209622933842
    C            0.831084888628     0.681596704992     0.226497984662
    C            2.086905318657     2.890998288813     0.608239851686
    C            0.958040351721    -0.783136174504    -0.185431026351
    H            0.423580403066     0.773823803567     1.229984035367
    H            0.145095838080     1.225052418030    -0.415496634908
    C           -0.347356609135    -1.613939235290    -0.143892145912
    H            1.675232186904    -1.226071701560     0.493233967471
    H            1.396632046867    -0.824107203762    -1.173146820333
    C           -1.668518107691    -0.841534917788    -0.186864856899
    H           -0.352598897132    -2.269713094267    -1.008288062393
    H           -0.347505977712    -2.247542721759     0.736392367388
    C           -2.882735812211    -1.766951592611    -0.199811174930
    H           -1.698597672211    -0.211535672552    -1.072604828047
    H           -1.747966903594    -0.174743141700     0.666396928355
    C           -4.209318967024    -1.015496133836    -0.237344956485
    H           -2.820283084892    -2.429641063017    -1.058444679056
    H           -2.855778989606    -2.405544929961     0.678944754451
    H           -4.282236121220    -0.393497032019    -1.123418973986
    H           -5.048919322952    -1.701007923571    -0.245679794512
    H           -4.318900417275    -0.369989093989     0.627930264249
    H            1.690961070763     2.987867770020     1.613152625774
    H            3.074230603108     3.324326974414     0.563547072053
    H            1.420484543674     3.432333359209    -0.054175300318

  Mulliken Charges: (a.u.)
   Center  Symbol    Alpha    Beta     Spin     Total
       1     O     4.17036  4.17036  0.00000 -0.34072
       2     C     2.86363  2.86363  0.00000  0.27274
       3     C     3.11822  3.11822  0.00000 -0.23643
       4     C     3.15113  3.15113  0.00000 -0.30225
       5     C     3.08964  3.08964  0.00000 -0.17927
       6     H     0.44437  0.44437  0.00000  0.11125
       7     H     0.44219  0.44219  0.00000  0.11562
       8     C     3.09783  3.09783  0.00000 -0.19567
       9     H     0.44267  0.44267  0.00000  0.11466
      10     H     0.44284  0.44284  0.00000  0.11433
      11     C     3.09264  3.09264  0.00000 -0.18528
      12     H     0.44933  0.44933  0.00000  0.10134
      13     H     0.44991  0.44991  0.00000  0.10019
      14     C     3.08475  3.08475  0.00000 -0.16950
      15     H     0.45422  0.45422  0.00000  0.09157
      16     H     0.45355  0.45355  0.00000  0.09289
      17     C     3.14991  3.14991  0.00000 -0.29982
      18     H     0.45308  0.45308  0.00000  0.09383
      19     H     0.45416  0.45416  0.00000  0.09167
      20     H     0.45536  0.45536  0.00000  0.08927
      21     H     0.44769  0.44769  0.00000  0.10461
      22     H     0.45585  0.45585  0.00000  0.08829
      23     H     0.45084  0.45084  0.00000  0.09832
      24     H     0.43511  0.43511  0.00000  0.12979
      25     H     0.45072  0.45072  0.00000  0.09856

   Total alpha = 36.00000, Total beta = 36.00000, Total charge =  0.00000

*** Psi4 exiting successfully. Buy a developer a beer!
