                              Psi4 1.0.54 Driver

  ==> Input File <==

--------------------------------------------------------------------------
set {
	reference rhf
	basis cc-pvtz
}

set_num_threads( 4 )
memory 2 gb

molecule MOL {
0 1

H	 1.597384	 1.422011	 -2.163896
C	 0.870819	 1.247184	 -1.381068
C	 1.322304	 0.099773	 -0.484271
H	 0.761288	 2.167488	 -0.818562
H	 -0.079794	 1.027531	 -1.853750
C	 0.308557	 -0.162619	 0.622645
H	 2.280062	 0.331948	 -0.035353
H	 1.445783	 -0.803745	 -1.068520
N	 -1.069352	 -0.004081	 0.085342
H	 0.371632	 -1.172932	 0.991288
H	 0.400391	 0.548875	 1.426218
O	 -1.584901	 -0.965470	 -0.377818
O	 -1.548033	 1.079343	 0.130056

	symmetry c1
}
set optking {
	frozen_dihedral = ("
		7 3 6 9
	")
}

ee,wfn = optimize('scf', return_wfn=True)
oeprop( wfn, 'DIPOLE', 'QUADRUPOLE', 'MULLIKEN_CHARGES')
f=open( 'psi4out.xyz', 'w' )
f.write( "13  " )
f.write( str(ee) + "\n" )
f.write( MOL.save_string_xyz() )
f.close()
--------------------------------------------------------------------------

    Molecular point group: c1
  Charge       = 0
  Multiplicity = 1
  Basis Set: CC-PVTZ
  Basis Set:
  @DF-RHF Final Energy:  -321.85513104393829
    Total Energy =                       -321.8551310439382860
    Molecular point group: c1
  Basis Set: CC-PVTZ
  Basis Set:
  Basis Set: CC-PVTZ
  Basis Set:
  @DF-RHF Final Energy:  -321.85269286673019
    Total Energy =                       -321.8526928667303650
  Basis Set: CC-PVTZ
  Basis Set:
  Basis Set: CC-PVTZ
  Basis Set:
  @DF-RHF Final Energy:  -321.85508764786778
    Total Energy =                       -321.8550876478677765
  Basis Set: CC-PVTZ
  Basis Set:
  Basis Set: CC-PVTZ
  Basis Set:
  @DF-RHF Final Energy:  -321.85819458081289
    Total Energy =                       -321.8581945808127784
  Basis Set: CC-PVTZ
  Basis Set:
  @DF-RHF Final Energy:  -321.85853322465437
    Total Energy =                       -321.8585332246544226
  @DF-RHF Final Energy:  -321.85875097391181
    Total Energy =                       -321.8587509739116399
  @DF-RHF Final Energy:  -321.85881467187210
    Total Energy =                       -321.8588146718720395
  @DF-RHF Final Energy:  -321.85892420454843
    Total Energy =                       -321.8589242045484298
  Basis Set: CC-PVTZ
  Basis Set:
  @DF-RHF Final Energy:  -321.85898729568760
    Total Energy =                       -321.8589872956876548
  Basis Set: CC-PVTZ
  Basis Set:
  Basis Set: CC-PVTZ
  Basis Set:
  @DF-RHF Final Energy:  -321.85900368809138
    Total Energy =                       -321.8590036880913203
  Basis Set: CC-PVTZ
  Basis Set:
  Basis Set: CC-PVTZ
  Basis Set:
  @DF-RHF Final Energy:  -321.85900517390223
    Total Energy =                       -321.8590051739025171
  Basis Set: CC-PVTZ
  Basis Set:
  Charge       = 0
  Multiplicity = 1
  Basis Set: CC-PVTZ
  Basis Set:

    Orbital Energies (a.u.)
    -----------------------

    Doubly Occupied:

       1A    -20.593380     2A    -20.588746     3A    -15.836882
       4A    -11.297469     5A    -11.253862     6A    -11.227994
       7A     -1.636609     8A     -1.420794     9A     -1.131675
      10A     -1.021155    11A     -0.895466    12A     -0.822528
      13A     -0.757273    14A     -0.740691    15A     -0.729552
      16A     -0.662714    17A     -0.611071    18A     -0.591928
      19A     -0.533485    20A     -0.518772    21A     -0.512608
      22A     -0.485162    23A     -0.475020    24A     -0.454479

  @DF-RHF Final Energy:  -321.85900526916453

   => Energetics <=

    Nuclear Repulsion Energy =            254.7707945294014564
    One-Electron Energy =                -943.6609693099005653
    Two-Electron Energy =                 367.0311695113347241
    DFT Exchange-Correlation Energy =       0.0000000000000000
    Empirical Dispersion Energy =           0.0000000000000000
    PCM Polarization Energy =               0.0000000000000000
    EFP Energy =                            0.0000000000000000
    Total Energy =                       -321.8590052691644132
    Molecular point group: c1
  Basis Set: CC-PVTZ
  Basis Set:

  -Total Gradient:
     Atom            X                  Y                   Z
    ------   -----------------  -----------------  -----------------
       1        0.000001202163    -0.000000753073     0.000002437703
       2       -0.000019277319    -0.000015147706     0.000012430787
       3        0.001755600137    -0.004635953865    -0.000339281419
       4        0.000003239445    -0.000007651022    -0.000000800876
       5        0.000000075635     0.000000719576     0.000001323264
       6       -0.000291190669    -0.004102365086    -0.001678781417
       7       -0.001461961393     0.005000473919     0.000672337258
       8       -0.000009866890     0.000010062677    -0.000004343187
       9       -0.000026971746     0.003733843927     0.001332101912
      10        0.000004634399     0.000010474521     0.000006286791
      11       -0.000008294089     0.000005609508    -0.000006714932
      12        0.000023282779     0.000021819175     0.000020019034
      13        0.000029527547    -0.000021132550    -0.000017014918

  **** Optimization is complete! (in 12 steps) ****
    Final optimized geometry and variables:
    Molecular point group: c1

    Geometry (in Angstrom), charge = 0, multiplicity = 1:

    H            1.885332542255     1.515791633632    -1.905254082310
    C            1.146457380085     1.239186213214    -1.164107807370
    C            1.610124773596    -0.010270860405    -0.416479171271
    H            1.017697027655     2.078121234490    -0.490351541799
    H            0.209233935728     1.074270885861    -1.679594087606
    C            0.699974189683    -0.429373685839     0.739498458403
    H            2.572670098195     0.210860267145     0.030138969515
    H            1.732141258938    -0.834112990951    -1.105323974151
    N           -0.737540675187    -0.302005042597     0.373797306537
    H            0.846391521136    -1.462960723268     1.008473846349
    H            0.828717928076     0.205917703822     1.598671628089
    O           -1.153756071851    -1.062430090341    -0.436412721386
    O           -1.366680665004     0.551317367291     0.900428394099

  Mulliken Charges: (a.u.)
   Center  Symbol    Alpha    Beta     Spin     Total
       1     H     0.44568  0.44568  0.00000  0.10863
       2     C     3.14989  3.14989  0.00000 -0.29977
       3     C     3.09527  3.09527  0.00000 -0.19054
       4     H     0.44796  0.44796  0.00000  0.10409
       5     H     0.44325  0.44325  0.00000  0.11349
       6     C     3.04630  3.04630  0.00000 -0.09260
       7     H     0.44615  0.44615  0.00000  0.10770
       8     H     0.44013  0.44013  0.00000  0.11974
       9     N     3.28008  3.28008  0.00000  0.43985
      10     H     0.42874  0.42874  0.00000  0.14252
      11     H     0.43238  0.43238  0.00000  0.13524
      12     O     4.17443  4.17443  0.00000 -0.34885
      13     O     4.16974  4.16974  0.00000 -0.33949

   Total alpha = 24.00000, Total beta = 24.00000, Total charge = -0.00000

*** Psi4 exiting successfully. Buy a developer a beer!
