                              Psi4 1.0.54 Driver

  ==> Input File <==

--------------------------------------------------------------------------
set {
	reference rhf
	basis cc-pvtz
}

set_num_threads( 4 )
memory 2 gb

molecule MOL {
0 1

O	 -1.937835	 -2.267998	 0.347376
C	 -1.284058	 -1.902465	 -0.574791
C	 -0.881910	 -0.448129	 -0.720509
C	 -0.804384	 -2.863976	 -1.636006
C	 0.376695	 -0.140025	 0.100361
H	 -1.705608	 0.156964	 -0.363444
H	 -0.709418	 -0.208178	 -1.764317
C	 1.630207	 -0.772146	 -0.501001
H	 0.486632	 0.935267	 0.162725
H	 0.248225	 -0.501310	 1.117842
C	 2.907848	 -0.545876	 0.309149
H	 1.772784	 -0.391628	 -1.509394
H	 1.468529	 -1.842059	 -0.599744
C	 3.373802	 0.906639	 0.372125
H	 3.699140	 -1.146831	 -0.127906
H	 2.764321	 -0.923458	 1.318191
H	 3.519798	 1.311927	 -0.623875
H	 4.316899	 0.983758	 0.900700
H	 2.661122	 1.540651	 0.885346
H	 -1.304447	 -2.639775	 -2.572846
H	 -1.024018	 -3.879549	 -1.344560
H	 0.260169	 -2.747337	 -1.805451

	symmetry c1
}
set optking {
	frozen_dihedral = ("
		6 3 5 8
	")
}

ee,wfn = optimize('scf', return_wfn=True)
oeprop( wfn, 'DIPOLE', 'QUADRUPOLE', 'MULLIKEN_CHARGES')
f=open( 'psi4out.xyz', 'w' )
f.write( "22  " )
f.write( str(ee) + "\n" )
f.write( MOL.save_string_xyz() )
f.close()
--------------------------------------------------------------------------

    Molecular point group: c1
  Charge       = 0
  Multiplicity = 1
  Basis Set: CC-PVTZ
  Basis Set:
  @DF-RHF Final Energy:  -348.21826652199275
    Total Energy =                       -348.2182665219931437
    Molecular point group: c1
  Basis Set: CC-PVTZ
  Basis Set:
  Basis Set: CC-PVTZ
  Basis Set:
  @DF-RHF Final Energy:  -348.22085297014451
    Total Energy =                       -348.2208529701439943
  Basis Set: CC-PVTZ
  Basis Set:
  Basis Set: CC-PVTZ
  Basis Set:
  @DF-RHF Final Energy:  -348.22003136619361
    Total Energy =                       -348.2200313661936661
  Basis Set: CC-PVTZ
  Basis Set:
  Basis Set: CC-PVTZ
  Basis Set:
  @DF-RHF Final Energy:  -348.22165793719228
    Total Energy =                       -348.2216579371915373
  Basis Set: CC-PVTZ
  Basis Set:
  @DF-RHF Final Energy:  -348.22199145881712
    Total Energy =                       -348.2219914588165466
  @DF-RHF Final Energy:  -348.22228281513384
    Total Energy =                       -348.2222828151337808
  @DF-RHF Final Energy:  -348.22265041790160
    Total Energy =                       -348.2226504179018320
  @DF-RHF Final Energy:  -348.22308559603107
    Total Energy =                       -348.2230855960308418
  @DF-RHF Final Energy:  -348.22355092515829
    Total Energy =                       -348.2235509251585199
  @DF-RHF Final Energy:  -348.22375693525646
    Total Energy =                       -348.2237569352560058
  @DF-RHF Final Energy:  -348.22403845397787
    Total Energy =                       -348.2240384539778120
  @DF-RHF Final Energy:  -348.22322210940700
    Total Energy =                       -348.2232221094068336
  @DF-RHF Final Energy:  -348.22277533790020
    Total Energy =                       -348.2227753378998045
  @DF-RHF Final Energy:  -348.22433905909742
    Total Energy =                       -348.2243390590970762
  @DF-RHF Final Energy:  -348.22422231737136
    Total Energy =                       -348.2242223173711295
  Basis Set: CC-PVTZ
  Basis Set:
  @DF-RHF Final Energy:  -348.22446803147801
    Total Energy =                       -348.2244680314779544
  Basis Set: CC-PVTZ
  Basis Set:
  Basis Set: CC-PVTZ
  Basis Set:
  @DF-RHF Final Energy:  -348.22447962940794
    Total Energy =                       -348.2244796294080516
  Basis Set: CC-PVTZ
  Basis Set:
  Basis Set: CC-PVTZ
  Basis Set:
  @DF-RHF Final Energy:  -348.22448098943840
    Total Energy =                       -348.2244809894382342
  Basis Set: CC-PVTZ
  Basis Set:
  Charge       = 0
  Multiplicity = 1
  Basis Set: CC-PVTZ
  Basis Set:

    Orbital Energies (a.u.)
    -----------------------

    Doubly Occupied:

       1A    -20.538979     2A    -11.321496     3A    -11.230873
       4A    -11.227193     5A    -11.215652     6A    -11.211027
       7A    -11.209609     8A    -11.205070     9A     -1.399541
      10A     -1.089645    11A     -1.043021    12A     -1.001348
      13A     -0.934041    14A     -0.855484    15A     -0.781867
      16A     -0.728873    17A     -0.667701    18A     -0.633402
      19A     -0.631491    20A     -0.612507    21A     -0.603349
      22A     -0.581351    23A     -0.562104    24A     -0.548750
      25A     -0.523856    26A     -0.516516    27A     -0.499244
      28A     -0.489429    29A     -0.462575    30A     -0.459204
      31A     -0.449387    32A     -0.402189

  @DF-RHF Final Energy:  -348.22448158066084

   => Energetics <=

    Nuclear Repulsion Energy =            379.1306406532276014
    One-Electron Energy =               -1223.4366955521138607
    Two-Electron Energy =                 496.0815733182255940
    DFT Exchange-Correlation Energy =       0.0000000000000000
    Empirical Dispersion Energy =           0.0000000000000000
    PCM Polarization Energy =               0.0000000000000000
    EFP Energy =                            0.0000000000000000
    Total Energy =                       -348.2244815806606653
    Molecular point group: c1
  Basis Set: CC-PVTZ
  Basis Set:

  -Total Gradient:
     Atom            X                  Y                   Z
    ------   -----------------  -----------------  -----------------
       1       -0.000006521588    -0.000077042990     0.000001490756
       2        0.000000042126     0.000037058258    -0.000022046315
       3        0.000159166623     0.000344252014    -0.000430457773
       4        0.000002882676     0.000044669690     0.000056614296
       5        0.000092565749     0.000336284244    -0.000317279908
       6       -0.000169428379    -0.000361868024     0.000430537639
       7        0.000004427271     0.000008793301    -0.000015827596
       8       -0.000113817701    -0.000327026975     0.000303820412
       9        0.000001068304    -0.000001559331    -0.000000652048
      10       -0.000003009484     0.000007053108     0.000008063205
      11        0.000003613415    -0.000003815328    -0.000013035180
      12        0.000007371675     0.000003694300     0.000001340692
      13       -0.000001971554     0.000008727093    -0.000007031026
      14        0.000001063061     0.000005427552     0.000007152414
      15       -0.000002001539     0.000001287186     0.000002860741
      16       -0.000001044669    -0.000000493047    -0.000001657753
      17        0.000001170340    -0.000000567501    -0.000000347614
      18        0.000002308026     0.000005716914     0.000002150693
      19        0.000002484830     0.000001539361    -0.000001734376
      20        0.000005456171     0.000001238586    -0.000010861155
      21       -0.000001440096    -0.000022470953     0.000003604577
      22        0.000015614747    -0.000010897454     0.000003295319

  **** Optimization is complete! (in 19 steps) ****
    Final optimized geometry and variables:
    Molecular point group: c1

    Geometry (in Angstrom), charge = 0, multiplicity = 1:

    O           -1.268860104298    -1.677477382606     0.579243950172
    C           -1.548177688301    -1.119281744369    -0.431085261585
    C           -1.158845150882     0.322377124956    -0.698907534251
    C           -2.340857220824    -1.807996320164    -1.517803449781
    C           -0.092184707554     0.889325615407     0.232171305337
    H           -2.080876830908     0.892580326836    -0.602974395928
    H           -0.861864128980     0.417915594343    -1.739506214920
    C            1.299990189754     0.306973982740    -0.011593080011
    H           -0.070860746472     1.964993031968     0.099176024022
    H           -0.386864683365     0.702558583988     1.258034719617
    C            2.369988167629     0.799263655108     0.964293103836
    H            1.612066141101     0.538921064126    -1.028529674592
    H            1.245221874340    -0.772841990375     0.058863396074
    C            2.693477203508     2.288076412915     0.863667830052
    H            3.279297825014     0.233407289086     0.787049250666
    H            2.060792224288     0.563977541599     1.978746027340
    H            2.996295763132     2.554267189915    -0.144272118802
    H            3.506446652927     2.550206188640     1.531093730368
    H            1.844993160610     2.907558922980     1.128500877705
    H           -3.150630197661    -1.176972455949    -1.865642902445
    H           -2.731498774916    -2.745106186197    -1.151797672449
    H           -1.691492224201    -1.997136145887    -2.366511417563

  Mulliken Charges: (a.u.)
   Center  Symbol    Alpha    Beta     Spin     Total
       1     O     4.17397  4.17397  0.00000 -0.34795
       2     C     2.85864  2.85864  0.00000  0.28271
       3     C     3.12203  3.12203  0.00000 -0.24406
       4     C     3.15133  3.15133  0.00000 -0.30267
       5     C     3.09417  3.09417  0.00000 -0.18833
       6     H     0.43520  0.43520  0.00000  0.12961
       7     H     0.44379  0.44379  0.00000  0.11242
       8     C     3.09609  3.09609  0.00000 -0.19219
       9     H     0.44450  0.44450  0.00000  0.11100
      10     H     0.44498  0.44498  0.00000  0.11004
      11     C     3.09232  3.09232  0.00000 -0.18464
      12     H     0.45782  0.45782  0.00000  0.08435
      13     H     0.44040  0.44040  0.00000  0.11919
      14     C     3.15270  3.15270  0.00000 -0.30540
      15     H     0.44861  0.44861  0.00000  0.10279
      16     H     0.45089  0.45089  0.00000  0.09823
      17     H     0.45606  0.45606  0.00000  0.08787
      18     H     0.44618  0.44618  0.00000  0.10764
      19     H     0.45448  0.45448  0.00000  0.09105
      20     H     0.45068  0.45068  0.00000  0.09863
      21     H     0.43580  0.43580  0.00000  0.12840
      22     H     0.44935  0.44935  0.00000  0.10131

   Total alpha = 32.00000, Total beta = 32.00000, Total charge = -0.00000

*** Psi4 exiting successfully. Buy a developer a beer!
