  ==> Input File <==

--------------------------------------------------------------------------
set {
	reference rhf
	basis 6-31G*
}

set_num_threads( 1 )
memory 2 gb

molecule MOL {
0 1

H	 -3.161837	 0.500524	 -0.000234
C	 -2.367097	 -0.232926	 -0.000000
O	 -1.158440	 0.455814	 -0.000122
H	 -2.468853	 -0.861886	 -0.882833
H	 -2.468942	 -0.861421	 0.883154
C	 -0.029776	 -0.365156	 0.000148
C	 1.212217	 0.508981	 0.000007
H	 -0.036772	 -1.013236	 -0.877259
H	 -0.036869	 -1.012778	 0.877897
C	 1.246330	 1.476087	 1.182557
H	 2.086248	 -0.134794	 0.016848
H	 1.246114	 1.058876	 -0.935496
H	 1.237727	 0.944311	 2.129955
H	 2.142273	 2.087225	 1.157236
H	 0.391142	 2.146110	 1.171274

	symmetry c1
}
set optking {
	frozen_dihedral = ("
		6 3 2 4,
		8 6 3 2
	")
}

ee = energy('scf')
oeprop('DIPOLE', 'QUADRUPOLE', 'MULLIKEN_CHARGES')
f=open( 'psi4out.xyz', 'w' )
f.write( "15  " )
f.write( str(ee) + "\n" )
f.write( MOL.save_string_xyz() )
f.close()
--------------------------------------------------------------------------

    Molecular point group: c1

    Geometry (in Angstrom), charge = 0, multiplicity = 1:

       Center              X                  Y                   Z               Mass
    ------------   -----------------  -----------------  -----------------  -----------------
           H         -2.907126662136     0.138587348439    -0.239981275406     1.007825032070
           C         -2.112386662136    -0.594862651561    -0.239747275406    12.000000000000
           O         -0.903729662136     0.093877348439    -0.239869275406    15.994914619560
           H         -2.214142662136    -1.223822651561    -1.122580275406     1.007825032070
           H         -2.214231662136    -1.223357651561     0.643406724594     1.007825032070
           C          0.224934337864    -0.727092651561    -0.239599275406    12.000000000000
           C          1.466927337864     0.147044348439    -0.239740275406    12.000000000000
           H          0.217938337864    -1.375172651561    -1.117006275406     1.007825032070
           H          0.217841337864    -1.374714651561     0.638149724594     1.007825032070
           C          1.501040337864     1.114150348439     0.942809724594    12.000000000000
           H          2.340958337864    -0.496730651561    -0.222899275406     1.007825032070
           H          1.500824337864     0.696939348439    -1.175243275406     1.007825032070
           H          1.492437337864     0.582374348439     1.890207724594     1.007825032070
           H          2.396983337864     1.725288348439     0.917488724594     1.007825032070
           H          0.645852337864     1.784173348439     0.931526724594     1.007825032070

  Charge       = 0
  Multiplicity = 1
  Basis Set: 6-31G*
  Basis Set:

    Orbital Energies (a.u.)
    -----------------------

    Doubly Occupied:

       1A    -20.554516     2A    -11.266502     3A    -11.264793
       4A    -11.214641     5A    -11.202343     6A     -1.379686
       7A     -1.053694     8A     -0.949235     9A     -0.887033
      10A     -0.798369    11A     -0.670312    12A     -0.662010
      13A     -0.633682    14A     -0.593367    15A     -0.560912
      16A     -0.545135    17A     -0.501408    18A     -0.484305
      19A     -0.476343    20A     -0.458897    21A     -0.413609

  @DF-RHF Final Energy:  -232.13938009670096

   => Energetics <=

    Nuclear Repulsion Energy =            193.4003108611548214
    One-Electron Energy =                -697.9380510129487902
    Two-Electron Energy =                 272.3983600550924393
    DFT Exchange-Correlation Energy =       0.0000000000000000
    Empirical Dispersion Energy =           0.0000000000000000
    PCM Polarization Energy =               0.0000000000000000
    EFP Energy =                            0.0000000000000000
    Total Energy =                       -232.1393800967015295

  Mulliken Charges: (a.u.)
   Center  Symbol    Alpha    Beta     Spin     Total
       1     H     0.41224  0.41224  0.00000  0.17551
       2     C     3.07891  3.07891  0.00000 -0.15782
       3     O     4.30329  4.30329  0.00000 -0.60657
       4     H     0.43027  0.43027  0.00000  0.13945
       5     H     0.43003  0.43003  0.00000  0.13994
       6     C     2.98908  2.98908  0.00000  0.02184
       7     C     3.16055  3.16055  0.00000 -0.32110
       8     H     0.43026  0.43026  0.00000  0.13948
       9     H     0.43307  0.43307  0.00000  0.13386
      10     C     3.24132  3.24132  0.00000 -0.48264
      11     H     0.42254  0.42254  0.00000  0.15493
      12     H     0.41567  0.41567  0.00000  0.16866
      13     H     0.42470  0.42470  0.00000  0.15060
      14     H     0.42163  0.42163  0.00000  0.15674
      15     H     0.40644  0.40644  0.00000  0.18713

   Total alpha = 21.00000, Total beta = 21.00000, Total charge = -0.00000
