                              Psi4 1.0.54 Driver

  ==> Input File <==

--------------------------------------------------------------------------
set {
	reference rhf
	basis cc-pvtz
}

set_num_threads( 4 )
memory 2 gb

molecule MOL {
0 1

O	 -2.374409	 1.338660	 -0.336961
C	 -2.104891	 0.204655	 -0.107126
C	 -0.881910	 -0.448129	 -0.720509
C	 -2.949910	 -0.638219	 0.818225
C	 -0.612237	 -1.818126	 -0.085506
H	 -0.037843	 0.206495	 -0.544076
H	 -1.011165	 -0.557255	 -1.792073
C	 0.624128	 -2.495919	 -0.672450
H	 -0.498690	 -1.680964	 0.982446
H	 -1.474840	 -2.464508	 -0.228351
C	 0.908015	 -3.892471	 -0.116611
H	 1.491088	 -1.861044	 -0.507242
H	 0.502861	 -2.570752	 -1.749621
C	 1.290952	 -3.924695	 1.360955
H	 1.714663	 -4.331755	 -0.695106
H	 0.040171	 -4.526368	 -0.278954
H	 2.153077	 -3.294343	 1.553274
H	 1.544383	 -4.932477	 1.669044
H	 0.483958	 -3.583665	 1.997931
H	 -3.440322	 -1.417144	 0.243099
H	 -3.694377	 -0.025850	 1.303346
H	 -2.331085	 -1.129829	 1.560495

	symmetry c1
}
set optking {
	frozen_dihedral = ("
		6 3 2 1
	")
}

ee,wfn = optimize('scf', return_wfn=True)
oeprop( wfn, 'DIPOLE', 'QUADRUPOLE', 'MULLIKEN_CHARGES')
f=open( 'psi4out.xyz', 'w' )
f.write( "22  " )
f.write( str(ee) + "\n" )
f.write( MOL.save_string_xyz() )
f.close()
--------------------------------------------------------------------------

    Molecular point group: c1
  Charge       = 0
  Multiplicity = 1
  Basis Set: CC-PVTZ
  Basis Set:
  @DF-RHF Final Energy:  -348.21526038227540
    Total Energy =                       -348.2152603822749484
    Molecular point group: c1
  Basis Set: CC-PVTZ
  Basis Set:
  Basis Set: CC-PVTZ
  Basis Set:
  @DF-RHF Final Energy:  -348.10235723223713
    Total Energy =                       -348.1023572322368977
  Basis Set: CC-PVTZ
  Basis Set:
  Basis Set: CC-PVTZ
  Basis Set:
  @DF-RHF Final Energy:  -348.19518089365175
    Total Energy =                       -348.1951808936518091
  Basis Set: CC-PVTZ
  Basis Set:
  Basis Set: CC-PVTZ
  Basis Set:
  @DF-RHF Final Energy:  -348.21922560722300
    Total Energy =                       -348.2192256072227678
  Basis Set: CC-PVTZ
  Basis Set:
  @DF-RHF Final Energy:  -348.21961029879225
    Total Energy =                       -348.2196102987921336
  @DF-RHF Final Energy:  -348.22043686186174
    Total Energy =                       -348.2204368618610602
  @DF-RHF Final Energy:  -348.22069121347670
    Total Energy =                       -348.2206912134764707
  Basis Set: CC-PVTZ
  Basis Set:
  @DF-RHF Final Energy:  -348.22070410392791
    Total Energy =                       -348.2207041039275168
  Basis Set: CC-PVTZ
  Basis Set:
  Basis Set: CC-PVTZ
  Basis Set:
  @DF-RHF Final Energy:  -348.22067630914921
    Total Energy =                       -348.2206763091491553
  Basis Set: CC-PVTZ
  Basis Set:
  Basis Set: CC-PVTZ
  Basis Set:
  @DF-RHF Final Energy:  -348.22071945175031
    Total Energy =                       -348.2207194517496305
  Basis Set: CC-PVTZ
  Basis Set:
  Charge       = 0
  Multiplicity = 1
  Basis Set: CC-PVTZ
  Basis Set:

    Orbital Energies (a.u.)
    -----------------------

    Doubly Occupied:

       1A    -20.534272     2A    -11.320722     3A    -11.229041
       4A    -11.227611     5A    -11.226389     6A    -11.222473
       7A    -11.221329     8A    -11.213312     9A     -1.396015
      10A     -1.099790    11A     -1.045984    12A     -0.997728
      13A     -0.942324    14A     -0.864610    15A     -0.789694
      16A     -0.732490    17A     -0.662214    18A     -0.650088
      19A     -0.634531    20A     -0.614981    21A     -0.608962
      22A     -0.583868    23A     -0.557525    24A     -0.545323
      25A     -0.538265    26A     -0.520826    27A     -0.509535
      28A     -0.479630    29A     -0.475002    30A     -0.469371
      31A     -0.465118    32A     -0.398159

  @DF-RHF Final Energy:  -348.22072002045633

   => Energetics <=

    Nuclear Repulsion Energy =            373.0497537035506070
    One-Electron Energy =               -1210.9865859541469035
    Two-Electron Energy =                 489.7161122301400837
    DFT Exchange-Correlation Energy =       0.0000000000000000
    Empirical Dispersion Energy =           0.0000000000000000
    PCM Polarization Energy =               0.0000000000000000
    EFP Energy =                            0.0000000000000000
    Total Energy =                       -348.2207200204562696
    Molecular point group: c1
  Basis Set: CC-PVTZ
  Basis Set:

  -Total Gradient:
     Atom            X                  Y                   Z
    ------   -----------------  -----------------  -----------------
       1       -0.000155856086    -0.000261635390    -0.000671491465
       2        0.000129570225     0.000295700443     0.001067402962
       3        0.000207163347     0.000293705662    -0.001014404349
       4        0.000034998187     0.000036158037     0.000052947802
       5        0.000006088993     0.000000291481     0.000006794738
       6       -0.000215233691    -0.000321742791     0.000620740177
       7       -0.000010474449     0.000003322312     0.000008619719
       8       -0.000014156291    -0.000045598238    -0.000019226098
       9       -0.000004575943    -0.000014180703     0.000019574872
      10        0.000010125276    -0.000001180279     0.000000222536
      11        0.000016953424     0.000033705525     0.000006642909
      12        0.000003073576     0.000001361787    -0.000006160107
      13       -0.000003751921     0.000004276644    -0.000002562844
      14       -0.000010474176    -0.000008810921    -0.000001691924
      15        0.000000374955     0.000005675506     0.000008633710
      16        0.000004374514    -0.000005210607    -0.000006798860
      17        0.000002598155    -0.000003336556     0.000000378615
      18       -0.000006749850     0.000011769474    -0.000002750253
      19       -0.000003248598     0.000015622543    -0.000002881167
      20       -0.000008795984    -0.000017597086    -0.000009003610
      21        0.000020040837    -0.000028161701    -0.000006330447
      22       -0.000002044501     0.000005864863    -0.000048656916

  **** Optimization is complete! (in 11 steps) ****
    Final optimized geometry and variables:
    Molecular point group: c1

    Geometry (in Angstrom), charge = 0, multiplicity = 1:

    O           -0.908964180562     3.019223431347    -0.824059126284
    C           -1.003958696300     1.876762791906    -0.511924543952
    C            0.230637477636     0.985548557215    -0.565033921567
    C           -2.334450318048     1.298478417726    -0.091510108927
    C            0.119595048389    -0.439233470238    -0.028238616766
    H            1.008004350642     1.523647894234    -0.034018575123
    H            0.536924387502     0.970115936513    -1.606491344178
    C            1.441458967336    -1.195885672013    -0.153446161892
    H           -0.189865840116    -0.413902925127     1.010541601706
    H           -0.649514148475    -0.984212044616    -0.567518301202
    C            1.387189019835    -2.656688165624     0.296187229142
    H            2.208077497747    -0.674413139985     0.414607174052
    H            1.761366054383    -1.165821555307    -1.191190191528
    C            1.130923619281    -2.857028943933     1.787887099973
    H            2.331032339823    -3.127120514292     0.039554738784
    H            0.624351303817    -3.179629392025    -0.274612058398
    H            1.874660710063    -2.338128417457     2.384030855680
    H            1.176730454812    -3.908412533917     2.046854083603
    H            0.155084940620    -2.492617366930     2.085860928264
    H           -2.618238984753     0.487493333612    -0.752742993623
    H           -3.083876442366     2.073696231173    -0.125512522814
    H           -2.275050714872     0.890195237541     0.910381615153

  Mulliken Charges: (a.u.)
   Center  Symbol    Alpha    Beta     Spin     Total
       1     O     4.17674  4.17674  0.00000 -0.35347
       2     C     2.86160  2.86160  0.00000  0.27679
       3     C     3.09830  3.09830  0.00000 -0.19661
       4     C     3.16314  3.16314  0.00000 -0.32629
       5     C     3.10574  3.10574  0.00000 -0.21148
       6     H     0.43720  0.43720  0.00000  0.12559
       7     H     0.43787  0.43787  0.00000  0.12426
       8     C     3.09669  3.09669  0.00000 -0.19339
       9     H     0.44784  0.44784  0.00000  0.10432
      10     H     0.45080  0.45080  0.00000  0.09840
      11     C     3.09027  3.09027  0.00000 -0.18054
      12     H     0.45120  0.45120  0.00000  0.09761
      13     H     0.44736  0.44736  0.00000  0.10528
      14     C     3.15289  3.15289  0.00000 -0.30579
      15     H     0.44669  0.44669  0.00000  0.10662
      16     H     0.45423  0.45423  0.00000  0.09154
      17     H     0.45364  0.45364  0.00000  0.09273
      18     H     0.44483  0.44483  0.00000  0.11033
      19     H     0.45483  0.45483  0.00000  0.09034
      20     H     0.44789  0.44789  0.00000  0.10422
      21     H     0.43180  0.43180  0.00000  0.13640
      22     H     0.44845  0.44845  0.00000  0.10311

   Total alpha = 32.00000, Total beta = 32.00000, Total charge = -0.00000

*** Psi4 exiting successfully. Buy a developer a beer!
