  ==> Input File <==

--------------------------------------------------------------------------
set {
	reference rhf
	basis 6-31G*
}

set_num_threads( 1 )
memory 2 gb

molecule MOL {
0 1

H	 2.465338	 -2.224223	 0.000000
O	 2.784187	 -1.332015	 0.000000
C	 1.765313	 -0.449364	 0.000000
C	 0.473209	 -0.965514	 0.000000
C	 1.965132	 0.917460	 -0.000000
H	 0.344151	 -2.031441	 -0.000000
C	 -0.611459	 -0.113128	 -0.000000
H	 2.949466	 1.342445	 -0.000000
C	 0.853481	 1.744533	 -0.000000
H	 -1.605527	 -0.520172	 -0.000000
C	 -0.436845	 1.264316	 -0.000000
N	 1.070457	 3.189666	 -0.000000
H	 -1.268272	 1.938210	 -0.000000
O	 2.198822	 3.580592	 -0.000000
O	 0.108416	 3.894465	 -0.000000

	symmetry c1
}
set optking {
	frozen_dihedral = ("
		11 9 12 14
	")
}

ee = energy('scf')
oeprop('DIPOLE', 'QUADRUPOLE', 'MULLIKEN_CHARGES')
f=open( 'psi4out.xyz', 'w' )
f.write( "15  " )
f.write( str(ee) + "\n" )
f.write( MOL.save_string_xyz() )
f.close()
--------------------------------------------------------------------------

    Molecular point group: c1

    Geometry (in Angstrom), charge = 0, multiplicity = 1:

       Center              X                  Y                   Z               Mass
    ------------   -----------------  -----------------  -----------------  -----------------
           H          1.404821973478    -3.448412447037     0.000000000000     1.007825032070
           O          1.723670973478    -2.556204447037     0.000000000000    15.994914619560
           C          0.704796973478    -1.673553447037     0.000000000000    12.000000000000
           C         -0.587307026522    -2.189703447037     0.000000000000    12.000000000000
           C          0.904615973478    -0.306729447037     0.000000000000    12.000000000000
           H         -0.716365026522    -3.255630447037     0.000000000000     1.007825032070
           C         -1.671975026522    -1.337317447037     0.000000000000    12.000000000000
           H          1.888949973478     0.118255552963     0.000000000000     1.007825032070
           C         -0.207035026522     0.520343552963     0.000000000000    12.000000000000
           H         -2.666043026522    -1.744361447037     0.000000000000     1.007825032070
           C         -1.497361026522     0.040126552963     0.000000000000    12.000000000000
           N          0.009940973478     1.965476552963     0.000000000000    14.003074004780
           H         -2.328788026522     0.714020552963     0.000000000000     1.007825032070
           O          1.138305973478     2.356402552963     0.000000000000    15.994914619560
           O         -0.952100026522     2.670275552963     0.000000000000    15.994914619560

  Charge       = 0
  Multiplicity = 1
  Basis Set: 6-31G*
  Basis Set:

    Orbital Energies (a.u.)
    -----------------------

    Doubly Occupied:

       1A    -20.614111     2A    -20.603462     3A    -20.602842
       4A    -15.857945     5A    -11.331608     6A    -11.311068
       7A    -11.269286     8A    -11.265386     9A    -11.264857
      10A    -11.263687    11A     -1.636590    12A     -1.436349
      13A     -1.419764    14A     -1.200646    15A     -1.095073
      16A     -1.047818    17A     -0.965633    18A     -0.865530
      19A     -0.847520    20A     -0.795867    21A     -0.735471
      22A     -0.733496    23A     -0.722007    24A     -0.711744
      25A     -0.680608    26A     -0.635967    27A     -0.615502
      28A     -0.596352    29A     -0.570140    30A     -0.532370
      31A     -0.515307    32A     -0.491728    33A     -0.488237
      34A     -0.452744    35A     -0.379350    36A     -0.342527

  @DF-RHF Final Energy:  -509.02429741258607

   => Energetics <=

    Nuclear Repulsion Energy =            503.2422577650351059
    One-Electron Energy =               -1692.7357144235988926
    Two-Electron Energy =                 680.4691592459769254
    DFT Exchange-Correlation Energy =       0.0000000000000000
    Empirical Dispersion Energy =           0.0000000000000000
    PCM Polarization Energy =               0.0000000000000000
    EFP Energy =                            0.0000000000000000
    Total Energy =                       -509.0242974125869750

  Mulliken Charges: (a.u.)
   Center  Symbol    Alpha    Beta     Spin     Total
       1     H     0.26657  0.26657  0.00000  0.46686
       2     O     4.37787  4.37787  0.00000 -0.75575
       3     C     2.78394  2.78394  0.00000  0.43212
       4     C     3.13390  3.13390  0.00000 -0.26780
       5     C     3.11753  3.11753  0.00000 -0.23505
       6     H     0.39493  0.39493  0.00000  0.21015
       7     C     3.09926  3.09926  0.00000 -0.19853
       8     H     0.35737  0.35737  0.00000  0.28526
       9     C     2.91173  2.91173  0.00000  0.17655
      10     H     0.38734  0.38734  0.00000  0.22532
      11     C     3.09884  3.09884  0.00000 -0.19768
      12     N     3.24114  3.24114  0.00000  0.51772
      13     H     0.36519  0.36519  0.00000  0.26961
      14     O     4.23190  4.23190  0.00000 -0.46381
      15     O     4.23248  4.23248  0.00000 -0.46496

   Total alpha = 36.00000, Total beta = 36.00000, Total charge = -0.00000
