                              Psi4 1.0.54 Driver

  ==> Input File <==

--------------------------------------------------------------------------
set {
	reference rhf
	basis cc-pvtz
}

set_num_threads( 4 )
memory 2 gb

molecule MOL {
0 1

O	 1.847685	 1.294399	 -0.000190
C	 1.704209	 0.119472	 -0.000093
C	 0.380337	 -0.600947	 -0.000234
O	 2.715427	 -0.733672	 0.000025
C	 -0.824290	 0.329213	 -0.000115
H	 0.371455	 -1.255476	 -0.865660
H	 0.371410	 -1.255787	 0.864952
C	 -1.670417	 0.183125	 1.261133
H	 -1.430921	 0.128315	 -0.875851
H	 -0.484456	 1.353929	 -0.098903
C	 -2.883400	 1.108759	 1.279700
H	 -2.005942	 -0.847290	 1.355573
H	 -1.055322	 0.382780	 2.135795
C	 -3.729364	 0.962447	 2.539997
H	 -3.498966	 0.909551	 0.407030
H	 -2.549356	 2.138319	 1.187073
H	 -4.107295	 -0.049396	 2.642836
H	 -4.581048	 1.632523	 2.520830
H	 -3.150292	 1.189471	 3.429024
C	 4.020999	 -0.192556	 0.000019
H	 4.182809	 0.412891	 -0.879449
H	 4.692590	 -1.035653	 0.000152
H	 4.182726	 0.413087	 0.879368

	symmetry c1
}
set optking {
	frozen_dihedral = ("
		9 5 3 6
	")
}

ee,wfn = optimize('scf', return_wfn=True)
oeprop( wfn, 'DIPOLE', 'QUADRUPOLE', 'MULLIKEN_CHARGES')
f=open( 'psi4out.xyz', 'w' )
f.write( "23  " )
f.write( str(ee) + "\n" )
f.write( MOL.save_string_xyz() )
f.close()
--------------------------------------------------------------------------

    Molecular point group: c1
  Charge       = 0
  Multiplicity = 1
  Basis Set: CC-PVTZ
  Basis Set:
  @DF-RHF Final Energy:  -423.12629805917391
    Total Energy =                       -423.1262980591740188
    Molecular point group: c1
  Basis Set: CC-PVTZ
  Basis Set:
  Basis Set: CC-PVTZ
  Basis Set:
  @DF-RHF Final Energy:  -423.12658391195663
    Total Energy =                       -423.1265839119569137
  Basis Set: CC-PVTZ
  Basis Set:
  Basis Set: CC-PVTZ
  Basis Set:
  @DF-RHF Final Energy:  -423.12645754487488
    Total Energy =                       -423.1264575448749383
  Basis Set: CC-PVTZ
  Basis Set:
  Basis Set: CC-PVTZ
  Basis Set:
  @DF-RHF Final Energy:  -423.12667747079490
    Total Energy =                       -423.1266774707949025
  Basis Set: CC-PVTZ
  Basis Set:
  @DF-RHF Final Energy:  -423.12668221322269
    Total Energy =                       -423.1266822132225798
  @DF-RHF Final Energy:  -423.12668321915743
    Total Energy =                       -423.1266832191577123
  Basis Set: CC-PVTZ
  Basis Set:
  @DF-RHF Final Energy:  -423.12668526234302
    Total Energy =                       -423.1266852623430168
  Basis Set: CC-PVTZ
  Basis Set:
  Basis Set: CC-PVTZ
  Basis Set:
  @DF-RHF Final Energy:  -423.12668684096843
    Total Energy =                       -423.1266868409680910
  Basis Set: CC-PVTZ
  Basis Set:
  Basis Set: CC-PVTZ
  Basis Set:
  @DF-RHF Final Energy:  -423.12668787276988
    Total Energy =                       -423.1266878727697076
  Basis Set: CC-PVTZ
  Basis Set:
  Charge       = 0
  Multiplicity = 1
  Basis Set: CC-PVTZ
  Basis Set:

    Orbital Energies (a.u.)
    -----------------------

    Doubly Occupied:

       1A    -20.596701     2A    -20.535054     3A    -11.365611
       4A    -11.278802     5A    -11.233642     6A    -11.215458
       7A    -11.214190     8A    -11.212846     9A    -11.206417
      10A     -1.472959    11A     -1.366453    12A     -1.091782
      13A     -1.043384    14A     -0.987507    15A     -0.931947
      16A     -0.844582    17A     -0.795147    18A     -0.769014
      19A     -0.703996    20A     -0.684220    21A     -0.676183
      22A     -0.643970    23A     -0.612126    24A     -0.600824
      25A     -0.571272    26A     -0.558707    27A     -0.555971
      28A     -0.530954    29A     -0.524871    30A     -0.499975
      31A     -0.487605    32A     -0.467740    33A     -0.464007
      34A     -0.461047    35A     -0.455366    36A     -0.441913

  @DF-RHF Final Energy:  -423.12668837205649

   => Energetics <=

    Nuclear Repulsion Energy =            455.9889172353748563
    One-Electron Energy =               -1480.0267263880771225
    Two-Electron Energy =                 600.9111207806458879
    DFT Exchange-Correlation Energy =       0.0000000000000000
    Empirical Dispersion Energy =           0.0000000000000000
    PCM Polarization Energy =               0.0000000000000000
    EFP Energy =                            0.0000000000000000
    Total Energy =                       -423.1266883720563783
    Molecular point group: c1
  Basis Set: CC-PVTZ
  Basis Set:

  -Total Gradient:
     Atom            X                  Y                   Z
    ------   -----------------  -----------------  -----------------
       1        0.000004144977     0.000072118394    -0.000000721399
       2       -0.000031417774    -0.000031588696    -0.000001111776
       3        0.000846351688     0.001141827892    -0.000869549165
       4        0.000032557505    -0.000038992676     0.000005305804
       5       -0.000831241968    -0.001127968812     0.000868101832
       6       -0.000566040611    -0.000762060539     0.000582742899
       7        0.000002272930    -0.000003516452    -0.000003953326
       8       -0.000003901108    -0.000001070849    -0.000003809675
       9        0.000553194543     0.000751153258    -0.000575251658
      10       -0.000000738335     0.000001343874    -0.000002585019
      11       -0.000000561055    -0.000000690260     0.000002408001
      12       -0.000000923111    -0.000002262591     0.000001578944
      13       -0.000000149286     0.000001205723     0.000000259693
      14        0.000002409866     0.000000013465    -0.000001044382
      15        0.000000930346    -0.000000487277    -0.000000799089
      16       -0.000000171528     0.000001189031    -0.000000033273
      17        0.000000009886    -0.000000378081    -0.000000069966
      18       -0.000000053271     0.000000288264    -0.000000324163
      19        0.000000045311     0.000000090785     0.000001412127
      20       -0.000023003448    -0.000009131515    -0.000003287844
      21        0.000003279569     0.000015285423    -0.000018584592
      22        0.000011639634    -0.000018137266    -0.000001180559
      23        0.000001365248     0.000011768911     0.000020496588

  **** Optimization is complete! (in 10 steps) ****
    Final optimized geometry and variables:
    Molecular point group: c1

    Geometry (in Angstrom), charge = 0, multiplicity = 1:

    O            1.663678773210     1.019292025165    -0.473098750354
    C            1.506522526790    -0.151411947646    -0.549225902960
    C            0.179501843826    -0.870619646035    -0.568948509378
    O            2.509638405583    -1.011217156557    -0.618023397120
    C           -1.052166653661     0.044383461768    -0.566374161293
    H            0.190210086196    -1.534352857839    -1.424640472540
    H            0.183631650537    -1.526980531397     0.295141954750
    C           -1.902935340353    -0.088997196902     0.694228575345
    H           -1.660406348932    -0.172531917691    -1.437751743499
    H           -0.726724419399     1.070363536184    -0.670182737266
    C           -3.122656694925     0.826712391741     0.694448064694
    H           -2.228922408378    -1.120850022015     0.806078644507
    H           -1.287712547632     0.133153514955     1.563053270780
    C           -3.969895758556     0.695549561110     1.955654235601
    H           -3.735729008459     0.607396886056    -0.175628313622
    H           -2.795775297274     1.856712135966     0.584759699437
    H           -4.340107908924    -0.317331350402     2.075596535121
    H           -4.826768591297     1.358543672750     1.923555333472
    H           -3.393886463883     0.942743705445     2.841163656667
    C            3.820411146410    -0.483503891142    -0.593208449110
    H            3.980269460925     0.180136147384    -1.430013582819
    H            4.483484836204    -1.330874337643    -0.658346400782
    H            3.996380651476     0.057766305542     0.324602299072

  Mulliken Charges: (a.u.)
   Center  Symbol    Alpha    Beta     Spin     Total
       1     O     4.19663  4.19663  0.00000 -0.39325
       2     C     2.80001  2.80001  0.00000  0.39997
       3     C     3.11379  3.11379  0.00000 -0.22758
       4     O     4.14694  4.14694  0.00000 -0.29388
       5     C     3.09791  3.09791  0.00000 -0.19582
       6     H     0.43156  0.43156  0.00000  0.13688
       7     H     0.43892  0.43892  0.00000  0.12216
       8     C     3.08884  3.08884  0.00000 -0.17767
       9     H     0.44908  0.44908  0.00000  0.10184
      10     H     0.43664  0.43664  0.00000  0.12672
      11     C     3.08580  3.08580  0.00000 -0.17160
      12     H     0.45528  0.45528  0.00000  0.08943
      13     H     0.45273  0.45273  0.00000  0.09453
      14     C     3.14997  3.14997  0.00000 -0.29994
      15     H     0.45519  0.45519  0.00000  0.08962
      16     H     0.45141  0.45141  0.00000  0.09717
      17     H     0.45588  0.45588  0.00000  0.08823
      18     H     0.44817  0.44817  0.00000  0.10367
      19     H     0.45459  0.45459  0.00000  0.09082
      20     C     3.03636  3.03636  0.00000 -0.07272
      21     H     0.45425  0.45425  0.00000  0.09151
      22     H     0.44554  0.44554  0.00000  0.10892
      23     H     0.45451  0.45451  0.00000  0.09098

   Total alpha = 36.00000, Total beta = 36.00000, Total charge = -0.00000

*** Psi4 exiting successfully. Buy a developer a beer!
