  ==> Input File <==

--------------------------------------------------------------------------
set {
	reference rhf
	basis 6-31G*
}

set_num_threads( 4 )
memory 2 gb

molecule MOL {
0 1

H	 -2.646374	 -0.642757	 1.268656
C	 -2.083525	 -0.384536	 0.393091
O	 -0.807605	 -0.127164	 0.768327
F	 -2.118945	 -1.383102	 -0.486752
F	 -2.621877	 0.670592	 -0.209486
C	 0.084052	 0.273579	 -0.209957
C	 0.229868	 1.784771	 -0.086678
Cl	 -0.506220	 -0.166854	 -1.820799
H	 1.055821	 -0.171331	 -0.085482
F	 1.079153	 2.239182	 -0.983541
F	 0.706327	 2.068954	 1.109008
F	 -0.914550	 2.406052	 -0.235983

	symmetry c1
}
set optking {
	frozen_dihedral = ("
		9 6 3 2
	")
}

ee = optimize('scf')
oeprop('DIPOLE', 'QUADRUPOLE', 'MULLIKEN_CHARGES')
f=open( 'psi4out.xyz', 'w' )
f.write( "12  " )
f.write( str(ee) + "\n" )
f.write( MOL.save_string_xyz() )
f.close()
--------------------------------------------------------------------------

    Molecular point group: c1
  Charge       = 0
  Multiplicity = 1
  Basis Set: 6-31G*
  Basis Set:
  @DF-RHF Final Energy: -1146.28110475025892
    Total Energy =                      -1146.2811047502582369
    Molecular point group: c1
  Basis Set: 6-31G*
  Basis Set:
  Basis Set: 6-31G*
  Basis Set:
  @DF-RHF Final Energy: -1146.29600400243453
    Total Energy =                      -1146.2960040024343016
  Basis Set: 6-31G*
  Basis Set:
  Basis Set: 6-31G*
  Basis Set:
  @DF-RHF Final Energy: -1146.30146507510267
    Total Energy =                      -1146.3014650751031240
  Basis Set: 6-31G*
  Basis Set:
  Basis Set: 6-31G*
  Basis Set:
  @DF-RHF Final Energy: -1146.30398122706720
    Total Energy =                      -1146.3039812270683342
  Basis Set: 6-31G*
  Basis Set:
  @DF-RHF Final Energy: -1146.30460559988660
    Total Energy =                      -1146.3046055998870543
  @DF-RHF Final Energy: -1146.30469675331210
    Total Energy =                      -1146.3046967533125553
  @DF-RHF Final Energy: -1146.30472525645928
    Total Energy =                      -1146.3047252564590508
  Basis Set: 6-31G*
  Basis Set:
  @DF-RHF Final Energy: -1146.30474378661711
    Total Energy =                      -1146.3047437866171094
  Basis Set: 6-31G*
  Basis Set:
  Basis Set: 6-31G*
  Basis Set:
  @DF-RHF Final Energy: -1146.30475141018724
    Total Energy =                      -1146.3047514101876914
  Basis Set: 6-31G*
  Basis Set:
  Basis Set: 6-31G*
  Basis Set:
  @DF-RHF Final Energy: -1146.30475259024615
    Total Energy =                      -1146.3047525902466077
  Basis Set: 6-31G*
  Basis Set:
  Charge       = 0
  Multiplicity = 1
  Basis Set: 6-31G*
  Basis Set:

    Orbital Energies (a.u.)
    -----------------------

    Doubly Occupied:

       1A   -104.847700     2A    -26.359046     3A    -26.357375
       4A    -26.357347     5A    -26.337805     6A    -26.334342
       7A    -20.643375     8A    -11.525631     9A    -11.484207
      10A    -11.402586    11A    -10.582701    12A     -8.052080
      13A     -8.048480    14A     -8.048347    15A     -1.760181
      16A     -1.707713    17A     -1.656779    18A     -1.655028
      19A     -1.630186    20A     -1.474555    21A     -1.181923
      22A     -1.055554    23A     -0.987016    24A     -0.913146
      25A     -0.850931    26A     -0.849270    27A     -0.842383
      28A     -0.826918    29A     -0.804269    30A     -0.765236
      31A     -0.731240    32A     -0.722145    33A     -0.704811
      34A     -0.686891    35A     -0.678137    36A     -0.672069
      37A     -0.661312    38A     -0.657308    39A     -0.647292
      40A     -0.632816    41A     -0.590960    42A     -0.554167
      43A     -0.532334    44A     -0.479024    45A     -0.467670

  @DF-RHF Final Energy: -1146.30475277142477

   => Energetics <=

    Nuclear Repulsion Energy =            750.6290590185218434
    One-Electron Energy =               -3084.3470487738532029
    Two-Electron Energy =                1187.4132369839066996
    DFT Exchange-Correlation Energy =       0.0000000000000000
    Empirical Dispersion Energy =           0.0000000000000000
    PCM Polarization Energy =               0.0000000000000000
    EFP Energy =                            0.0000000000000000
    Total Energy =                      -1146.3047527714247735
    Molecular point group: c1
  Basis Set: 6-31G*
  Basis Set:

  -Total Gradient:
     Atom            X                  Y                   Z
    ------   -----------------  -----------------  -----------------
       1        0.000005351467    -0.000004315915     0.000012132908
       2        0.000374976142    -0.001451613502    -0.000365403212
       3       -0.000716223454     0.002059961831     0.000326947809
       4       -0.000003583095    -0.000035650888     0.000017718788
       5        0.000046565328     0.000014383188    -0.000027464117
       6        0.000780138417     0.000669190129     0.001050919506
       7       -0.000013002855     0.000032892545     0.000002081291
       8       -0.000014164674     0.000017353095     0.000007630838
       9       -0.000448186232    -0.001256260869    -0.001037062669
      10       -0.000009937048    -0.000013129679    -0.000007811580
      11        0.000022525737    -0.000011494679     0.000045441755
      12       -0.000024459752    -0.000021315246    -0.000025131367

  **** Optimization is complete! (in 11 steps) ****
    Final optimized geometry and variables:
    Molecular point group: c1

    Geometry (in Angstrom), charge = 0, multiplicity = 1:

    H           -1.914698437561    -1.271328074905     1.770749741396
    C           -1.467628580079    -1.135554579842     0.804458355486
    O           -0.160316977731    -0.830696518979     1.014326862512
    F           -1.592076378464    -2.253004681417     0.100020942656
    F           -2.098294218077    -0.173163552953     0.146405261085
    C            0.735897153468    -0.363315298245     0.062399954198
    C            0.944410316679     1.133210773665     0.278650459501
    CL           0.339895115791    -0.692844907508    -1.632164904355
    H            1.670081297334    -0.860358334192     0.255184591840
    F            1.915899272832     1.571792922755    -0.494551606718
    F            1.298555723617     1.338267821038     1.531703297773
    F           -0.136088531364     1.834785910823     0.035636655543

  Mulliken Charges: (a.u.)
   Center  Symbol    Alpha    Beta     Spin     Total
       1     H     0.40528  0.40528  0.00000  0.18943
       2     C     2.55742  2.55742  0.00000  0.88516
       3     O     4.31797  4.31797  0.00000 -0.63594
       4     F     4.68219  4.68219  0.00000 -0.36438
       5     F     4.68212  4.68212  0.00000 -0.36423
       6     C     3.02941  3.02941  0.00000 -0.05883
       7     C     2.44073  2.44073  0.00000  1.11854
       8    CL     8.50030  8.50030  0.00000 -0.00061
       9     H     0.36732  0.36732  0.00000  0.26536
      10     F     4.67396  4.67396  0.00000 -0.34792
      11     F     4.67588  4.67588  0.00000 -0.35176
      12     F     4.66741  4.66741  0.00000 -0.33482

   Total alpha = 45.00000, Total beta = 45.00000, Total charge =  0.00000
