  ==> Input File <==

--------------------------------------------------------------------------
set {
	reference rhf
	basis 6-31G*
}

set_num_threads( 4 )
memory 2 gb

molecule MOL {
0 1

O	 0.911092	 1.084644	 1.541223
C	 -0.143345	 1.136435	 0.995558
C	 -1.091821	 2.302895	 1.059665
O	 -0.632575	 0.154573	 0.251549
H	 -2.039840	 1.981633	 1.475596
H	 -0.665224	 3.083867	 1.671167
H	 -1.281588	 2.675823	 0.059830
C	 0.160891	 -1.019931	 0.106212
C	 1.589627	 -0.672828	 0.480843
H	 0.089836	 -1.367806	 -0.916050
H	 -0.238459	 -1.792301	 0.749618
C	 2.246377	 0.346236	 -0.452210
H	 2.163194	 -1.597435	 0.473358
H	 1.604769	 -0.303424	 1.502885
C	 3.691736	 0.652107	 -0.061850
H	 2.219579	 -0.032311	 -1.472055
H	 1.666466	 1.263317	 -0.447249
H	 4.134505	 1.377213	 -0.737283
H	 4.305508	 -0.243868	 -0.089969
H	 3.748266	 1.059562	 0.943567

	symmetry c1
}
set optking {
	frozen_dihedral = ("
		2 4 8 10
	")
}

ee = optimize('scf')
oeprop('DIPOLE', 'QUADRUPOLE', 'MULLIKEN_CHARGES')
f=open( 'psi4out.xyz', 'w' )
f.write( "20  " )
f.write( str(ee) + "\n" )
f.write( MOL.save_string_xyz() )
f.close()
--------------------------------------------------------------------------

    Molecular point group: c1
  Charge       = 0
  Multiplicity = 1
  Basis Set: 6-31G*
  Basis Set:
  @DF-RHF Final Energy:  -383.86585756398330
    Total Energy =                       -383.8658575639838091
    Molecular point group: c1
  Basis Set: 6-31G*
  Basis Set:
  Basis Set: 6-31G*
  Basis Set:
  @DF-RHF Final Energy:  -383.90388526956804
    Total Energy =                       -383.9038852695678088
  Basis Set: 6-31G*
  Basis Set:
  Basis Set: 6-31G*
  Basis Set:
  @DF-RHF Final Energy:  -383.91860924546449
    Total Energy =                       -383.9186092454643813
  Basis Set: 6-31G*
  Basis Set:
  Basis Set: 6-31G*
  Basis Set:
  @DF-RHF Final Energy:  -383.92693351066100
    Total Energy =                       -383.9269335106611152
  Basis Set: 6-31G*
  Basis Set:
  @DF-RHF Final Energy:  -383.93052035903617
    Total Energy =                       -383.9305203590355404
  @DF-RHF Final Energy:  -383.93071547249372
    Total Energy =                       -383.9307154724939437
  @DF-RHF Final Energy:  -383.93310788927568
    Total Energy =                       -383.9331078892754476
  @DF-RHF Final Energy:  -383.93339871876543
    Total Energy =                       -383.9333987187653747
  @DF-RHF Final Energy:  -383.93369325686950
    Total Energy =                       -383.9336932568695602
  @DF-RHF Final Energy:  -383.93384536856274
    Total Energy =                       -383.9338453685624017
  @DF-RHF Final Energy:  -383.93389554737774
    Total Energy =                       -383.9338955473779151
  @DF-RHF Final Energy:  -383.93390495700021
    Total Energy =                       -383.9339049570007774
  @DF-RHF Final Energy:  -383.93390766767578
    Total Energy =                       -383.9339076676753848
  @DF-RHF Final Energy:  -383.93390922694107
    Total Energy =                       -383.9339092269406137
  Basis Set: 6-31G*
  Basis Set:
  @DF-RHF Final Energy:  -383.93389610861487
    Total Energy =                       -383.9338961086148174
  Basis Set: 6-31G*
  Basis Set:
  Basis Set: 6-31G*
  Basis Set:
  @DF-RHF Final Energy:  -383.93382314182662
    Total Energy =                       -383.9338231418266787
  Basis Set: 6-31G*
  Basis Set:
  Basis Set: 6-31G*
  Basis Set:
  @DF-RHF Final Energy:  -383.93390923957952
    Total Energy =                       -383.9339092395795205
  Basis Set: 6-31G*
  Basis Set:
  Charge       = 0
  Multiplicity = 1
  Basis Set: 6-31G*
  Basis Set:

    Orbital Energies (a.u.)
    -----------------------

    Doubly Occupied:

       1A    -20.598950     2A    -20.541126     3A    -11.376487
       4A    -11.289368     5A    -11.230680     6A    -11.219198
       7A    -11.216201     8A    -11.207780     9A     -1.460798
      10A     -1.362072    11A     -1.081808    12A     -1.026395
      13A     -0.978791    14A     -0.894032    15A     -0.814347
      16A     -0.742043    17A     -0.688153    18A     -0.677673
      19A     -0.671809    20A     -0.633073    21A     -0.600621
      22A     -0.589007    23A     -0.568375    24A     -0.561167
      25A     -0.539257    26A     -0.521999    27A     -0.513969
      28A     -0.478122    29A     -0.474716    30A     -0.468345
      31A     -0.440179    32A     -0.428646

  @DF-RHF Final Energy:  -383.93391020551195

   => Energetics <=

    Nuclear Repulsion Energy =            396.2297777486259633
    One-Electron Energy =               -1308.5370023175278220
    Two-Electron Energy =                 528.3733143633897953
    DFT Exchange-Correlation Energy =       0.0000000000000000
    Empirical Dispersion Energy =           0.0000000000000000
    PCM Polarization Energy =               0.0000000000000000
    EFP Energy =                            0.0000000000000000
    Total Energy =                       -383.9339102055120065
    Molecular point group: c1
  Basis Set: 6-31G*
  Basis Set:

  -Total Gradient:
     Atom            X                  Y                   Z
    ------   -----------------  -----------------  -----------------
       1       -0.000000275250    -0.000022361986    -0.000032952367
       2        0.002096718540     0.002543698745    -0.004287335349
       3        0.000041626927    -0.000015716543    -0.000013552662
       4       -0.002594019783    -0.003306722090     0.006429194162
       5       -0.000005723318     0.000002303784     0.000005028410
       6       -0.000003424524    -0.000004510972    -0.000000085063
       7       -0.000013893622    -0.000005844302     0.000001432718
       8       -0.003372758258    -0.002593697412    -0.000971247617
       9       -0.000046095211     0.000032641835     0.000112123836
      10        0.003862979365     0.003388238468    -0.001211482856
      11        0.000005641112    -0.000011139583    -0.000026889904
      12        0.000051261351    -0.000006093066     0.000000480990
      13        0.000003442580    -0.000001652115    -0.000046098181
      14       -0.000009361763    -0.000032002663     0.000054064712
      15       -0.000041197580     0.000015463673    -0.000017448646
      16       -0.000009098670     0.000009018872    -0.000001836386
      17        0.000013628591     0.000020183645     0.000001887339
      18        0.000010004243    -0.000008242832     0.000002083513
      19        0.000018281082    -0.000006471979    -0.000002702365
      20       -0.000007735812     0.000002906519     0.000005335715

  **** Optimization is complete! (in 18 steps) ****
    Final optimized geometry and variables:
    Molecular point group: c1

    Geometry (in Angstrom), charge = 0, multiplicity = 1:

    O           -0.260673010641     0.874373843484     1.346947121511
    C           -1.187666880816     0.735232864341     0.616354358273
    C           -2.280133185403     1.757764988098     0.435891668308
    O           -1.428663976945    -0.329036916519    -0.130915490526
    H           -3.240609038512     1.314216344071     0.670612416360
    H           -2.094117187609     2.603326346878     1.081201163063
    H           -2.312086678283     2.079967034594    -0.598623360496
    C           -0.544641500644    -1.435079440208    -0.351926182719
    C            0.950811908125    -1.255345514955    -0.108033078164
    H           -0.679887374384    -1.656534875012    -1.402087175544
    H           -0.926879312856    -2.257203326446     0.238165270325
    C            1.628789915409    -0.236274153130    -1.026026667657
    H            1.378683209453    -2.238075970564    -0.305512099048
    H            1.151084547620    -1.023175898720     0.926985389258
    C            3.139621605024    -0.175565448884    -0.804621186773
    H            1.425297082857    -0.494452919977    -2.063982154824
    H            1.208697442232     0.748953213643    -0.859561696127
    H            3.603894255178     0.545656130551    -1.469849102233
    H            3.604517058173    -1.140750101719    -0.986666574293
    H            3.370050683127     0.117615526511     0.214966819509

  Mulliken Charges: (a.u.)
   Center  Symbol    Alpha    Beta     Spin     Total
       1     O     4.28477  4.28477  0.00000 -0.56954
       2     C     2.61613  2.61613  0.00000  0.76774
       3     C     3.28076  3.28076  0.00000 -0.56152
       4     O     4.31913  4.31913  0.00000 -0.63826
       5     H     0.40065  0.40065  0.00000  0.19869
       6     H     0.39822  0.39822  0.00000  0.20356
       7     H     0.40213  0.40213  0.00000  0.19574
       8     C     2.98852  2.98852  0.00000  0.02295
       9     C     3.17657  3.17657  0.00000 -0.35314
      10     H     0.41290  0.41290  0.00000  0.17421
      11     H     0.41145  0.41145  0.00000  0.17709
      12     C     3.15456  3.15456  0.00000 -0.30912
      13     H     0.42234  0.42234  0.00000  0.15532
      14     H     0.39353  0.39353  0.00000  0.21293
      15     C     3.24045  3.24045  0.00000 -0.48090
      16     H     0.42680  0.42680  0.00000  0.14640
      17     H     0.41307  0.41307  0.00000  0.17385
      18     H     0.41891  0.41891  0.00000  0.16219
      19     H     0.42355  0.42355  0.00000  0.15291
      20     H     0.41555  0.41555  0.00000  0.16890

   Total alpha = 32.00000, Total beta = 32.00000, Total charge =  0.00000
