  ==> Input File <==

--------------------------------------------------------------------------
set {
	reference rhf
	basis cc-pvtz
}

set_num_threads( 4 )
memory 2 gb

molecule MOL {
0 1

H	 1.429100	 -2.016798	 0.793475
C	 0.504319	 -1.489036	 0.954968
O	 0.462329	 -0.453336	 -0.000137
H	 0.492918	 -1.091457	 1.961953
H	 -0.323722	 -2.174152	 0.823811
C	 -0.590565	 0.341382	 0.000062
O	 -1.693898	 -0.053880	 0.000252
H	 -0.340426	 1.403822	 0.000200

	symmetry c1
}
set optking {
	frozen_dihedral = ("
		2 3 6 7
	")
}

ee = optimize('scf')
oeprop('DIPOLE', 'QUADRUPOLE', 'MULLIKEN_CHARGES')
f=open( 'psi4out.xyz', 'w' )
f.write( "8  " )
f.write( str(ee) + "\n" )
f.write( MOL.save_string_xyz() )
f.close()
--------------------------------------------------------------------------

    Molecular point group: c1
  Charge       = 0
  Multiplicity = 1
  Basis Set: CC-PVTZ
  Basis Set:
  @DF-RHF Final Energy:  -227.86619136398323
    Total Energy =                       -227.8661913639830630
    Molecular point group: c1
  Basis Set: CC-PVTZ
  Basis Set:
  Basis Set: CC-PVTZ
  Basis Set:
  @DF-RHF Final Energy:  -227.86049997926483
    Total Energy =                       -227.8604999792650005
  Basis Set: CC-PVTZ
  Basis Set:
  Basis Set: CC-PVTZ
  Basis Set:
  @DF-RHF Final Energy:  -227.86685592675173
    Total Energy =                       -227.8668559267516684
  Basis Set: CC-PVTZ
  Basis Set:
  Basis Set: CC-PVTZ
  Basis Set:
  @DF-RHF Final Energy:  -227.86736214673175
    Total Energy =                       -227.8673621467319776
  Basis Set: CC-PVTZ
  Basis Set:
  Basis Set: CC-PVTZ
  Basis Set:
  @DF-RHF Final Energy:  -227.86736955286102
    Total Energy =                       -227.8673695528608505
  Basis Set: CC-PVTZ
  Basis Set:
  Basis Set: CC-PVTZ
  Basis Set:
  @DF-RHF Final Energy:  -227.86737119683173
    Total Energy =                       -227.8673711968318969
  Basis Set: CC-PVTZ
  Basis Set:
  Charge       = 0
  Multiplicity = 1
  Basis Set: CC-PVTZ
  Basis Set:

    Orbital Energies (a.u.)
    -----------------------

    Doubly Occupied:

       1A    -20.597830     2A    -20.555781     3A    -11.374603
       4A    -11.291145     5A     -1.475401     6A     -1.381804
       7A     -0.993363     8A     -0.824577     9A     -0.743658
      10A     -0.687514    11A     -0.674554    12A     -0.615943
      13A     -0.562721    14A     -0.525070    15A     -0.472605
      16A     -0.458093

  @DF-RHF Final Energy:  -227.86737137592365

   => Energetics <=

    Nuclear Repulsion Energy =            122.9212538687677778
    One-Electron Energy =                -555.1079250891204993
    Two-Electron Energy =                 204.3192998444288548
    DFT Exchange-Correlation Energy =       0.0000000000000000
    Empirical Dispersion Energy =           0.0000000000000000
    PCM Polarization Energy =               0.0000000000000000
    EFP Energy =                            0.0000000000000000
    Total Energy =                       -227.8673713759238524
    Molecular point group: c1
  Basis Set: CC-PVTZ
  Basis Set:

  -Total Gradient:
     Atom            X                  Y                   Z
    ------   -----------------  -----------------  -----------------
       1        0.000000752341     0.000008729957    -0.000004923716
       2        0.003209658952     0.004647772176     0.005385806687
       3       -0.004537738194    -0.006824935592    -0.013285575918
       4       -0.000002529090     0.000004983951    -0.000005518258
       5       -0.000000109773     0.000007092031    -0.000003907576
       6        0.000844197901     0.001748586120     0.018125972686
       7        0.000475966231     0.000402556980    -0.010209642848
       8        0.000009801634     0.000005214377    -0.000002211056

  **** Optimization is complete! (in 7 steps) ****
    Final optimized geometry and variables:
    Molecular point group: c1

    Geometry (in Angstrom), charge = 0, multiplicity = 1:

    H            1.754445594369    -1.611950478956     0.511179082399
    C            0.840844869996    -1.075288846090     0.705869421218
    O            0.804074166811    -0.000149226286    -0.216807222521
    H            0.853575576854    -0.692749988685     1.718029615931
    H           -0.007457760807    -1.729264414556     0.571722973416
    C           -0.280797439763     0.763500445295    -0.233907237553
    O           -1.387049375094     0.373792724002    -0.295808040757
    H           -0.016712606799     1.816382500869    -0.284928313879

  Mulliken Charges: (a.u.)
   Center  Symbol    Alpha    Beta     Spin     Total
       1     H     0.44568  0.44568  0.00000  0.10863
       2     C     3.02588  3.02588  0.00000 -0.05177
       3     O     4.15093  4.15093  0.00000 -0.30187
       4     H     0.46176  0.46176  0.00000  0.07648
       5     H     0.44821  0.44821  0.00000  0.10358
       6     C     2.83161  2.83161  0.00000  0.33679
       7     O     4.17847  4.17847  0.00000 -0.35693
       8     H     0.45746  0.45746  0.00000  0.08509

   Total alpha = 16.00000, Total beta = 16.00000, Total charge = -0.00000
