  ==> Input File <==

--------------------------------------------------------------------------
set {
	reference rhf
	basis 6-31G*
}

set_num_threads( 4 )
memory 2 gb

molecule MOL {
0 1

H	 -3.042581	 -0.665861	 0.004336
O	 -2.245037	 -1.176175	 0.000806
C	 -1.162163	 -0.365336	 0.001020
C	 -1.224778	 0.958120	 -0.396312
C	 0.042829	 -0.916588	 0.419284
H	 -2.157483	 1.386020	 -0.723323
C	 -0.068465	 1.725058	 -0.370636
H	 0.055699	 -1.948666	 0.718897
C	 1.195080	 -0.150606	 0.445771
H	 -0.113052	 2.753939	 -0.681206
C	 1.131614	 1.183669	 0.043710
C	 2.500951	 -0.742158	 0.923126
H	 2.019897	 1.790416	 0.055640
H	 3.323266	 -0.443332	 0.281806
H	 2.462627	 -1.824817	 0.938676
H	 2.731798	 -0.403924	 1.929434

	symmetry c1
}
set optking {
	frozen_dihedral = ("
		5 3 2 1
	")
}

ee = optimize('scf')
oeprop('DIPOLE', 'QUADRUPOLE', 'MULLIKEN_CHARGES')
f=open( 'psi4out.xyz', 'w' )
f.write( "16  " )
f.write( str(ee) + "\n" )
f.write( MOL.save_string_xyz() )
f.close()
--------------------------------------------------------------------------

    Molecular point group: c1
  Charge       = 0
  Multiplicity = 1
  Basis Set: 6-31G*
  Basis Set:
  @DF-RHF Final Energy:  -344.59454636307930
    Total Energy =                       -344.5945463630790755
    Molecular point group: c1
  Basis Set: 6-31G*
  Basis Set:
  Basis Set: 6-31G*
  Basis Set:
  @DF-RHF Final Energy:  -344.59456260248237
    Total Energy =                       -344.5945626024820854
  Basis Set: 6-31G*
  Basis Set:
  Basis Set: 6-31G*
  Basis Set:
  @DF-RHF Final Energy:  -344.59456634223739
    Total Energy =                       -344.5945663422373855
  Basis Set: 6-31G*
  Basis Set:
  Charge       = 0
  Multiplicity = 1
  Basis Set: 6-31G*
  Basis Set:

    Orbital Energies (a.u.)
    -----------------------

    Doubly Occupied:

       1A    -20.587247     2A    -11.294957     3A    -11.241487
       4A    -11.234701     5A    -11.222641     6A    -11.220191
       7A    -11.216463     8A    -11.216306     9A     -1.405431
      10A     -1.149409    11A     -1.042839    12A     -1.004561
      13A     -0.936054    14A     -0.822856    15A     -0.822256
      16A     -0.713016    17A     -0.680140    18A     -0.652708
      19A     -0.610238    20A     -0.589937    21A     -0.572819
      22A     -0.568352    23A     -0.560732    24A     -0.529651
      25A     -0.504279    26A     -0.481682    27A     -0.466991
      28A     -0.328794    29A     -0.306915

  @DF-RHF Final Energy:  -344.59456662679565

   => Energetics <=

    Nuclear Repulsion Energy =            345.4948785144839576
    One-Electron Energy =               -1152.2115883328278869
    Two-Electron Energy =                 462.1221431915485027
    DFT Exchange-Correlation Energy =       0.0000000000000000
    Empirical Dispersion Energy =           0.0000000000000000
    PCM Polarization Energy =               0.0000000000000000
    EFP Energy =                            0.0000000000000000
    Total Energy =                       -344.5945666267954266
    Molecular point group: c1
  Basis Set: 6-31G*
  Basis Set:

  -Total Gradient:
     Atom            X                  Y                   Z
    ------   -----------------  -----------------  -----------------
       1        0.000011129725    -0.000000248271     0.001977730116
       2       -0.000139063587     0.000167076169    -0.001828044238
       3        0.000403824550    -0.000508388348    -0.001482830908
       4       -0.000019711864    -0.000053911831     0.000002862548
       5       -0.000233454502     0.000406385444     0.001334126242
       6        0.000003222734     0.000002061354    -0.000003692864
       7        0.000075105768     0.000008771275    -0.000002100315
       8       -0.000007813163    -0.000007127217     0.000012256005
       9       -0.000020690611    -0.000087243627    -0.000029514173
      10       -0.000009592712     0.000003786762     0.000009886599
      11       -0.000054049317     0.000064317794    -0.000004267249
      12       -0.000006700668     0.000007375163     0.000012969845
      13        0.000002525113    -0.000003654021    -0.000003448931
      14       -0.000009132759     0.000005005475     0.000001089371
      15       -0.000000405394    -0.000000692708    -0.000004339162
      16        0.000004806694    -0.000003513411     0.000007317115

  **** Optimization is complete! (in 4 steps) ****
    Final optimized geometry and variables:
    Molecular point group: c1

    Geometry (in Angstrom), charge = 0, multiplicity = 1:

    H           -3.028430467380    -0.683779111606    -0.146043394914
    O           -2.232264782809    -1.196226318012    -0.146862919979
    C           -1.146259999533    -0.385585194001    -0.140499093519
    C           -1.210069340378     0.938322969907    -0.536107766872
    C            0.057274630127    -0.935436449889     0.281380112748
    H           -2.142016146932     1.362366147450    -0.869561594748
    C           -0.054720207958     1.706249252346    -0.508365949739
    H            0.068665473228    -1.965735249705     0.587175171037
    C            1.211375550425    -0.171097977079     0.302086046677
    H           -0.099531395661     2.735737089722    -0.816918519242
    C            1.146450297513     1.163248885710    -0.098113621260
    C            2.517654046187    -0.762127008707     0.779114471164
    H            2.034734447558     1.770134233733    -0.086930016932
    H            3.338536436623    -0.467549573462     0.133930314644
    H            2.477919490376    -1.844718783184     0.799507283716
    H            2.752275035381    -0.419620166363     1.783138061087

  Mulliken Charges: (a.u.)
   Center  Symbol    Alpha    Beta     Spin     Total
       1     H     0.27214  0.27214  0.00000  0.45573
       2     O     4.38018  4.38018  0.00000 -0.76036
       3     C     2.79185  2.79185  0.00000  0.41630
       4     C     3.14711  3.14711  0.00000 -0.29421
       5     C     3.13980  3.13980  0.00000 -0.27961
       6     H     0.40450  0.40450  0.00000  0.19099
       7     C     3.08772  3.08772  0.00000 -0.17543
       8     H     0.39439  0.39439  0.00000  0.21122
       9     C     2.96972  2.96972  0.00000  0.06056
      10     H     0.39889  0.39889  0.00000  0.20222
      11     C     3.12326  3.12326  0.00000 -0.24652
      12     C     3.25460  3.25460  0.00000 -0.50919
      13     H     0.40336  0.40336  0.00000  0.19328
      14     H     0.41173  0.41173  0.00000  0.17653
      15     H     0.41152  0.41152  0.00000  0.17696
      16     H     0.40923  0.40923  0.00000  0.18155

   Total alpha = 29.00000, Total beta = 29.00000, Total charge = -0.00000
