                              Psi4 1.0.54 Driver

  ==> Input File <==

--------------------------------------------------------------------------
set {
	reference rhf
	basis cc-pvtz
}

set_num_threads( 4 )
memory 2 gb

molecule MOL {
0 1

H	 -3.696917	 0.162524	 -0.630161
C	 -3.089389	 0.633132	 -1.415223
C	 -2.105084	 1.659952	 -0.924634
O	 -3.244702	 0.327205	 -2.546414
C	 -1.216901	 1.136108	 0.207794
H	 -1.517627	 2.003580	 -1.766150
H	 -2.690306	 2.501175	 -0.559719
C	 -0.247837	 0.040196	 -0.230469
H	 -0.656882	 1.969556	 0.617775
H	 -1.844079	 0.767499	 1.015859
C	 1.181757	 0.280428	 0.247371
H	 -0.259600	 -0.030819	 -1.314870
H	 -0.591284	 -0.923375	 0.136958
C	 2.151032	 -0.811012	 -0.202643
H	 1.515939	 1.247397	 -0.115449
H	 1.191514	 0.341223	 1.333422
C	 3.580021	 -0.656538	 0.320835
H	 2.170545	 -0.847575	 -1.289412
H	 1.766632	 -1.772905	 0.124928
C	 4.327657	 0.562694	 -0.213579
H	 4.138806	 -1.549270	 0.057813
H	 3.561991	 -0.620783	 1.406976
H	 4.355973	 0.557257	 -1.298551
H	 3.867136	 1.491650	 0.100501
H	 5.351524	 0.571613	 0.142204

	symmetry c1
}
set optking {
	frozen_dihedral = ("
		3 5 8 12
	")
}

ee,wfn = optimize('scf', return_wfn=True)
oeprop( wfn, 'DIPOLE', 'QUADRUPOLE', 'MULLIKEN_CHARGES')
f=open( 'psi4out.xyz', 'w' )
f.write( "25  " )
f.write( str(ee) + "\n" )
f.write( MOL.save_string_xyz() )
f.close()
--------------------------------------------------------------------------

    Molecular point group: c1
  Charge       = 0
  Multiplicity = 1
  Basis Set: CC-PVTZ
  Basis Set:
  @DF-RHF Final Energy:  -387.25543691644185
    Total Energy =                       -387.2554369164413401
    Molecular point group: c1
  Basis Set: CC-PVTZ
  Basis Set:
  Basis Set: CC-PVTZ
  Basis Set:
  @DF-RHF Final Energy:  -387.25565320254265
    Total Energy =                       -387.2556532025423621
  Basis Set: CC-PVTZ
  Basis Set:
  Basis Set: CC-PVTZ
  Basis Set:
  @DF-RHF Final Energy:  -387.25552637157256
    Total Energy =                       -387.2555263715728415
  Basis Set: CC-PVTZ
  Basis Set:
  Basis Set: CC-PVTZ
  Basis Set:
  @DF-RHF Final Energy:  -387.25577012082374
    Total Energy =                       -387.2557701208232857
  Basis Set: CC-PVTZ
  Basis Set:
  Basis Set: CC-PVTZ
  Basis Set:
  @DF-RHF Final Energy:  -387.25575654081064
    Total Energy =                       -387.2557565408105802
  Basis Set: CC-PVTZ
  Basis Set:
  Basis Set: CC-PVTZ
  Basis Set:
  @DF-RHF Final Energy:  -387.25578214790391
    Total Energy =                       -387.2557821479042559
  Basis Set: CC-PVTZ
  Basis Set:
  Basis Set: CC-PVTZ
  Basis Set:
  @DF-RHF Final Energy:  -387.25578387178587
    Total Energy =                       -387.2557838717858658
  Basis Set: CC-PVTZ
  Basis Set:
  Charge       = 0
  Multiplicity = 1
  Basis Set: CC-PVTZ
  Basis Set:

    Orbital Energies (a.u.)
    -----------------------

    Doubly Occupied:

       1A    -20.551732     2A    -11.320733     3A    -11.234064
       4A    -11.232738     5A    -11.220419     6A    -11.217570
       7A    -11.215765     8A    -11.214248     9A    -11.208172
      10A     -1.406432    11A     -1.103197    12A     -1.070069
      13A     -1.013876    14A     -0.942306    15A     -0.876076
      16A     -0.822177    17A     -0.786511    18A     -0.782424
      19A     -0.669191    20A     -0.657809    21A     -0.639320
      22A     -0.623608    23A     -0.606037    24A     -0.590396
      25A     -0.579436    26A     -0.547523    27A     -0.537676
      28A     -0.526372    29A     -0.510949    30A     -0.499248
      31A     -0.489594    32A     -0.475614    33A     -0.463397
      34A     -0.458813    35A     -0.442072    36A     -0.411523

  @DF-RHF Final Energy:  -387.25578433242310

   => Energetics <=

    Nuclear Repulsion Energy =            440.6622351405075051
    One-Electron Energy =               -1397.9418664469026226
    Two-Electron Energy =                 570.0238469739713310
    DFT Exchange-Correlation Energy =       0.0000000000000000
    Empirical Dispersion Energy =           0.0000000000000000
    PCM Polarization Energy =               0.0000000000000000
    EFP Energy =                            0.0000000000000000
    Total Energy =                       -387.2557843324237865
    Molecular point group: c1
  Basis Set: CC-PVTZ
  Basis Set:

  -Total Gradient:
     Atom            X                  Y                   Z
    ------   -----------------  -----------------  -----------------
       1        0.000005703770     0.000031494190     0.000005820025
       2       -0.000035899298    -0.000038932776     0.000038190008
       3        0.001331560622     0.001348674550    -0.000453379394
       4        0.000028129174     0.000015785003    -0.000015554732
       5       -0.002325655328    -0.002472488749     0.000618921397
       6        0.000068916627     0.000032746929    -0.000047660613
       7       -0.000053157201     0.000037601608     0.000041723902
       8        0.003044604639     0.002978308134    -0.000292495472
       9        0.000005895825     0.000010367386    -0.000010037639
      10       -0.000012835254    -0.000031299477     0.000020557957
      11       -0.000084298474    -0.000018051605    -0.000042456971
      12       -0.002001726023    -0.001883961560     0.000102553776
      13       -0.000017860195    -0.000028863101     0.000020401969
      14        0.000036383016     0.000026993367    -0.000019535209
      15       -0.000010138475    -0.000025306569    -0.000005298191
      16        0.000006139528     0.000009572604     0.000020760601
      17       -0.000014655338     0.000023277852     0.000041584686
      18       -0.000004863733     0.000017918656    -0.000015492154
      19        0.000005739011    -0.000010068670    -0.000004059642
      20        0.000013135915    -0.000011533827    -0.000011547744
      21       -0.000006851471    -0.000011149547     0.000005844047
      22       -0.000003534464     0.000010028589     0.000017177618
      23       -0.000003205199     0.000009505303    -0.000016905353
      24        0.000022017400    -0.000009657278     0.000007537755
      25        0.000006454924    -0.000010961014    -0.000006650631

  **** Optimization is complete! (in 8 steps) ****
    Final optimized geometry and variables:
    Molecular point group: c1

    Geometry (in Angstrom), charge = 0, multiplicity = 1:

    H           -3.885886295746    -0.208208770221    -0.126014193500
    C           -3.246262068326     0.258760401452    -0.887215126405
    C           -2.309170091338     1.314065530628    -0.366854562986
    O           -3.328774281341    -0.078488533955    -2.017429850987
    C           -1.397307792488     0.789682893011     0.748444120792
    H           -1.731128467389     1.702315129937    -1.195287471242
    H           -2.925975055174     2.119997759354     0.024613862407
    C           -0.400086873825    -0.290919639250     0.286299283726
    H           -0.853208831267     1.638670773404     1.146257721480
    H           -2.003130073504     0.416632325365     1.568143241214
    C            1.024857118319    -0.054420984632     0.779009681400
    H           -0.407608800722    -0.360890964862    -0.796959855318
    H           -0.735670727967    -1.263684996204     0.633973710071
    C            1.994070872777    -1.153791481126     0.350674503272
    H            1.366140408892     0.908309633574     0.411420708642
    H            1.020466057688     0.017020297681     1.864680588000
    C            3.419243582308    -0.997299049476     0.884094079215
    H            2.021920335243    -1.203945363250    -0.735345282807
    H            1.603900878359    -2.110377426707     0.687147342675
    C            4.178158150840     0.208120390493     0.334392848351
    H            3.975501668082    -1.897470306812     0.641817394080
    H            3.391966298723    -0.942115586292     1.969280076439
    H            4.213555596220     0.184264798000    -0.750078127184
    H            3.721570660260     1.145147293729     0.629697109279
    H            5.199679906768     0.216541792718     0.696938270099

  Mulliken Charges: (a.u.)
   Center  Symbol    Alpha    Beta     Spin     Total
       1     H     0.46403  0.46403  0.00000  0.07193
       2     C     2.90271  2.90271  0.00000  0.19458
       3     C     3.09046  3.09046  0.00000 -0.18092
       4     O     4.16632  4.16632  0.00000 -0.33265
       5     C     3.11796  3.11796  0.00000 -0.23591
       6     H     0.44295  0.44295  0.00000  0.11410
       7     H     0.44173  0.44173  0.00000  0.11654
       8     C     3.09853  3.09853  0.00000 -0.19707
       9     H     0.44403  0.44403  0.00000  0.11195
      10     H     0.44483  0.44483  0.00000  0.11034
      11     C     3.09234  3.09234  0.00000 -0.18468
      12     H     0.44321  0.44321  0.00000  0.11358
      13     H     0.44805  0.44805  0.00000  0.10389
      14     C     3.09623  3.09623  0.00000 -0.19246
      15     H     0.45196  0.45196  0.00000  0.09608
      16     H     0.45327  0.45327  0.00000  0.09346
      17     C     3.09086  3.09086  0.00000 -0.18172
      18     H     0.45162  0.45162  0.00000  0.09676
      19     H     0.44895  0.44895  0.00000  0.10210
      20     C     3.15236  3.15236  0.00000 -0.30472
      21     H     0.44781  0.44781  0.00000  0.10438
      22     H     0.45499  0.45499  0.00000  0.09002
      23     H     0.45411  0.45411  0.00000  0.09178
      24     H     0.45453  0.45453  0.00000  0.09093
      25     H     0.44616  0.44616  0.00000  0.10769

   Total alpha = 36.00000, Total beta = 36.00000, Total charge = -0.00000

*** Psi4 exiting successfully. Buy a developer a beer!
