                              Psi4 1.0.54 Driver

  ==> Input File <==

--------------------------------------------------------------------------
set {
	reference rhf
	basis cc-pvtz
}

set_num_threads( 4 )
memory 2 gb

molecule MOL {
0 1

H	 0.199586	 -5.628139	 2.266244
C	 0.481900	 -4.732676	 1.725363
C	 -0.699289	 -3.778117	 1.590231
H	 1.301547	 -4.267698	 2.262962
H	 0.856012	 -5.038351	 0.753961
C	 -0.346796	 -2.505200	 0.834984
H	 -1.073892	 -3.507199	 2.571068
H	 -1.513814	 -4.283953	 1.077146
N	 -1.480796	 -1.611032	 0.744194
H	 0.449722	 -1.986167	 1.359707
H	 0.052333	 -2.766836	 -0.149559
C	 -1.215959	 -0.382435	 0.027143
H	 -2.252178	 -2.086587	 0.324509
C	 -2.451944	 0.502410	 -0.038737
H	 -0.423675	 0.146941	 0.547934
H	 -0.848274	 -0.567261	 -0.986624
C	 -3.752217	 -0.292550	 0.005776
H	 -2.407325	 1.093801	 -0.946480
H	 -2.431979	 1.206234	 0.790023
H	 -3.817783	 -0.982946	 -0.828547
H	 -4.612613	 0.364348	 -0.042306
H	 -3.830160	 -0.871666	 0.919868

	symmetry c1
}
set optking {
	frozen_dihedral = ("
		15 12 14 18
	")
}

ee,wfn = optimize('scf', return_wfn=True)
oeprop( wfn, 'DIPOLE', 'QUADRUPOLE', 'MULLIKEN_CHARGES')
f=open( 'psi4out.xyz', 'w' )
f.write( "22  " )
f.write( str(ee) + "\n" )
f.write( MOL.save_string_xyz() )
f.close()
--------------------------------------------------------------------------

    Molecular point group: c1
  Charge       = 0
  Multiplicity = 1
  Basis Set: CC-PVTZ
  Basis Set:
  @DF-RHF Final Energy:  -290.48177339184764
    Total Energy =                       -290.4817733918472413
    Molecular point group: c1
  Basis Set: CC-PVTZ
  Basis Set:
  Basis Set: CC-PVTZ
  Basis Set:
  @DF-RHF Final Energy:  -290.45994127964514
    Total Energy =                       -290.4599412796449087
  Basis Set: CC-PVTZ
  Basis Set:
  Basis Set: CC-PVTZ
  Basis Set:
  @DF-RHF Final Energy:  -290.48321240997842
    Total Energy =                       -290.4832124099782504
  Basis Set: CC-PVTZ
  Basis Set:
  Basis Set: CC-PVTZ
  Basis Set:
  @DF-RHF Final Energy:  -290.48418424443645
    Total Energy =                       -290.4841842444363920
  Basis Set: CC-PVTZ
  Basis Set:
  Basis Set: CC-PVTZ
  Basis Set:
  @DF-RHF Final Energy:  -290.48424580273650
    Total Energy =                       -290.4842458027364387
  Basis Set: CC-PVTZ
  Basis Set:
  Basis Set: CC-PVTZ
  Basis Set:
  @DF-RHF Final Energy:  -290.48426047909328
    Total Energy =                       -290.4842604790934502
  Basis Set: CC-PVTZ
  Basis Set:
  Basis Set: CC-PVTZ
  Basis Set:
  @DF-RHF Final Energy:  -290.48426550964803
    Total Energy =                       -290.4842655096477984
  Basis Set: CC-PVTZ
  Basis Set:
  Charge       = 0
  Multiplicity = 1
  Basis Set: CC-PVTZ
  Basis Set:

    Orbital Energies (a.u.)
    -----------------------

    Doubly Occupied:

       1A    -15.527455     2A    -11.236971     3A    -11.236042
       4A    -11.212321     5A    -11.211906     6A    -11.207618
       7A    -11.205234     8A     -1.206874     9A     -1.058177
      10A     -1.022740    11A     -0.928224    12A     -0.881686
      13A     -0.805150    14A     -0.785992    15A     -0.670806
      16A     -0.631633    17A     -0.625904    18A     -0.592234
      19A     -0.575733    20A     -0.569606    21A     -0.538685
      22A     -0.529357    23A     -0.504347    24A     -0.486891
      25A     -0.481700    26A     -0.472575    27A     -0.465761
      28A     -0.451358    29A     -0.360104

  @DF-RHF Final Energy:  -290.48426567334070

   => Energetics <=

    Nuclear Repulsion Energy =            318.7038058047405684
    One-Electron Energy =               -1023.4099747489353831
    Two-Electron Energy =                 414.2219032708542841
    DFT Exchange-Correlation Energy =       0.0000000000000000
    Empirical Dispersion Energy =           0.0000000000000000
    PCM Polarization Energy =               0.0000000000000000
    EFP Energy =                            0.0000000000000000
    Total Energy =                       -290.4842656733405306
    Molecular point group: c1
  Basis Set: CC-PVTZ
  Basis Set:

  -Total Gradient:
     Atom            X                  Y                   Z
    ------   -----------------  -----------------  -----------------
       1        0.000001372542    -0.000000593521    -0.000000292316
       2       -0.000005351816    -0.000002763657    -0.000006319595
       3        0.000010540254     0.000004925741     0.000016030056
       4        0.000001540190     0.000001567510     0.000002314301
       5       -0.000000179013    -0.000000282627     0.000001979476
       6       -0.000022301613    -0.000000952955    -0.000028001629
       7       -0.000005210452    -0.000001239101     0.000003228950
       8        0.000002351316     0.000002594147    -0.000003096713
       9        0.000029926688     0.000017545969     0.000002699896
      10       -0.000005455850    -0.000000702556     0.000001559582
      11        0.000012251941    -0.000002574280     0.000000161757
      12        0.003654276013     0.001250354776    -0.007055623174
      13        0.000011437905     0.000012098285     0.000002437866
      14        0.002985328347     0.004831301207     0.005608373445
      15       -0.003569471275    -0.001810822892     0.005124060585
      16        0.000005827343    -0.000006657974    -0.000001635302
      17       -0.000006530376     0.000006140226     0.000024178601
      18       -0.003103154838    -0.004302047081    -0.003682245796
      19       -0.000010521988    -0.000002961830    -0.000003965700
      20        0.000002350541     0.000014015207     0.000015991905
      21        0.000010947007    -0.000020440978     0.000005270453
      22        0.000000027133     0.000011496385    -0.000027106650

  **** Optimization is complete! (in 8 steps) ****
    Final optimized geometry and variables:
    Molecular point group: c1

    Geometry (in Angstrom), charge = 0, multiplicity = 1:

    H            0.779529823616    -3.749433194933     2.215086435530
    C            1.262233837265    -2.926483043000     1.701377851772
    C            0.235127310248    -1.929580409726     1.176164466450
    H            1.943108120833    -2.454641302836     2.401954068366
    H            1.855813102393    -3.343860913450     0.894868936516
    C            0.871221116091    -0.755320936568     0.446970108755
    H           -0.364437729832    -1.546466603209     1.994473399061
    H           -0.449819416962    -2.439975114212     0.503174590767
    N           -0.126815585359     0.185251901959    -0.015354211404
    H            1.540003569621    -0.233226395968     1.124604593459
    H            1.493742371345    -1.131682589554    -0.370572866354
    C            0.424991812900     1.309498178119    -0.748574711487
    H           -0.798258011897    -0.295728854688    -0.574299156699
    C           -0.625487180201     2.372956131053    -1.105225310924
    H            1.153198043459     1.758071800694    -0.082588408613
    H            0.950583070907     0.987507486863    -1.649821613615
    C           -2.018821727461     1.827906529544    -1.421751742530
    H           -0.285443382241     2.890614116560    -1.996475815710
    H           -0.703860225653     3.096815992753    -0.303280872358
    H           -1.989116547814     1.107371904509    -2.234328256401
    H           -2.673514493809     2.634209829585    -1.731185218799
    H           -2.466782925336     1.349339133958    -0.561239238906

  Mulliken Charges: (a.u.)
   Center  Symbol    Alpha    Beta     Spin     Total
       1     H     0.44769  0.44769  0.00000  0.10462
       2     C     3.15357  3.15357  0.00000 -0.30714
       3     C     3.08148  3.08148  0.00000 -0.16295
       4     H     0.45466  0.45466  0.00000  0.09067
       5     H     0.45607  0.45607  0.00000  0.08786
       6     C     3.02095  3.02095  0.00000 -0.04190
       7     H     0.44897  0.44897  0.00000  0.10206
       8     H     0.45992  0.45992  0.00000  0.08016
       9     N     3.64454  3.64454  0.00000 -0.28907
      10     H     0.45914  0.45914  0.00000  0.08173
      11     H     0.47503  0.47503  0.00000  0.04993
      12     C     3.03436  3.03436  0.00000 -0.06873
      13     H     0.43968  0.43968  0.00000  0.12063
      14     C     3.07671  3.07671  0.00000 -0.15342
      15     H     0.45700  0.45700  0.00000  0.08600
      16     H     0.46865  0.46865  0.00000  0.06271
      17     C     3.16204  3.16204  0.00000 -0.32407
      18     H     0.45567  0.45567  0.00000  0.08866
      19     H     0.45266  0.45266  0.00000  0.09467
      20     H     0.45747  0.45747  0.00000  0.08505
      21     H     0.44634  0.44634  0.00000  0.10731
      22     H     0.44739  0.44739  0.00000  0.10521

   Total alpha = 29.00000, Total beta = 29.00000, Total charge = -0.00000

*** Psi4 exiting successfully. Buy a developer a beer!
