                              Psi4 1.0.54 Driver

  ==> Input File <==

--------------------------------------------------------------------------
set {
	reference rhf
	basis cc-pvtz
}

set_num_threads( 4 )
memory 2 gb

molecule MOL {
0 1

O	 3.219313	 0.959291	 -0.614106
C	 2.698710	 0.058177	 -0.050237
C	 1.246364	 -0.005813	 0.348416
O	 3.344101	 -1.038700	 0.312317
C	 0.453207	 1.232821	 -0.049003
H	 0.839270	 -0.907818	 -0.092281
H	 1.216683	 -0.160521	 1.422434
C	 -0.998367	 1.217982	 0.432195
H	 0.481498	 1.345443	 -1.127236
H	 0.951413	 2.105557	 0.354893
C	 -1.882951	 0.151251	 -0.211235
H	 -1.429490	 2.193659	 0.228843
H	 -1.019755	 1.099323	 1.513279
C	 -2.955214	 0.737508	 -1.125752
H	 -1.258767	 -0.531846	 -0.782763
H	 -2.366217	 -0.446622	 0.555927
C	 -3.848871	 -0.318791	 -1.769478
H	 -2.478745	 1.326395	 -1.905836
H	 -3.572412	 1.429793	 -0.557708
C	 -4.916278	 0.274478	 -2.682961
H	 -3.233581	 -1.011159	 -2.337602
H	 -4.328031	 -0.906463	 -0.991081
H	 -5.532562	 -0.501162	 -3.122916
H	 -4.467763	 0.839601	 -3.493257
H	 -5.570174	 0.945865	 -2.136272
C	 4.720529	 -1.114346	 0.001449
H	 4.874321	 -1.055557	 -1.065852
H	 5.057824	 -2.067950	 0.373977
H	 5.264321	 -0.313596	 0.480350

	symmetry c1
}
set optking {
	frozen_dihedral = ("
		15 11 8 5
	")
}

ee,wfn = optimize('scf', return_wfn=True)
oeprop( wfn, 'DIPOLE', 'QUADRUPOLE', 'MULLIKEN_CHARGES')
f=open( 'psi4out.xyz', 'w' )
f.write( "29  " )
f.write( str(ee) + "\n" )
f.write( MOL.save_string_xyz() )
f.close()
--------------------------------------------------------------------------

    Molecular point group: c1
  Charge       = 0
  Multiplicity = 1
  Basis Set: CC-PVTZ
  Basis Set:
  @DF-RHF Final Energy:  -501.21951327956401
    Total Energy =                       -501.2195132795643531
    Molecular point group: c1
  Basis Set: CC-PVTZ
  Basis Set:
  Basis Set: CC-PVTZ
  Basis Set:
  @DF-RHF Final Energy:  -501.21968497097589
    Total Energy =                       -501.2196849709762319
  Basis Set: CC-PVTZ
  Basis Set:
  Basis Set: CC-PVTZ
  Basis Set:
  @DF-RHF Final Energy:  -501.21999392671694
    Total Energy =                       -501.2199939267159152
  Basis Set: CC-PVTZ
  Basis Set:
  Basis Set: CC-PVTZ
  Basis Set:
  @DF-RHF Final Energy:  -501.21983751412256
    Total Energy =                       -501.2198375141222186
  Basis Set: CC-PVTZ
  Basis Set:
  Basis Set: CC-PVTZ
  Basis Set:
  @DF-RHF Final Energy:  -501.22001204942103
    Total Energy =                       -501.2200120494208022
  Basis Set: CC-PVTZ
  Basis Set:
  Basis Set: CC-PVTZ
  Basis Set:
  @DF-RHF Final Energy:  -501.22002678059380
    Total Energy =                       -501.2200267805927751
  Basis Set: CC-PVTZ
  Basis Set:
  Basis Set: CC-PVTZ
  Basis Set:
  @DF-RHF Final Energy:  -501.22002893072874
    Total Energy =                       -501.2200289307288585
  Basis Set: CC-PVTZ
  Basis Set:
  Charge       = 0
  Multiplicity = 1
  Basis Set: CC-PVTZ
  Basis Set:

    Orbital Energies (a.u.)
    -----------------------

    Doubly Occupied:

       1A    -20.596075     2A    -20.533916     3A    -11.364319
       4A    -11.278316     5A    -11.232951     6A    -11.217458
       7A    -11.215226     8A    -11.213661     9A    -11.213248
      10A    -11.212055    11A    -11.206586    12A     -1.471968
      13A     -1.365540    14A     -1.098345    15A     -1.067580
      16A     -1.019134    17A     -0.977584    18A     -0.928398
      19A     -0.862796    20A     -0.802449    21A     -0.789222
      22A     -0.765252    23A     -0.702520    24A     -0.685928
      25A     -0.675630    26A     -0.651053    27A     -0.628163
      28A     -0.607772    29A     -0.594195    30A     -0.576907
      31A     -0.566589    32A     -0.557664    33A     -0.534352
      34A     -0.527496    35A     -0.519798    36A     -0.512002
      37A     -0.494577    38A     -0.477312    39A     -0.473823
      40A     -0.461197    41A     -0.459035    42A     -0.454837
      43A     -0.444015    44A     -0.436761

  @DF-RHF Final Energy:  -501.22002948309489

   => Energetics <=

    Nuclear Repulsion Energy =            614.3391900997861512
    One-Electron Energy =               -1900.1710357217752971
    Two-Electron Energy =                 784.6118161388948238
    DFT Exchange-Correlation Energy =       0.0000000000000000
    Empirical Dispersion Energy =           0.0000000000000000
    PCM Polarization Energy =               0.0000000000000000
    EFP Energy =                            0.0000000000000000
    Total Energy =                       -501.2200294830942084
    Molecular point group: c1
  Basis Set: CC-PVTZ
  Basis Set:

  -Total Gradient:
     Atom            X                  Y                   Z
    ------   -----------------  -----------------  -----------------
       1       -0.000003276149    -0.000011940225     0.000019325503
       2        0.000004462058     0.000004414427     0.000000103927
       3       -0.000011721782    -0.000010211173    -0.000030425491
       4       -0.000016125141     0.000003959421    -0.000010131670
       5        0.000184841871    -0.000467377419     0.000484959029
       6        0.000003708838     0.000009812871     0.000016064881
       7        0.000005031450     0.000009115023     0.000004320363
       8       -0.000282876055     0.000824832007    -0.000820519184
       9       -0.000001173161     0.000000212153    -0.000004325618
      10        0.000000680071    -0.000011254729    -0.000004906430
      11        0.000213070486    -0.000948519326     0.001075019991
      12        0.000004289377     0.000000612684     0.000004576767
      13        0.000006489180     0.000006042809    -0.000002672687
      14        0.000004071450    -0.000005860332    -0.000009723320
      15       -0.000123818559     0.000594187880    -0.000718339103
      16        0.000001235975    -0.000001846761    -0.000003686752
      17       -0.000005286064     0.000000742666     0.000003387677
      18        0.000000661392     0.000001158458    -0.000002124308
      19        0.000002060402    -0.000000581487    -0.000000240259
      20        0.000000650898     0.000000183920     0.000001143824
      21       -0.000000197761     0.000002477993     0.000000963989
      22       -0.000000640487    -0.000001707261     0.000000053113
      23        0.000000558168    -0.000000598792    -0.000000217866
      24        0.000000075227     0.000000276487     0.000000639729
      25        0.000000148515    -0.000000299580    -0.000000032939
      26        0.000015074116     0.000004128772    -0.000006340717
      27        0.000002242061    -0.000000564256     0.000008721471
      28       -0.000002362058     0.000006167070    -0.000002145835
      29       -0.000001874310    -0.000007563303    -0.000003448081

  **** Optimization is complete! (in 8 steps) ****
    Final optimized geometry and variables:
    Molecular point group: c1

    Geometry (in Angstrom), charge = 0, multiplicity = 1:

    O            3.028578996551     0.681778285330    -0.268390026319
    C            2.551205984989    -0.171734632542     0.398495721922
    C            1.135551290540    -0.191492121882     0.915465154963
    O            3.218736665461    -1.246755892352     0.785286482550
    C            0.321900236245     1.032003719114     0.513765662299
    H            0.683184565153    -1.112204142181     0.565337268919
    H            1.190398560431    -0.282572007493     1.995475852148
    C           -1.118954567278     0.989420065899     1.027012479936
    H            0.326747530418     1.130459588280    -0.566182053360
    H            0.816116470308     1.916754061657     0.896915760020
    C           -2.025164455490    -0.039440714029     0.318470477302
    H           -1.549378336888     1.978145298766     0.912524569763
    H           -1.104092452331     0.796990875900     2.095625549396
    C           -3.107294906589     0.606024869662    -0.545700015382
    H           -1.426545162308    -0.686407320066    -0.315488160576
    H           -2.499037397730    -0.687660266143     1.048286179975
    C           -3.983268131838    -0.404448050669    -1.279673106822
    H           -2.638550094695     1.268156559677    -1.270367345937
    H           -3.734355438188     1.237012975815     0.079667036322
    C           -5.065305699725     0.248188012745    -2.133669545168
    H           -3.357649907887    -1.031385535833    -1.909324650121
    H           -4.447965525901    -1.068720395081    -0.555893764571
    H           -5.668122614291    -0.496321296716    -2.640929504847
    H           -4.630707175773     0.893029025588    -2.890237112517
    H           -5.730009660228     0.854324530109    -1.527108564680
    C            4.565083233724    -1.358614040066     0.370720863553
    H            4.632109087501    -1.377108797300    -0.706961158481
    H            4.927040356971    -2.286925440605     0.781956047456
    H            5.149654970876    -0.531705415830     0.745853316854

  Mulliken Charges: (a.u.)
   Center  Symbol    Alpha    Beta     Spin     Total
       1     O     4.19685  4.19685  0.00000 -0.39369
       2     C     2.80482  2.80482  0.00000  0.39036
       3     C     3.10234  3.10234  0.00000 -0.20468
       4     O     4.14738  4.14738  0.00000 -0.29477
       5     C     3.08960  3.08960  0.00000 -0.17920
       6     H     0.43861  0.43861  0.00000  0.12278
       7     H     0.43932  0.43932  0.00000  0.12137
       8     C     3.11363  3.11363  0.00000 -0.22726
       9     H     0.44540  0.44540  0.00000  0.10919
      10     H     0.44152  0.44152  0.00000  0.11696
      11     C     3.09980  3.09980  0.00000 -0.19960
      12     H     0.44526  0.44526  0.00000  0.10948
      13     H     0.44722  0.44722  0.00000  0.10557
      14     C     3.08426  3.08426  0.00000 -0.16851
      15     H     0.45518  0.45518  0.00000  0.08963
      16     H     0.44694  0.44694  0.00000  0.10612
      17     C     3.08466  3.08466  0.00000 -0.16932
      18     H     0.45335  0.45335  0.00000  0.09331
      19     H     0.45362  0.45362  0.00000  0.09277
      20     C     3.15034  3.15034  0.00000 -0.30068
      21     H     0.45463  0.45463  0.00000  0.09075
      22     H     0.45501  0.45501  0.00000  0.08997
      23     H     0.44843  0.44843  0.00000  0.10314
      24     H     0.45478  0.45478  0.00000  0.09044
      25     H     0.45519  0.45519  0.00000  0.08961
      26     C     3.03795  3.03795  0.00000 -0.07589
      27     H     0.45439  0.45439  0.00000  0.09122
      28     H     0.44527  0.44527  0.00000  0.10946
      29     H     0.45426  0.45426  0.00000  0.09147

   Total alpha = 44.00000, Total beta = 44.00000, Total charge = -0.00000

*** Psi4 exiting successfully. Buy a developer a beer!
