                              Psi4 1.0.54 Driver

  ==> Input File <==

--------------------------------------------------------------------------
set {
	reference rhf
	basis cc-pvtz
}

set_num_threads( 4 )
memory 2 gb

molecule MOL {
0 1

H	 -2.171709	 0.882708	 0.500286
C	 -2.016894	 0.001719	 -0.114152
O	 -0.775228	 0.000056	 -0.739966
H	 -2.760846	 0.003757	 -0.898169
H	 -2.174774	 -0.879864	 0.498643
C	 -0.406308	 1.077637	 -1.577819
C	 0.992398	 0.707228	 -2.058759
C	 -1.353220	 1.195796	 -2.773660
C	 -0.356713	 2.392257	 -0.796851
H	 0.966758	 -0.235438	 -2.590573
H	 1.661086	 0.599305	 -1.214181
H	 1.389653	 1.467750	 -2.720397
H	 -1.434828	 0.243714	 -3.284099
H	 -0.975960	 1.928435	 -3.477084
H	 -2.345853	 1.511526	 -2.477762
H	 0.263290	 2.282756	 0.084793
H	 0.064125	 3.176968	 -1.414104
H	 -1.341037	 2.718083	 -0.484585

	symmetry c1
}
set optking {
	frozen_dihedral = ("
		6 3 2 5
	")
}

ee,wfn = optimize('scf', return_wfn=True)
oeprop( wfn, 'DIPOLE', 'QUADRUPOLE', 'MULLIKEN_CHARGES')
f=open( 'psi4out.xyz', 'w' )
f.write( "18  " )
f.write( str(ee) + "\n" )
f.write( MOL.save_string_xyz() )
f.close()
--------------------------------------------------------------------------

    Molecular point group: c1
  Charge       = 0
  Multiplicity = 1
  Basis Set: CC-PVTZ
  Basis Set:
  @DF-RHF Final Energy:  -271.27425577336101
    Total Energy =                       -271.2742557733607782
    Molecular point group: c1
  Basis Set: CC-PVTZ
  Basis Set:
  Basis Set: CC-PVTZ
  Basis Set:
  @DF-RHF Final Energy:  -271.27625854861560
    Total Energy =                       -271.2762585486156013
  Basis Set: CC-PVTZ
  Basis Set:
  Basis Set: CC-PVTZ
  Basis Set:
  @DF-RHF Final Energy:  -271.27674625912096
    Total Energy =                       -271.2767462591206709
  Basis Set: CC-PVTZ
  Basis Set:
  Basis Set: CC-PVTZ
  Basis Set:
  @DF-RHF Final Energy:  -271.27672931709355
    Total Energy =                       -271.2767293170936682
  Basis Set: CC-PVTZ
  Basis Set:
  Basis Set: CC-PVTZ
  Basis Set:
  @DF-RHF Final Energy:  -271.27675424590808
    Total Energy =                       -271.2767542459081369
  Basis Set: CC-PVTZ
  Basis Set:
  Basis Set: CC-PVTZ
  Basis Set:
  @DF-RHF Final Energy:  -271.27675698658572
    Total Energy =                       -271.2767569865854966
  Basis Set: CC-PVTZ
  Basis Set:
  Charge       = 0
  Multiplicity = 1
  Basis Set: CC-PVTZ
  Basis Set:

    Orbital Energies (a.u.)
    -----------------------

    Doubly Occupied:

       1A    -20.540655     2A    -11.280117     3A    -11.258038
       4A    -11.207077     5A    -11.207055     6A    -11.201799
       7A     -1.373674     8A     -1.074672     9A     -0.946718
      10A     -0.940854    11A     -0.913181    12A     -0.753503
      13A     -0.656650    14A     -0.646657    15A     -0.639406
      16A     -0.593909    17A     -0.575986    18A     -0.553304
      19A     -0.534328    20A     -0.524855    21A     -0.515068
      22A     -0.488140    23A     -0.488071    24A     -0.440778
      25A     -0.407740

  @DF-RHF Final Energy:  -271.27675691876851

   => Energetics <=

    Nuclear Repulsion Energy =            272.6689517821858431
    One-Electron Energy =                -908.3669531729008213
    Two-Electron Energy =                 364.4212444719465793
    DFT Exchange-Correlation Energy =       0.0000000000000000
    Empirical Dispersion Energy =           0.0000000000000000
    PCM Polarization Energy =               0.0000000000000000
    EFP Energy =                            0.0000000000000000
    Total Energy =                       -271.2767569187684558
    Molecular point group: c1
  Basis Set: CC-PVTZ
  Basis Set:

  -Total Gradient:
     Atom            X                  Y                   Z
    ------   -----------------  -----------------  -----------------
       1       -0.000002292330    -0.000012613330     0.000001284629
       2        0.000014915645     0.000002174741    -0.000022632480
       3       -0.000020226207    -0.000006000232     0.000009568212
       4       -0.000018052704     0.000011620980    -0.000015890083
       5       -0.000000155286    -0.000001361135     0.000002011006
       6        0.000028602767     0.000008662329     0.000035871594
       7        0.000008043098     0.000008400339    -0.000011059378
       8       -0.000011217566    -0.000015740936     0.000020413532
       9        0.000004840796     0.000013134714    -0.000016093924
      10       -0.000002370755     0.000000464008    -0.000002543267
      11       -0.000007359117    -0.000001537426    -0.000002805641
      12        0.000005809003     0.000000231979    -0.000004009392
      13        0.000009716379     0.000006582613     0.000004860318
      14       -0.000003627300     0.000000622292     0.000007292487
      15       -0.000014403419    -0.000012571035     0.000009442812
      16       -0.000010842271     0.000002622399    -0.000007280896
      17        0.000000165783    -0.000004281592     0.000007307672
      18        0.000018453482    -0.000000410710    -0.000015737201

  **** Optimization is complete! (in 7 steps) ****
    Final optimized geometry and variables:
    Molecular point group: c1

    Geometry (in Angstrom), charge = 0, multiplicity = 1:

    H           -1.423559954153    -0.049190768099     1.928750838095
    C           -1.311650735973    -0.890204774011     1.252143389600
    O           -0.085745508252    -0.886607927029     0.595972980916
    H           -2.151266443157    -0.895522595384     0.564638592351
    H           -1.349641857465    -1.798820593690     1.836195865243
    C            0.255766932650     0.190242130373    -0.254387373792
    C            1.642973828338    -0.174973269430    -0.771298100381
    C           -0.723101397874     0.300638635811    -1.424929233337
    C            0.319826995859     1.507266117862     0.521452801565
    H            1.607512003033    -1.118751944269    -1.300560018832
    H            2.334082653432    -0.278375651349     0.055599642920
    H            2.019372589473     0.585993826768    -1.444514970426
    H           -0.812721792518    -0.652878785280    -1.931306937438
    H           -0.368772326483     1.033995777182    -2.139420483801
    H           -1.709353934613     0.611304611129    -1.103454671210
    H            0.962638329877     1.402769443424     1.387189102385
    H            0.721397162942     2.291989660459    -0.108464147813
    H           -0.657504122871     1.829898064272     0.857966984265

  Mulliken Charges: (a.u.)
   Center  Symbol    Alpha    Beta     Spin     Total
       1     H     0.46981  0.46981  0.00000  0.06037
       2     C     3.04424  3.04424  0.00000 -0.08848
       3     O     4.18981  4.18981  0.00000 -0.37962
       4     H     0.46981  0.46981  0.00000  0.06038
       5     H     0.44022  0.44022  0.00000  0.11956
       6     C     2.87275  2.87275  0.00000  0.25450
       7     C     3.14153  3.14153  0.00000 -0.28307
       8     C     3.16450  3.16450  0.00000 -0.32900
       9     C     3.16448  3.16448  0.00000 -0.32896
      10     H     0.44882  0.44882  0.00000  0.10235
      11     H     0.44880  0.44880  0.00000  0.10239
      12     H     0.45938  0.45938  0.00000  0.08124
      13     H     0.44511  0.44511  0.00000  0.10978
      14     H     0.44838  0.44838  0.00000  0.10323
      15     H     0.44944  0.44944  0.00000  0.10113
      16     H     0.44510  0.44510  0.00000  0.10980
      17     H     0.44839  0.44839  0.00000  0.10322
      18     H     0.44943  0.44943  0.00000  0.10115

   Total alpha = 25.00000, Total beta = 25.00000, Total charge = -0.00000

*** Psi4 exiting successfully. Buy a developer a beer!
