  ==> Input File <==

--------------------------------------------------------------------------
set {
	reference rhf
	basis 6-31G*
}

set_num_threads( 4 )
memory 2 gb

molecule MOL {
0 1

H	 2.462501	 2.591893	 -1.463803
O	 1.520370	 2.531132	 -1.536643
C	 1.038836	 1.529315	 -0.769259
C	 1.862970	 0.723809	 0.006154
C	 -0.329030	 1.318707	 -0.773572
H	 2.927214	 0.889390	 0.008082
C	 1.319309	 -0.290796	 0.776012
H	 -0.966733	 1.940172	 -1.372063
C	 -0.865228	 0.300799	 0.000000
H	 1.967131	 -0.907645	 1.372000
C	 -0.046627	 -0.508388	 0.777740
C	 -2.333960	 0.069074	 0.000000
H	 -0.471047	 -1.295908	 1.374973
O	 -2.847347	 -1.003763	 0.000000
H	 -2.943845	 0.977528	 0.000000

	symmetry c1
}
set optking {
	frozen_dihedral = ("
		11 9 12 14
	")
}

ee = optimize('scf')
oeprop('DIPOLE', 'QUADRUPOLE', 'MULLIKEN_CHARGES')
f=open( 'psi4out.xyz', 'w' )
f.write( "15  " )
f.write( str(ee) + "\n" )
f.write( MOL.save_string_xyz() )
f.close()
--------------------------------------------------------------------------

    Molecular point group: c1
  Charge       = 0
  Multiplicity = 1
  Basis Set: 6-31G*
  Basis Set:
  @DF-RHF Final Energy:  -418.28129352567589
    Total Energy =                       -418.2812935256760056
    Molecular point group: c1
  Basis Set: 6-31G*
  Basis Set:
  Basis Set: 6-31G*
  Basis Set:
  @DF-RHF Final Energy:  -418.27985694789129
    Total Energy =                       -418.2798569478912896
  Basis Set: 6-31G*
  Basis Set:
  Basis Set: 6-31G*
  Basis Set:
  @DF-RHF Final Energy:  -418.28167753341722
    Total Energy =                       -418.2816775334175645
  Basis Set: 6-31G*
  Basis Set:
  Basis Set: 6-31G*
  Basis Set:
  @DF-RHF Final Energy:  -418.28190415344199
    Total Energy =                       -418.2819041534419284
  Basis Set: 6-31G*
  Basis Set:
  Charge       = 0
  Multiplicity = 1
  Basis Set: 6-31G*
  Basis Set:

    Orbital Energies (a.u.)
    -----------------------

    Doubly Occupied:

       1A    -20.604314     2A    -20.567737     3A    -11.333937
       4A    -11.314617     5A    -11.254144     6A    -11.251325
       7A    -11.246866     8A    -11.244660     9A    -11.239645
      10A     -1.423796    11A     -1.407501    12A     -1.169055
      13A     -1.050243    14A     -1.024330    15A     -0.900779
      16A     -0.844847    17A     -0.814613    18A     -0.738205
      19A     -0.700751    20A     -0.672714    21A     -0.664722
      22A     -0.630457    23A     -0.612737    24A     -0.603008
      25A     -0.580485    26A     -0.541085    27A     -0.539695
      28A     -0.515177    29A     -0.487636    30A     -0.423766
      31A     -0.355002    32A     -0.324342

  @DF-RHF Final Energy:  -418.28190669708499

   => Energetics <=

    Nuclear Repulsion Energy =            402.0771379822065228
    One-Electron Energy =               -1366.5537074689302699
    Two-Electron Energy =                 546.1946627896386417
    DFT Exchange-Correlation Energy =       0.0000000000000000
    Empirical Dispersion Energy =           0.0000000000000000
    PCM Polarization Energy =               0.0000000000000000
    EFP Energy =                            0.0000000000000000
    Total Energy =                       -418.2819066970851054
    Molecular point group: c1
  Basis Set: 6-31G*
  Basis Set:

  -Total Gradient:
     Atom            X                  Y                   Z
    ------   -----------------  -----------------  -----------------
       1       -0.000004812064    -0.000007954970     0.000001609404
       2        0.000039856610    -0.000002212672     0.000032088213
       3       -0.000374798183     0.000074952571    -0.000132157090
       4        0.000048172821    -0.000364794807     0.000151659819
       5        0.000281730936     0.000207602789    -0.000045349003
       6       -0.000000291969     0.000023536865     0.000000703481
       7        0.000288532125     0.000281969328    -0.000027108504
       8       -0.000021885934    -0.000041459482     0.000004348313
       9        0.000564707854    -0.005459346414    -0.008597465153
      10       -0.000009946412    -0.000024993449    -0.000009335730
      11       -0.000739649915     0.003631288617     0.003860113791
      12       -0.000015379293     0.002012498493     0.011249321542
      13        0.000017227239    -0.000022884644    -0.000004024611
      14       -0.000117362273    -0.000298779074    -0.006507200740
      15        0.000043898454    -0.000009423156     0.000022796274

  **** Optimization is complete! (in 5 steps) ****
    Final optimized geometry and variables:
    Molecular point group: c1

    Geometry (in Angstrom), charge = 0, multiplicity = 1:

    H            2.539565080311     2.054131363989    -1.278444195926
    O            1.596721591783     1.991411646299    -1.341322465412
    C            1.128308926015     0.982964714485    -0.574121538749
    C            1.954684213402     0.183612793240     0.199080121453
    C           -0.242371207147     0.770692346160    -0.565948471096
    H            3.017597828397     0.356995971819     0.206259886738
    C            1.410414095777    -0.832219558990     0.971535086171
    H           -0.871378205855     1.415805083102    -1.152861410195
    C           -0.771569526132    -0.269998046229     0.177935402204
    H            2.059653826632    -1.437877905932     1.577532851313
    C            0.049543439683    -1.067925044576     0.967070931267
    C           -2.249374998755    -0.465387138219     0.202335623123
    H           -0.378930956692    -1.859479313049     1.552169491624
    O           -2.778739016452    -1.529271320517     0.242428350038
    H           -2.843427316484     0.449983875321     0.129324142649

  Mulliken Charges: (a.u.)
   Center  Symbol    Alpha    Beta     Spin     Total
       1     H     0.27006  0.27006  0.00000  0.45988
       2     O     4.37716  4.37716  0.00000 -0.75432
       3     C     2.79387  2.79387  0.00000  0.41227
       4     C     3.13752  3.13752  0.00000 -0.27504
       5     C     3.12917  3.12917  0.00000 -0.25834
       6     H     0.39961  0.39961  0.00000  0.20078
       7     C     3.09289  3.09289  0.00000 -0.18579
       8     H     0.38545  0.38545  0.00000  0.22909
       9     C     3.03191  3.03191  0.00000 -0.06383
      10     H     0.39276  0.39276  0.00000  0.21448
      11     C     3.10655  3.10655  0.00000 -0.21309
      12     C     2.84245  2.84245  0.00000  0.31510
      13     H     0.38314  0.38314  0.00000  0.23372
      14     O     4.23632  4.23632  0.00000 -0.47264
      15     H     0.42113  0.42113  0.00000  0.15774

   Total alpha = 32.00000, Total beta = 32.00000, Total charge = -0.00000
