                              Psi4 1.0.54 Driver

  ==> Input File <==

--------------------------------------------------------------------------
set {
	reference rhf
	basis cc-pvtz
}

set_num_threads( 4 )
memory 2 gb

molecule MOL {
0 1

O	 1.216069	 1.304886	 0.000821
C	 1.121787	 0.124983	 0.000110
C	 -0.170912	 -0.649867	 -0.000147
O	 2.167739	 -0.685178	 -0.000678
C	 -1.413045	 0.229353	 0.001137
H	 -0.152877	 -1.303435	 -0.866175
H	 -0.152278	 -1.305116	 0.864586
C	 -2.701154	 -0.584533	 0.082834
H	 -1.420592	 0.839876	 -0.894823
H	 -1.361789	 0.920516	 0.834930
C	 -3.952468	 0.286733	 0.082512
H	 -2.745221	 -1.277486	 -0.753297
H	 -2.687725	 -1.194301	 0.982411
H	 -4.012536	 0.883621	 -0.821204
H	 -4.850637	 -0.317033	 0.141114
H	 -3.954710	 0.967312	 0.927135
C	 3.449556	 -0.089977	 -0.000570
H	 3.585694	 0.522473	 -0.879546
H	 4.155805	 -0.904274	 -0.001389
H	 3.586173	 0.521118	 0.879272

	symmetry c1
}
set optking {
	frozen_dihedral = ("
		9 5 3 6
	")
}

ee,wfn = optimize('scf', return_wfn=True)
oeprop( wfn, 'DIPOLE', 'QUADRUPOLE', 'MULLIKEN_CHARGES')
f=open( 'psi4out.xyz', 'w' )
f.write( "20  " )
f.write( str(ee) + "\n" )
f.write( MOL.save_string_xyz() )
f.close()
--------------------------------------------------------------------------

    Molecular point group: c1
  Charge       = 0
  Multiplicity = 1
  Basis Set: CC-PVTZ
  Basis Set:
  @DF-RHF Final Energy:  -384.08324162343433
    Total Energy =                       -384.0832416234339917
    Molecular point group: c1
  Basis Set: CC-PVTZ
  Basis Set:
  Basis Set: CC-PVTZ
  Basis Set:
  @DF-RHF Final Energy:  -384.08324597484398
    Total Energy =                       -384.0832459748436349
  Basis Set: CC-PVTZ
  Basis Set:
  Basis Set: CC-PVTZ
  Basis Set:
  @DF-RHF Final Energy:  -384.08324287613306
    Total Energy =                       -384.0832428761329993
  Basis Set: CC-PVTZ
  Basis Set:
  Basis Set: CC-PVTZ
  Basis Set:
  @DF-RHF Final Energy:  -384.08324704903004
    Total Energy =                       -384.0832470490299784
  Basis Set: CC-PVTZ
  Basis Set:
  Charge       = 0
  Multiplicity = 1
  Basis Set: CC-PVTZ
  Basis Set:

    Orbital Energies (a.u.)
    -----------------------

    Doubly Occupied:

       1A    -20.596404     2A    -20.534225     3A    -11.364676
       4A    -11.278559     5A    -11.233996     6A    -11.218405
       7A    -11.217307     8A    -11.208739     9A     -1.472307
      10A     -1.365885    11A     -1.090004    12A     -1.025516
      13A     -0.969943    14A     -0.886422    15A     -0.804525
      16A     -0.769539    17A     -0.698976    18A     -0.686936
      19A     -0.675884    20A     -0.647194    21A     -0.598921
      22A     -0.592637    23A     -0.580208    24A     -0.540683
      25A     -0.538385    26A     -0.524148    27A     -0.501448
      28A     -0.478968    29A     -0.474772    30A     -0.471769
      31A     -0.459374    32A     -0.440092

  @DF-RHF Final Energy:  -384.08324707044727

   => Energetics <=

    Nuclear Repulsion Energy =            381.7302319121640153
    One-Electron Energy =               -1279.7332675426816877
    Two-Electron Energy =                 513.9197885600700602
    DFT Exchange-Correlation Energy =       0.0000000000000000
    Empirical Dispersion Energy =           0.0000000000000000
    PCM Polarization Energy =               0.0000000000000000
    EFP Energy =                            0.0000000000000000
    Total Energy =                       -384.0832470704475554
    Molecular point group: c1
  Basis Set: CC-PVTZ
  Basis Set:

  -Total Gradient:
     Atom            X                  Y                   Z
    ------   -----------------  -----------------  -----------------
       1        0.000002094030     0.000010151203    -0.000010920822
       2        0.000004073019    -0.000007529716     0.000046769227
       3       -0.000419643670    -0.000584483715     0.000279699009
       4       -0.000003977696     0.000001274223    -0.000012882016
       5        0.000421107099     0.000589147760     0.000225617891
       6        0.000274880291     0.000389816644    -0.000293082738
       7       -0.000003254740     0.000004663020    -0.000005865986
       8        0.000001082758    -0.000000070423     0.000043633605
       9       -0.000272336880    -0.000395409767    -0.000268942638
      10       -0.000002656915    -0.000006272503    -0.000003671815
      11       -0.000000768315     0.000000066957    -0.000007163458
      12        0.000007313772     0.000009284259     0.000005366765
      13       -0.000011914263    -0.000009769109     0.000004138535
      14        0.000000377945     0.000003180700     0.000001219758
      15        0.000001414810    -0.000000451292    -0.000004069468
      16        0.000000117506    -0.000004533884    -0.000000880299
      17        0.000004304009     0.000002996589     0.000001401500
      18       -0.000000469612    -0.000001020972     0.000001318603
      19       -0.000001207871    -0.000000046609    -0.000000214871
      20       -0.000000535268    -0.000000993364    -0.000001470783

  **** Optimization is complete! (in 5 steps) ****
    Final optimized geometry and variables:
    Molecular point group: c1

    Geometry (in Angstrom), charge = 0, multiplicity = 1:

    O            1.216209670129     1.304377797789    -0.018706273443
    C            1.121476861593     0.124522825368    -0.018589915618
    C           -0.171513113631    -0.650344656663    -0.013834353728
    O            2.167164910556    -0.686035040690    -0.023619846327
    C           -1.412974495087     0.229934381697    -0.010429918701
    H           -0.154418504164    -1.301654490453    -0.881534052770
    H           -0.150155451018    -1.305302328055     0.850936810743
    C           -2.701578887006    -0.584541164261     0.061931356000
    H           -1.419505873259     0.842446181277    -0.905232420157
    H           -1.364413972544     0.916792880851     0.826642209864
    C           -3.953129662780     0.286374611818     0.054398605109
    H           -2.740189043946    -1.276809134161    -0.775071684342
    H           -2.693690168246    -1.195114412730     0.961001845758
    H           -4.008025156009     0.883689083059    -0.849372828580
    H           -4.851484130936    -0.317635589077     0.107313103261
    H           -3.960618793729     0.966578163340     0.899293120167
    C            3.449165651077    -0.091376767522    -0.029042303717
    H            3.581905947490     0.520725186472    -0.908782372178
    H            4.155106124391    -0.905938773527    -0.032511019182
    H            3.589718949933     0.519981705286     0.850001816146

  Mulliken Charges: (a.u.)
   Center  Symbol    Alpha    Beta     Spin     Total
       1     O     4.19681  4.19681  0.00000 -0.39362
       2     C     2.80659  2.80659  0.00000  0.38682
       3     C     3.10026  3.10026  0.00000 -0.20052
       4     O     4.14658  4.14658  0.00000 -0.29316
       5     C     3.08116  3.08116  0.00000 -0.16232
       6     H     0.44002  0.44002  0.00000  0.11996
       7     H     0.44040  0.44040  0.00000  0.11920
       8     C     3.08694  3.08694  0.00000 -0.17388
       9     H     0.44766  0.44766  0.00000  0.10468
      10     H     0.44591  0.44591  0.00000  0.10817
      11     C     3.14923  3.14923  0.00000 -0.29845
      12     H     0.45538  0.45538  0.00000  0.08924
      13     H     0.45517  0.45517  0.00000  0.08967
      14     H     0.45396  0.45396  0.00000  0.09208
      15     H     0.44838  0.44838  0.00000  0.10325
      16     H     0.45380  0.45380  0.00000  0.09239
      17     C     3.03770  3.03770  0.00000 -0.07540
      18     H     0.45436  0.45436  0.00000  0.09128
      19     H     0.44535  0.44535  0.00000  0.10930
      20     H     0.45434  0.45434  0.00000  0.09132

   Total alpha = 32.00000, Total beta = 32.00000, Total charge =  0.00000

*** Psi4 exiting successfully. Buy a developer a beer!
