  ==> Input File <==

--------------------------------------------------------------------------
set {
	reference rhf
	basis cc-pvtz
}

set_num_threads( 4 )
memory 2 gb

molecule MOL {
0 1

H	 1.481992	 1.068018	 -1.990039
O	 0.626740	 0.897947	 -1.641806
C	 0.700177	 0.619554	 -0.266242
C	 -0.713111	 0.588314	 0.266177
H	 1.265516	 1.389054	 0.250659
H	 1.177943	 -0.340573	 -0.089398
O	 -1.421673	 -0.521378	 -0.196983
H	 -1.244794	 1.469161	 -0.069059
H	 -0.685100	 0.604721	 1.352683
H	 -0.933408	 -1.297830	 0.014544

	symmetry c1
}
set optking {
	frozen_dihedral = ("
		5 3 4 7
	")
}

ee = optimize('scf')
oeprop('DIPOLE', 'QUADRUPOLE', 'MULLIKEN_CHARGES')
f=open( 'psi4out.xyz', 'w' )
f.write( "10  " )
f.write( str(ee) + "\n" )
f.write( MOL.save_string_xyz() )
f.close()
--------------------------------------------------------------------------

    Molecular point group: c1
  Charge       = 0
  Multiplicity = 1
  Basis Set: CC-PVTZ
  Basis Set:
  @DF-RHF Final Energy:  -229.02258820439957
    Total Energy =                       -229.0225882043995114
    Molecular point group: c1
  Basis Set: CC-PVTZ
  Basis Set:
  Basis Set: CC-PVTZ
  Basis Set:
  @DF-RHF Final Energy:  -229.02324128701989
    Total Energy =                       -229.0232412870198573
  Basis Set: CC-PVTZ
  Basis Set:
  Basis Set: CC-PVTZ
  Basis Set:
  @DF-RHF Final Energy:  -229.02337867875653
    Total Energy =                       -229.0233786787564441
  Basis Set: CC-PVTZ
  Basis Set:
  Basis Set: CC-PVTZ
  Basis Set:
  @DF-RHF Final Energy:  -229.02339886565588
    Total Energy =                       -229.0233988656557642
  Basis Set: CC-PVTZ
  Basis Set:
  Basis Set: CC-PVTZ
  Basis Set:
  @DF-RHF Final Energy:  -229.02340323729143
    Total Energy =                       -229.0234032372915181
  Basis Set: CC-PVTZ
  Basis Set:
  Charge       = 0
  Multiplicity = 1
  Basis Set: CC-PVTZ
  Basis Set:

    Orbital Energies (a.u.)
    -----------------------

    Doubly Occupied:

       1A    -20.551751     2A    -20.546419     3A    -11.274514
       4A    -11.268549     5A     -1.378959     6A     -1.358534
       7A     -1.003829     8A     -0.847116     9A     -0.723238
      10A     -0.679003    11A     -0.657995    12A     -0.600900
      13A     -0.574107    14A     -0.544127    15A     -0.480933
      16A     -0.449048    17A     -0.440595

  @DF-RHF Final Energy:  -229.02340414738350

   => Energetics <=

    Nuclear Repulsion Energy =            133.3306961567415385
    One-Electron Energy =                -577.9489691920637142
    Two-Electron Energy =                 215.5948688879385031
    DFT Exchange-Correlation Energy =       0.0000000000000000
    Empirical Dispersion Energy =           0.0000000000000000
    PCM Polarization Energy =               0.0000000000000000
    EFP Energy =                            0.0000000000000000
    Total Energy =                       -229.0234041473837010
    Molecular point group: c1
  Basis Set: CC-PVTZ
  Basis Set:

  -Total Gradient:
     Atom            X                  Y                   Z
    ------   -----------------  -----------------  -----------------
       1       -0.000028235096    -0.000003959685    -0.000011010854
       2        0.000040341255    -0.000001277506     0.000021261949
       3       -0.000201363078     0.000581217324    -0.000566567515
       4       -0.000256907975     0.000306073592    -0.000557519852
       5        0.000247859250    -0.000574256750     0.000552462926
       6       -0.000001275762     0.000002824949     0.000025243806
       7        0.000213959809    -0.000311838573     0.000529076239
       8        0.000000062211    -0.000005601731    -0.000004028211
       9       -0.000034154293     0.000015741664     0.000030055326
      10        0.000019713679    -0.000008923284    -0.000018973818

  **** Optimization is complete! (in 6 steps) ****
    Final optimized geometry and variables:
    Molecular point group: c1

    Geometry (in Angstrom), charge = 0, multiplicity = 1:

    H            1.705809455326     0.563022531212    -1.518871585542
    O            0.839457349525     0.562797498602    -1.156286786012
    C            0.884558774879     0.264106452103     0.207336792770
    C           -0.522963108307     0.176566077967     0.754894256123
    H            1.421608656550     1.031883038657     0.761110641535
    H            1.399217463942    -0.680826535460     0.381843770827
    O           -1.247231050028    -0.919605851727     0.280237728067
    H           -1.072984863399     1.059061828467     0.459575966534
    H           -0.468843739782     0.163334237676     1.841814792701
    H           -0.818600086204    -1.720679928164     0.520940443375

  Mulliken Charges: (a.u.)
   Center  Symbol    Alpha    Beta     Spin     Total
       1     H     0.39581  0.39581  0.00000  0.20838
       2     O     4.19090  4.19090  0.00000 -0.38181
       3     C     2.96441  2.96441  0.00000  0.07118
       4     C     2.96534  2.96534  0.00000  0.06932
       5     H     0.47606  0.47606  0.00000  0.04787
       6     H     0.48334  0.48334  0.00000  0.03331
       7     O     4.19696  4.19696  0.00000 -0.39392
       8     H     0.45557  0.45557  0.00000  0.08885
       9     H     0.47464  0.47464  0.00000  0.05073
      10     H     0.39696  0.39696  0.00000  0.20608

   Total alpha = 17.00000, Total beta = 17.00000, Total charge =  0.00000
