  ==> Input File <==

--------------------------------------------------------------------------
set {
	reference rhf
	basis cc-pvtz
}

set_num_threads( 4 )
memory 2 gb

molecule MOL {
0 1

H	 -2.644180	 -0.653737	 1.272255
C	 -2.092774	 -0.380414	 0.391915
O	 -0.808934	 -0.154049	 0.752536
F	 -2.163230	 -1.351640	 -0.507133
F	 -2.627232	 0.691260	 -0.169301
C	 0.085006	 0.250800	 -0.215074
C	 1.370439	 -0.548013	 -0.012993
Cl	 0.421658	 1.987697	 -0.091007
H	 -0.272219	 0.063284	 -1.212508
F	 1.895271	 -0.871275	 -1.167582
F	 1.087421	 -1.657686	 0.627196
F	 2.258004	 0.109861	 0.681040

	symmetry c1
}
set optking {
	frozen_dihedral = ("
		10 7 6 9
	")
}

ee = optimize('scf')
oeprop('DIPOLE', 'QUADRUPOLE', 'MULLIKEN_CHARGES')
f=open( 'psi4out.xyz', 'w' )
f.write( "12  " )
f.write( str(ee) + "\n" )
f.write( MOL.save_string_xyz() )
f.close()
--------------------------------------------------------------------------

    Molecular point group: c1
  Charge       = 0
  Multiplicity = 1
  Basis Set: CC-PVTZ
  Basis Set:
  @DF-RHF Final Energy: -1146.61231051417963
    Total Energy =                      -1146.6123105141803080
    Molecular point group: c1
  Basis Set: CC-PVTZ
  Basis Set:
  Basis Set: CC-PVTZ
  Basis Set:
  @DF-RHF Final Energy: -1146.61286311267895
    Total Energy =                      -1146.6128631126780419
  Basis Set: CC-PVTZ
  Basis Set:
  Basis Set: CC-PVTZ
  Basis Set:
  @DF-RHF Final Energy: -1146.61406721192475
    Total Energy =                      -1146.6140672119254305
  Basis Set: CC-PVTZ
  Basis Set:
  Basis Set: CC-PVTZ
  Basis Set:
  @DF-RHF Final Energy: -1146.61413655483966
    Total Energy =                      -1146.6141365548396607
  Basis Set: CC-PVTZ
  Basis Set:
  @DF-RHF Final Energy: -1146.61415073601120
    Total Energy =                      -1146.6141507360118794
  Basis Set: CC-PVTZ
  Basis Set:
  @DF-RHF Final Energy: -1146.61416033913019
    Total Energy =                      -1146.6141603391313311
  Basis Set: CC-PVTZ
  Basis Set:
  Basis Set: CC-PVTZ
  Basis Set:
  @DF-RHF Final Energy: -1146.61416775754492
    Total Energy =                      -1146.6141677575440099
  Basis Set: CC-PVTZ
  Basis Set:
  Basis Set: CC-PVTZ
  Basis Set:
  @DF-RHF Final Energy: -1146.61417076310636
    Total Energy =                      -1146.6141707631056761
  Basis Set: CC-PVTZ
  Basis Set:
  Charge       = 0
  Multiplicity = 1
  Basis Set: CC-PVTZ
  Basis Set:

    Orbital Energies (a.u.)
    -----------------------

    Doubly Occupied:

       1A   -104.854639     2A    -26.355258     3A    -26.354281
       4A    -26.351267     5A    -26.344031     6A    -26.343887
       7A    -20.641222     8A    -11.521995     9A    -11.484817
      10A    -11.402279    11A    -10.580220    12A     -8.046989
      13A     -8.045038    14A     -8.044938    15A     -1.768376
      16A     -1.725556    17A     -1.664136    18A     -1.659260
      19A     -1.645552    20A     -1.488643    21A     -1.175357
      22A     -1.049008    23A     -0.992443    24A     -0.924826
      25A     -0.863609    26A     -0.859390    27A     -0.851583
      28A     -0.831711    29A     -0.820428    30A     -0.795470
      31A     -0.734837    32A     -0.733531    33A     -0.711637
      34A     -0.708368    35A     -0.685479    36A     -0.680357
      37A     -0.665427    38A     -0.663256    39A     -0.651147
      40A     -0.635368    41A     -0.599331    42A     -0.580046
      43A     -0.523100    44A     -0.477355    45A     -0.467966

  @DF-RHF Final Energy: -1146.61417122950843

   => Energetics <=

    Nuclear Repulsion Energy =            736.4023028872283021
    One-Electron Energy =               -3056.0261184798109753
    Two-Electron Energy =                1173.0096443630732210
    DFT Exchange-Correlation Energy =       0.0000000000000000
    Empirical Dispersion Energy =           0.0000000000000000
    PCM Polarization Energy =               0.0000000000000000
    EFP Energy =                            0.0000000000000000
    Total Energy =                      -1146.6141712295093384
    Molecular point group: c1
  Basis Set: CC-PVTZ
  Basis Set:

  -Total Gradient:
     Atom            X                  Y                   Z
    ------   -----------------  -----------------  -----------------
       1       -0.000004859225     0.000004900241     0.000009843484
       2       -0.000123650324    -0.000029801976    -0.000010827132
       3        0.000053657918     0.000029639383    -0.000026948392
       4        0.000021073986     0.000038444307     0.000005786766
       5        0.000043753982    -0.000033116459     0.000017464990
       6       -0.005630377541    -0.008232014885     0.002667814131
       7        0.004982667704     0.007583498039    -0.000284618708
       8       -0.000005246042     0.000040462736    -0.000050133162
       9        0.003920020441     0.005631116692    -0.002173625682
      10       -0.003197219816    -0.005004954946    -0.000275630233
      11       -0.000025514099     0.000031656687     0.000016122606
      12       -0.000034306972    -0.000059829726     0.000104751336

  **** Optimization is complete! (in 9 steps) ****
    Final optimized geometry and variables:
    Molecular point group: c1

    Geometry (in Angstrom), charge = 0, multiplicity = 1:

    H           -2.677583862174    -0.588843808117     1.276021793441
    C           -2.099512153780    -0.369888091544     0.397650687397
    O           -0.842459654950    -0.057707675016     0.786909333611
    F           -2.092052643122    -1.416909045389    -0.414788029319
    F           -2.650069992954     0.626007077049    -0.276940297064
    C            0.070765124969     0.286287476725    -0.179371750273
    C            1.362943955367    -0.545450882230    -0.007268746624
    CL           0.440540770132     2.025279844044    -0.094479404625
    H           -0.275359969786     0.137109067063    -1.185439256544
    F            1.856714730558    -0.805439862675    -1.197214727234
    F            1.080231385713    -1.696094578946     0.552034426889
    F            2.280771886801     0.034541791284     0.710217808747

  Mulliken Charges: (a.u.)
   Center  Symbol    Alpha    Beta     Spin     Total
       1     H     0.45154  0.45154  0.00000  0.09693
       2     C     2.73801  2.73801  0.00000  0.52399
       3     O     4.15125  4.15125  0.00000 -0.30251
       4     F     4.61782  4.61782  0.00000 -0.23564
       5     F     4.61547  4.61547  0.00000 -0.23094
       6     C     2.95263  2.95263  0.00000  0.09474
       7     C     2.66437  2.66437  0.00000  0.67125
       8    CL     8.57396  8.57396  0.00000 -0.14793
       9     H     0.43175  0.43175  0.00000  0.13650
      10     F     4.60663  4.60663  0.00000 -0.21327
      11     F     4.60169  4.60169  0.00000 -0.20339
      12     F     4.59487  4.59487  0.00000 -0.18974

   Total alpha = 45.00000, Total beta = 45.00000, Total charge =  0.00000
