                              Psi4 1.0.54 Driver

  ==> Input File <==

--------------------------------------------------------------------------
set {
	reference rhf
	basis cc-pvtz
}

set_num_threads( 4 )
memory 2 gb

molecule MOL {
0 1

H	 2.614283	 2.028610	 0.296620
O	 3.358864	 1.662087	 -0.142800
C	 3.565468	 0.338079	 0.273842
C	 2.276657	 -0.452334	 0.443848
H	 4.173303	 -0.121674	 -0.493714
H	 4.141500	 0.316268	 1.196968
C	 1.373203	 0.054794	 1.565651
H	 1.735174	 -0.436655	 -0.497272
H	 2.543339	 -1.488569	 0.637486
C	 0.105483	 -0.782698	 1.727910
H	 1.101860	 1.086604	 1.368815
H	 1.926215	 0.049998	 2.503436
C	 -0.801763	 -0.364141	 2.886344
H	 -0.461313	 -0.755604	 0.800421
H	 0.393700	 -1.819861	 1.875196
C	 -1.466038	 1.002192	 2.726292
H	 -1.579061	 -1.114909	 2.998962
H	 -0.231315	 -0.380345	 3.812347
C	 -2.436700	 1.330671	 3.857808
H	 -1.998970	 1.032134	 1.778370
H	 -0.711186	 1.781061	 2.675654
C	 -3.098874	 2.695763	 3.703082
H	 -3.203458	 0.562401	 3.907011
H	 -1.907694	 1.292870	 4.806379
H	 -3.663065	 2.754470	 2.778160
H	 -3.782545	 2.895904	 4.520178
H	 -2.360000	 3.490248	 3.688565

	symmetry c1
}
set optking {
	frozen_dihedral = ("
		4 3 2 1
	")
}

ee,wfn = optimize('scf', return_wfn=True)
oeprop( wfn, 'DIPOLE', 'QUADRUPOLE', 'MULLIKEN_CHARGES')
f=open( 'psi4out.xyz', 'w' )
f.write( "27  " )
f.write( str(ee) + "\n" )
f.write( MOL.save_string_xyz() )
f.close()
--------------------------------------------------------------------------

    Molecular point group: c1
  Charge       = 0
  Multiplicity = 1
  Basis Set: CC-PVTZ
  Basis Set:
  @DF-RHF Final Energy:  -388.42660859812094
    Total Energy =                       -388.4266085981211063
    Molecular point group: c1
  Basis Set: CC-PVTZ
  Basis Set:
  Basis Set: CC-PVTZ
  Basis Set:
  @DF-RHF Final Energy:  -388.42665605196197
    Total Energy =                       -388.4266560519624818
  Basis Set: CC-PVTZ
  Basis Set:
  Basis Set: CC-PVTZ
  Basis Set:
  @DF-RHF Final Energy:  -388.42670587594580
    Total Energy =                       -388.4267058759461406
  Basis Set: CC-PVTZ
  Basis Set:
  Basis Set: CC-PVTZ
  Basis Set:
  @DF-RHF Final Energy:  -388.42670873991369
    Total Energy =                       -388.4267087399133516
  Basis Set: CC-PVTZ
  Basis Set:
  Charge       = 0
  Multiplicity = 1
  Basis Set: CC-PVTZ
  Basis Set:

    Orbital Energies (a.u.)
    -----------------------

    Doubly Occupied:

       1A    -20.543217     2A    -11.264172     3A    -11.221386
       4A    -11.217815     5A    -11.217643     6A    -11.215351
       7A    -11.215204     8A    -11.213814     9A    -11.208341
      10A     -1.361792    11A     -1.098873    12A     -1.064764
      13A     -1.014055    14A     -0.950880    15A     -0.890989
      16A     -0.824175    17A     -0.805155    18A     -0.780988
      19A     -0.682524    20A     -0.656861    21A     -0.645472
      22A     -0.617259    23A     -0.608788    24A     -0.585008
      25A     -0.579947    26A     -0.560839    27A     -0.541079
      28A     -0.532238    29A     -0.506722    30A     -0.498886
      31A     -0.487985    32A     -0.478467    33A     -0.469264
      34A     -0.462952    35A     -0.451542    36A     -0.439935
      37A     -0.431003

  @DF-RHF Final Energy:  -388.42670868906714

   => Energetics <=

    Nuclear Repulsion Energy =            460.2052276070284051
    One-Electron Energy =               -1438.5731009294477190
    Two-Electron Energy =                 589.9411646333514909
    DFT Exchange-Correlation Energy =       0.0000000000000000
    Empirical Dispersion Energy =           0.0000000000000000
    PCM Polarization Energy =               0.0000000000000000
    EFP Energy =                            0.0000000000000000
    Total Energy =                       -388.4267086890678229
    Molecular point group: c1
  Basis Set: CC-PVTZ
  Basis Set:

  -Total Gradient:
     Atom            X                  Y                   Z
    ------   -----------------  -----------------  -----------------
       1       -0.001162011711    -0.000658695628    -0.001437355470
       2        0.001366145007     0.000946320305     0.002235052320
       3       -0.000137206446    -0.000685388970    -0.001908939908
       4       -0.000111297740     0.000464678573     0.001105304178
       5       -0.000028771635     0.000018559996    -0.000003814039
       6        0.000030334868    -0.000041137575     0.000004471967
       7        0.000002182999     0.000002277911    -0.000011109015
       8       -0.000012760771    -0.000000089090    -0.000004727664
       9        0.000004241601     0.000003799821     0.000014837399
      10        0.000029846630    -0.000048096449     0.000025156640
      11       -0.000000173419     0.000029372827    -0.000006660760
      12        0.000004797708    -0.000009017166     0.000008888354
      13       -0.000039608221    -0.000018337371    -0.000016417999
      14        0.000013367516    -0.000010152705     0.000008867874
      15        0.000003159831    -0.000004319930     0.000009583617
      16        0.000013459825    -0.000006043052    -0.000013130129
      17       -0.000016813141     0.000006678262    -0.000004461597
      18       -0.000009003813    -0.000011191917    -0.000003647832
      19        0.000008826228     0.000008226092     0.000007537528
      20        0.000003512930    -0.000006887136     0.000009839295
      21        0.000037263247     0.000015541788    -0.000026638090
      22        0.000002064692     0.000003081536     0.000004484021
      23        0.000002635505    -0.000000978410    -0.000003386915
      24       -0.000002234074     0.000001565654     0.000006158424
      25        0.000001100732    -0.000001728326    -0.000000827920
      26       -0.000001901058     0.000001451874     0.000000729346
      27       -0.000001157282     0.000000509088     0.000000206374

  **** Optimization is complete! (in 5 steps) ****
    Final optimized geometry and variables:
    Molecular point group: c1

    Geometry (in Angstrom), charge = 0, multiplicity = 1:

    H            2.268820715725     1.414041936174    -1.627446637013
    O            3.016890823729     1.030219311653    -2.044700608550
    C            3.205192132687    -0.286652658932    -1.598644985183
    C            1.914631445147    -1.074741090572    -1.431150114911
    H            3.832026645203    -0.766039380207    -2.338440178745
    H            3.755431642950    -0.285484352902    -0.659280350420
    C            1.006144392409    -0.572382040423    -0.309679492352
    H            1.374562884090    -1.068200250361    -2.373869253900
    H            2.182325220369    -2.108776739387    -1.231557813032
    C           -0.254333708795    -1.421319272617    -0.149332396490
    H            0.719939438301     0.458418564089    -0.496747951025
    H            1.560196397887    -0.571472791255     0.626267788527
    C           -1.160706701601    -1.018982181485     1.015465809683
    H           -0.824683527264    -1.393055115894    -1.074585851151
    H            0.043989743111    -2.456640404863    -0.010523341077
    C           -1.825660615681     0.349182648782     0.875341115161
    H           -1.937444443634    -1.771613730037     1.117923550647
    H           -0.589494894525    -1.047938284131     1.940487831991
    C           -2.796595298113     0.660444963674     2.011429872545
    H           -2.358704229982     0.392778588600    -0.072021368208
    H           -1.071296143187     1.129291178818     0.837000066082
    C           -3.458262471825     2.027905518218     1.877617107871
    H           -3.563459116431    -0.108331046080     2.048423379621
    H           -2.267774761910     0.607872750469     2.959281911238
    H           -4.022573821252     2.100938972613     0.953808688589
    H           -4.141784059618     2.215623807586     2.697668028305
    H           -2.719183669529     2.822259995017     1.875390820963

  Mulliken Charges: (a.u.)
   Center  Symbol    Alpha    Beta     Spin     Total
       1     H     0.39132  0.39132  0.00000  0.21736
       2     O     4.20708  4.20708  0.00000 -0.41416
       3     C     2.96416  2.96416  0.00000  0.07169
       4     C     3.10271  3.10271  0.00000 -0.20542
       5     H     0.45367  0.45367  0.00000  0.09266
       6     H     0.47523  0.47523  0.00000  0.04954
       7     C     3.09510  3.09510  0.00000 -0.19020
       8     H     0.44865  0.44865  0.00000  0.10269
       9     H     0.45400  0.45400  0.00000  0.09201
      10     C     3.09936  3.09936  0.00000 -0.19872
      11     H     0.46221  0.46221  0.00000  0.07557
      12     H     0.45095  0.45095  0.00000  0.09811
      13     C     3.09775  3.09775  0.00000 -0.19551
      14     H     0.45161  0.45161  0.00000  0.09677
      15     H     0.44697  0.44697  0.00000  0.10606
      16     C     3.08888  3.08888  0.00000 -0.17776
      17     H     0.44766  0.44766  0.00000  0.10468
      18     H     0.45310  0.45310  0.00000  0.09380
      19     C     3.08407  3.08407  0.00000 -0.16814
      20     H     0.45427  0.45427  0.00000  0.09145
      21     H     0.45520  0.45520  0.00000  0.08960
      22     C     3.14967  3.14967  0.00000 -0.29935
      23     H     0.45356  0.45356  0.00000  0.09287
      24     H     0.45429  0.45429  0.00000  0.09143
      25     H     0.45498  0.45498  0.00000  0.09004
      26     H     0.44801  0.44801  0.00000  0.10398
      27     H     0.45552  0.45552  0.00000  0.08896

   Total alpha = 37.00000, Total beta = 37.00000, Total charge =  0.00000

*** Psi4 exiting successfully. Buy a developer a beer!
