  ==> Input File <==

--------------------------------------------------------------------------
set {
	reference rhf
	basis cc-pvtz
}

set_num_threads( 4 )
memory 2 gb

molecule MOL {
0 1

H	 -3.793000	 1.004000	 -0.340000
C	 -3.097000	 0.384000	 0.191000
C	 -1.977000	 0.015000	 -0.386000
H	 -3.341000	 0.079000	 1.192000
O	 -1.081000	 -0.797000	 0.234000
H	 -1.712000	 0.315000	 -1.384000
C	 0.151000	 -0.997000	 -0.369000
C	 1.143000	 0.077000	 0.017000
H	 0.082000	 -1.019000	 -1.451000
H	 0.537000	 -1.944000	 -0.023000
F	 2.312000	 -0.177000	 -0.553000
F	 0.752000	 1.274000	 -0.387000
F	 1.330000	 0.133000	 1.319000

	symmetry c1
}
ee = optimize('scf')
oeprop('DIPOLE', 'QUADRUPOLE', 'MULLIKEN_CHARGES')
f=open( 'psi4out.xyz', 'w' )
f.write( "13  " )
f.write( str(ee) + "\n" )
f.write( MOL.save_string_xyz() )
f.close()
--------------------------------------------------------------------------

    Molecular point group: c1
  Charge       = 0
  Multiplicity = 1
  Basis Set: CC-PVTZ
  Basis Set:
  @DF-RHF Final Energy:  -527.74181883657229
    Total Energy =                       -527.7418188365722926
    Molecular point group: c1
  Basis Set: CC-PVTZ
  Basis Set:
  Basis Set: CC-PVTZ
  Basis Set:
  @DF-RHF Final Energy:  -527.74203157956549
    Total Energy =                       -527.7420315795654915
  Basis Set: CC-PVTZ
  Basis Set:
  Basis Set: CC-PVTZ
  Basis Set:
  @DF-RHF Final Energy:  -527.74206226647516
    Total Energy =                       -527.7420622664753864
  Basis Set: CC-PVTZ
  Basis Set:
  Basis Set: CC-PVTZ
  Basis Set:
  @DF-RHF Final Energy:  -527.74207307531992
    Total Energy =                       -527.7420730753195812
  Basis Set: CC-PVTZ
  Basis Set:
  Basis Set: CC-PVTZ
  Basis Set:
  @DF-RHF Final Energy:  -527.74207955277791
    Total Energy =                       -527.7420795527780228
  Basis Set: CC-PVTZ
  Basis Set:
  Basis Set: CC-PVTZ
  Basis Set:
  @DF-RHF Final Energy:  -527.74208141537440
    Total Energy =                       -527.7420814153745141
  Basis Set: CC-PVTZ
  Basis Set:
  Basis Set: CC-PVTZ
  Basis Set:
  @DF-RHF Final Energy:  -527.74208245187913
    Total Energy =                       -527.7420824518792415
  Basis Set: CC-PVTZ
  Basis Set:
  Charge       = 0
  Multiplicity = 1
  Basis Set: CC-PVTZ
  Basis Set:

    Orbital Energies (a.u.)
    -----------------------

    Doubly Occupied:

       1A    -26.341835     2A    -26.340591     3A    -26.338062
       4A    -20.604125     5A    -11.497842     6A    -11.320159
       7A    -11.298700     8A    -11.213851     9A     -1.750502
      10A     -1.646984    11A     -1.645416    12A     -1.444674
      13A     -1.088247    14A     -1.020677    15A     -0.932297
      16A     -0.843993    17A     -0.839645    18A     -0.827099
      19A     -0.798343    20A     -0.728916    21A     -0.719274
      22A     -0.703899    23A     -0.681811    24A     -0.668163
      25A     -0.661607    26A     -0.650951    27A     -0.640756
      28A     -0.587994    29A     -0.566369    30A     -0.529036
      31A     -0.518592    32A     -0.356671

  @DF-RHF Final Energy:  -527.74208284564133

   => Energetics <=

    Nuclear Repulsion Energy =            413.5281283374189911
    One-Electron Energy =               -1550.9262539665451186
    Two-Electron Energy =                 609.6560427834850771
    DFT Exchange-Correlation Energy =       0.0000000000000000
    Empirical Dispersion Energy =           0.0000000000000000
    PCM Polarization Energy =               0.0000000000000000
    EFP Energy =                            0.0000000000000000
    Total Energy =                       -527.7420828456409936
    Molecular point group: c1
  Basis Set: CC-PVTZ
  Basis Set:

  -Total Gradient:
     Atom            X                  Y                   Z
    ------   -----------------  -----------------  -----------------
       1       -0.000006953097    -0.000013375789     0.000007919334
       2        0.000046826589    -0.000013511324    -0.000009195547
       3       -0.000086411408     0.000082400174    -0.000024692478
       4       -0.000001314127     0.000005491502    -0.000005308835
       5       -0.000006891184    -0.000060075624     0.000053501601
       6        0.000010183247    -0.000024688177     0.000002440522
       7        0.000047867888     0.000032308260    -0.000032216332
       8       -0.000043948018     0.000027092851     0.000032124888
       9        0.000003687372    -0.000001977741     0.000008926593
      10       -0.000006126961     0.000001249919     0.000000148818
      11        0.000020812662    -0.000014403627    -0.000008275078
      12        0.000026265416    -0.000018987681     0.000011757283
      13       -0.000003998386    -0.000001522743    -0.000037130770

  **** Optimization is complete! (in 8 steps) ****
    Final optimized geometry and variables:
    Molecular point group: c1

    Geometry (in Angstrom), charge = 0, multiplicity = 1:

    H           -3.941972968731     0.934228395358    -0.390224297147
    C           -3.240161542886     0.342701466807     0.161015956224
    C           -2.105996442345    -0.000418106679    -0.398702818391
    H           -3.485367917667     0.047205694106     1.162193435177
    O           -1.189945992943    -0.765862915314     0.237511437542
    H           -1.846457867789     0.297311203528    -1.398264834950
    C            0.026572433162    -0.995255813887    -0.379403065964
    C            1.057223627100     0.049888009885    -0.004615084276
    H           -0.054361137723    -1.010669575347    -1.459674115156
    H            0.397525880775    -1.952058113027    -0.044197538520
    F            2.203233253014    -0.234059727443    -0.590375151054
    F            0.698147826127     1.254886652817    -0.392620549778
    F            1.266439933695     0.094218619722     1.288722497668

  Mulliken Charges: (a.u.)
   Center  Symbol    Alpha    Beta     Spin     Total
       1     H     0.42515  0.42515  0.00000  0.14971
       2     C     3.19742  3.19742  0.00000 -0.39484
       3     C     2.95870  2.95870  0.00000  0.08260
       4     H     0.42474  0.42474  0.00000  0.15051
       5     O     4.14452  4.14452  0.00000 -0.28904
       6     H     0.43451  0.43451  0.00000  0.13097
       7     C     3.01921  3.01921  0.00000 -0.03841
       8     C     2.67548  2.67548  0.00000  0.64903
       9     H     0.45526  0.45526  0.00000  0.08949
      10     H     0.43522  0.43522  0.00000  0.12957
      11     F     4.61261  4.61261  0.00000 -0.22522
      12     F     4.61042  4.61042  0.00000 -0.22083
      13     F     4.60676  4.60676  0.00000 -0.21353

   Total alpha = 32.00000, Total beta = 32.00000, Total charge =  0.00000
