                              Psi4 1.0.54 Driver

  ==> Input File <==

--------------------------------------------------------------------------
set {
	reference rhf
	basis cc-pvtz
}

set_num_threads( 4 )
memory 2 gb

molecule MOL {
0 1

H	 -2.644180	 -0.653737	 1.272255
C	 -2.092774	 -0.380414	 0.391915
O	 -0.808934	 -0.154049	 0.752536
F	 -2.163230	 -1.351640	 -0.507133
F	 -2.627232	 0.691260	 -0.169301
C	 0.085006	 0.250800	 -0.215074
C	 1.370439	 -0.548013	 -0.012993
Cl	 0.421658	 1.987697	 -0.091007
H	 -0.272219	 0.063284	 -1.212508
F	 1.895271	 -0.871275	 -1.167582
F	 1.087421	 -1.657686	 0.627196
F	 2.258004	 0.109861	 0.681040

	symmetry c1
}
set optking {
	frozen_dihedral = ("
		10 7 6 9
	")
}

ee,wfn = optimize('scf', return_wfn=True)
oeprop( wfn, 'DIPOLE', 'QUADRUPOLE', 'MULLIKEN_CHARGES')
f=open( 'psi4out.xyz', 'w' )
f.write( "12  " )
f.write( str(ee) + "\n" )
f.write( MOL.save_string_xyz() )
f.close()
--------------------------------------------------------------------------

    Molecular point group: c1
  Charge       = 0
  Multiplicity = 1
  Basis Set: CC-PVTZ
  Basis Set:
  @DF-RHF Final Energy: -1146.61231051440359
    Total Energy =                      -1146.6123105144031342
    Molecular point group: c1
  Basis Set: CC-PVTZ
  Basis Set:
  Basis Set: CC-PVTZ
  Basis Set:
  @DF-RHF Final Energy: -1146.61289314538749
    Total Energy =                      -1146.6128931453863515
  Basis Set: CC-PVTZ
  Basis Set:
  Basis Set: CC-PVTZ
  Basis Set:
  @DF-RHF Final Energy: -1146.61406767276299
    Total Energy =                      -1146.6140676727636674
  Basis Set: CC-PVTZ
  Basis Set:
  Basis Set: CC-PVTZ
  Basis Set:
  @DF-RHF Final Energy: -1146.61413685370735
    Total Energy =                      -1146.6141368537078051
  Basis Set: CC-PVTZ
  Basis Set:
  @DF-RHF Final Energy: -1146.61415103144918
    Total Energy =                      -1146.6141510314496372
  Basis Set: CC-PVTZ
  Basis Set:
  @DF-RHF Final Energy: -1146.61416031345925
    Total Energy =                      -1146.6141603134592515
  Basis Set: CC-PVTZ
  Basis Set:
  Basis Set: CC-PVTZ
  Basis Set:
  @DF-RHF Final Energy: -1146.61416790270368
    Total Energy =                      -1146.6141679027032296
  Basis Set: CC-PVTZ
  Basis Set:
  Basis Set: CC-PVTZ
  Basis Set:
  @DF-RHF Final Energy: -1146.61417082829621
    Total Energy =                      -1146.6141708282964373
  Basis Set: CC-PVTZ
  Basis Set:
  Charge       = 0
  Multiplicity = 1
  Basis Set: CC-PVTZ
  Basis Set:

    Orbital Energies (a.u.)
    -----------------------

    Doubly Occupied:

       1A   -104.854642     2A    -26.355270     3A    -26.354285
       4A    -26.351270     5A    -26.344021     6A    -26.343881
       7A    -20.641210     8A    -11.522000     9A    -11.484808
      10A    -11.402270    11A    -10.580223    12A     -8.046992
      13A     -8.045041    14A     -8.044941    15A     -1.768378
      16A     -1.725557    17A     -1.664146    18A     -1.659265
      19A     -1.645545    20A     -1.488637    21A     -1.175359
      22A     -1.049014    23A     -0.992441    24A     -0.924825
      25A     -0.863617    26A     -0.859393    27A     -0.851585
      28A     -0.831710    29A     -0.820424    30A     -0.795468
      31A     -0.734843    32A     -0.733531    33A     -0.711633
      34A     -0.708364    35A     -0.685488    36A     -0.680364
      37A     -0.665418    38A     -0.663262    39A     -0.651145
      40A     -0.635356    41A     -0.599336    42A     -0.580046
      43A     -0.523097    44A     -0.477358    45A     -0.467967

  @DF-RHF Final Energy: -1146.61417118012832

   => Energetics <=

    Nuclear Repulsion Energy =            736.4085098939996215
    One-Electron Energy =               -3056.0385046257129034
    Two-Electron Energy =                1173.0158235515843899
    DFT Exchange-Correlation Energy =       0.0000000000000000
    Empirical Dispersion Energy =           0.0000000000000000
    PCM Polarization Energy =               0.0000000000000000
    EFP Energy =                            0.0000000000000000
    Total Energy =                      -1146.6141711801290057
    Molecular point group: c1
  Basis Set: CC-PVTZ
  Basis Set:

  -Total Gradient:
     Atom            X                  Y                   Z
    ------   -----------------  -----------------  -----------------
       1       -0.000002129489     0.000012019387     0.000002207483
       2       -0.000131558113    -0.000029610567     0.000005221003
       3        0.000032691579     0.000012558422    -0.000052406181
       4        0.000026508794     0.000049851475     0.000002241245
       5        0.000056062205    -0.000049601646     0.000021193646
       6       -0.005723715657    -0.008305020462     0.002060836692
       7        0.005003223956     0.007578356118     0.000279791818
       8       -0.000006722591     0.000043022995    -0.000057854325
       9        0.004012226969     0.005692929179    -0.001735844938
      10       -0.003183453558    -0.004997433729    -0.000666281535
      11       -0.000034014519     0.000057618905     0.000013570313
      12       -0.000049119561    -0.000064689935     0.000127324777

  **** Optimization is complete! (in 9 steps) ****
    Final optimized geometry and variables:
    Molecular point group: c1

    Geometry (in Angstrom), charge = 0, multiplicity = 1:

    H           -2.751067988368    -0.627144722484     1.087569271999
    C           -2.119722031764    -0.380557043622     0.254374656502
    O           -0.889612581399    -0.082386773964     0.730850937496
    F           -2.060717969385    -1.400786909054    -0.589441235813
    F           -2.628250697983     0.637136112535    -0.420655581367
    C            0.081492365731     0.291833831054    -0.165234171836
    C            1.361378293722    -0.546199862754     0.059829977312
    CL           0.443288033992     2.026862796500    -0.001644093429
    H           -0.201528668148     0.175449461104    -1.195077341207
    F            1.928194913838    -0.768247157795    -1.105004255588
    F            1.045680332626    -1.713937157594     0.563212217980
    F            2.232290603190     0.009511000769     0.851214048204

  Mulliken Charges: (a.u.)
   Center  Symbol    Alpha    Beta     Spin     Total
       1     H     0.45153  0.45153  0.00000  0.09695
       2     C     2.73801  2.73801  0.00000  0.52397
       3     O     4.15126  4.15126  0.00000 -0.30251
       4     F     4.61782  4.61782  0.00000 -0.23565
       5     F     4.61547  4.61547  0.00000 -0.23094
       6     C     2.95263  2.95263  0.00000  0.09473
       7     C     2.66437  2.66437  0.00000  0.67127
       8    CL     8.57396  8.57396  0.00000 -0.14792
       9     H     0.43176  0.43176  0.00000  0.13648
      10     F     4.60664  4.60664  0.00000 -0.21328
      11     F     4.60168  4.60168  0.00000 -0.20337
      12     F     4.59487  4.59487  0.00000 -0.18973

   Total alpha = 45.00000, Total beta = 45.00000, Total charge =  0.00000

*** Psi4 exiting successfully. Buy a developer a beer!
