  ==> Input File <==

--------------------------------------------------------------------------
set {
	reference rhf
	basis cc-pvtz
}

set_num_threads( 4 )
memory 2 gb

molecule MOL {
0 1

H	 -1.623623	 -0.153984	 -0.973766
N	 -1.173824	 -0.310545	 -0.096857
C	 -0.022588	 0.563366	 0.065815
H	 -1.852064	 -0.142398	 0.616816
C	 1.270420	 -0.230572	 -0.014245
H	 -0.045354	 1.293678	 -0.735129
H	 -0.043155	 1.123061	 1.001180
H	 1.336273	 -0.754933	 -0.959364
H	 2.130728	 0.422015	 0.082222
H	 1.323344	 -0.967006	 0.781773

	symmetry c1
}
set optking {
	frozen_dihedral = ("
		1 2 3 6
	")
}

ee = optimize('scf')
oeprop('DIPOLE', 'QUADRUPOLE', 'MULLIKEN_CHARGES')
f=open( 'psi4out.xyz', 'w' )
f.write( "10  " )
f.write( str(ee) + "\n" )
f.write( MOL.save_string_xyz() )
f.close()
--------------------------------------------------------------------------

    Molecular point group: c1
  Charge       = 0
  Multiplicity = 1
  Basis Set: CC-PVTZ
  Basis Set:
  @DF-RHF Final Energy:  -134.30084058426908
    Total Energy =                       -134.3008405842689399
    Molecular point group: c1
  Basis Set: CC-PVTZ
  Basis Set:
  Basis Set: CC-PVTZ
  Basis Set:
  @DF-RHF Final Energy:  -134.30159930897665
    Total Energy =                       -134.3015993089766482
  Basis Set: CC-PVTZ
  Basis Set:
  Basis Set: CC-PVTZ
  Basis Set:
  @DF-RHF Final Energy:  -134.30177680299713
    Total Energy =                       -134.3017768029971535
  Basis Set: CC-PVTZ
  Basis Set:
  Basis Set: CC-PVTZ
  Basis Set:
  @DF-RHF Final Energy:  -134.30177818828321
    Total Energy =                       -134.3017781882830093
  Basis Set: CC-PVTZ
  Basis Set:
  Charge       = 0
  Multiplicity = 1
  Basis Set: CC-PVTZ
  Basis Set:

    Orbital Energies (a.u.)
    -----------------------

    Doubly Occupied:

       1A    -15.525795     2A    -11.241737     3A    -11.198805
       4A     -1.174820     5A     -0.987085     6A     -0.820701
       7A     -0.673459     8A     -0.624352     9A     -0.569908
      10A     -0.526112    11A     -0.510836    12A     -0.477599
      13A     -0.383365

  @DF-RHF Final Energy:  -134.30177830463373

   => Energetics <=

    Nuclear Repulsion Energy =             83.1270036616338643
    One-Electron Energy =                -345.4284138125845516
    Two-Electron Energy =                 127.9996318463169160
    DFT Exchange-Correlation Energy =       0.0000000000000000
    Empirical Dispersion Energy =           0.0000000000000000
    PCM Polarization Energy =               0.0000000000000000
    EFP Energy =                            0.0000000000000000
    Total Energy =                       -134.3017783046337854
    Molecular point group: c1
  Basis Set: CC-PVTZ
  Basis Set:

  -Total Gradient:
     Atom            X                  Y                   Z
    ------   -----------------  -----------------  -----------------
       1       -0.000699951301     0.000861059582     0.000534373562
       2        0.001027610985    -0.001268688047    -0.000851333418
       3       -0.000905380087     0.001083255826     0.000974801139
       4       -0.000013305141     0.000000484438     0.000005232806
       5       -0.000002938185     0.000012503119    -0.000007656002
       6        0.000592057402    -0.000696864545    -0.000658136842
       7        0.000002469370     0.000004348481     0.000003696030
       8        0.000000981281     0.000000141083     0.000001691122
       9        0.000004588980    -0.000001836310    -0.000000885437
      10       -0.000006133303     0.000005596372    -0.000001782960

  **** Optimization is complete! (in 5 steps) ****
    Final optimized geometry and variables:
    Molecular point group: c1

    Geometry (in Angstrom), charge = 0, multiplicity = 1:

    H           -1.655112283836    -0.167553114166    -0.931113854041
    N           -1.180090277092    -0.318912334182    -0.068715360667
    C           -0.013607115889     0.551656372104     0.067891404890
    H           -1.841272303824    -0.163802789530     0.659739097920
    C            1.284434539821    -0.240721925686     0.011299045601
    H           -0.000252143971     1.305919139643    -0.713600597750
    H           -0.065581888323     1.086126204788     1.010050497681
    H            1.367088357948    -0.769494136655    -0.931406714921
    H            2.144908669934     0.413590582001     0.111789354948
    H            1.315284826946    -0.975949395434     0.806390378703

  Mulliken Charges: (a.u.)
   Center  Symbol    Alpha    Beta     Spin     Total
       1     H     0.42774  0.42774  0.00000  0.14452
       2     N     3.69461  3.69461  0.00000 -0.38923
       3     C     3.03540  3.03540  0.00000 -0.07081
       4     H     0.42633  0.42633  0.00000  0.14734
       5     C     3.12123  3.12123  0.00000 -0.24246
       6     H     0.46051  0.46051  0.00000  0.07898
       7     H     0.45810  0.45810  0.00000  0.08381
       8     H     0.45812  0.45812  0.00000  0.08375
       9     H     0.46177  0.46177  0.00000  0.07646
      10     H     0.45618  0.45618  0.00000  0.08763

   Total alpha = 13.00000, Total beta = 13.00000, Total charge = -0.00000
