                              Psi4 1.0.54 Driver

  ==> Input File <==

--------------------------------------------------------------------------
set {
	reference rhf
	basis cc-pvtz
}

set_num_threads( 4 )
memory 2 gb

molecule MOL {
0 1

H	 -2.152804	 1.417074	 1.174948
C	 -2.357575	 0.391373	 0.898856
C	 -1.089495	 -0.447327	 0.935868
H	 -2.787884	 0.400866	 -0.093595
H	 -3.092698	 -0.008367	 1.587118
C	 0.000000	 0.039916	 0.000014
H	 -1.303191	 -1.482096	 0.681927
H	 -0.673622	 -0.474765	 1.939456
C	 1.286532	 -0.763243	 0.000268
O	 -0.145692	 0.993918	 -0.692108
C	 2.547023	 0.087626	 -0.000114
H	 1.264245	 -1.421103	 -0.864380
H	 1.264290	 -1.420353	 0.865489
H	 2.584452	 0.725630	 -0.872909
H	 3.427035	 -0.544422	 0.000125
H	 2.584484	 0.726356	 0.872143

	symmetry c1
}
set optking {
	frozen_dihedral = ("
		3 6 9 12
	")
}

ee,wfn = optimize('scf', return_wfn=True)
oeprop( wfn, 'DIPOLE', 'QUADRUPOLE', 'MULLIKEN_CHARGES')
f=open( 'psi4out.xyz', 'w' )
f.write( "16  " )
f.write( str(ee) + "\n" )
f.write( MOL.save_string_xyz() )
f.close()
--------------------------------------------------------------------------

    Molecular point group: c1
  Charge       = 0
  Multiplicity = 1
  Basis Set: CC-PVTZ
  Basis Set:
  @DF-RHF Final Energy:  -270.13007092480871
    Total Energy =                       -270.1300709248085923
    Molecular point group: c1
  Basis Set: CC-PVTZ
  Basis Set:
  Basis Set: CC-PVTZ
  Basis Set:
  @DF-RHF Final Energy:  -270.13044485642615
    Total Energy =                       -270.1304448564260952
  Basis Set: CC-PVTZ
  Basis Set:
  Basis Set: CC-PVTZ
  Basis Set:
  @DF-RHF Final Energy:  -270.12974698928201
    Total Energy =                       -270.1297469892819549
  Basis Set: CC-PVTZ
  Basis Set:
  Basis Set: CC-PVTZ
  Basis Set:
  @DF-RHF Final Energy:  -270.13063396432710
    Total Energy =                       -270.1306339643271031
  Basis Set: CC-PVTZ
  Basis Set:
  Basis Set: CC-PVTZ
  Basis Set:
  @DF-RHF Final Energy:  -270.13064333662442
    Total Energy =                       -270.1306433366244164
  Basis Set: CC-PVTZ
  Basis Set:
  Charge       = 0
  Multiplicity = 1
  Basis Set: CC-PVTZ
  Basis Set:

    Orbital Energies (a.u.)
    -----------------------

    Doubly Occupied:

       1A    -20.537718     2A    -11.318074     3A    -11.233029
       4A    -11.231372     5A    -11.215625     6A    -11.211907
       7A     -1.398572     8A     -1.069538     9A     -1.037644
      10A     -0.915975    11A     -0.849105    12A     -0.726336
      13A     -0.668544    14A     -0.644759    15A     -0.623861
      16A     -0.605508    17A     -0.563361    18A     -0.534792
      19A     -0.527654    20A     -0.512122    21A     -0.502908
      22A     -0.496787    23A     -0.481964    24A     -0.399259

  @DF-RHF Final Energy:  -270.13064369135282

   => Energetics <=

    Nuclear Repulsion Energy =            240.3469390972346389
    One-Electron Energy =                -842.3423403313839799
    Two-Electron Energy =                 331.8647575427963829
    DFT Exchange-Correlation Energy =       0.0000000000000000
    Empirical Dispersion Energy =           0.0000000000000000
    PCM Polarization Energy =               0.0000000000000000
    EFP Energy =                            0.0000000000000000
    Total Energy =                       -270.1306436913529296
    Molecular point group: c1
  Basis Set: CC-PVTZ
  Basis Set:

  -Total Gradient:
     Atom            X                  Y                   Z
    ------   -----------------  -----------------  -----------------
       1        0.000006515180     0.000001919336     0.000003459803
       2       -0.000032166882    -0.000010927317    -0.000026609583
       3        0.000443026291     0.000550477385     0.000768008017
       4       -0.000000611314     0.000005140673     0.000001914118
       5       -0.000005688717    -0.000001428550     0.000007891329
       6       -0.000442150847    -0.000634348037    -0.001145485136
       7       -0.000005180259    -0.000012796369    -0.000006459597
       8       -0.000019045689    -0.000021644930     0.000012078014
       9       -0.000598849182    -0.000775377118     0.001108245927
      10        0.000027663351     0.000045118200    -0.000055247564
      11       -0.000007859885     0.000014456500    -0.000004866187
      12        0.000630602994     0.000843696288    -0.000671346209
      13       -0.000013892698    -0.000008620415     0.000010362857
      14        0.000005259515     0.000014521850    -0.000014089567
      15        0.000014246395    -0.000014936312     0.000000740390
      16       -0.000001868256     0.000004748820     0.000011403390

  **** Optimization is complete! (in 6 steps) ****
    Final optimized geometry and variables:
    Molecular point group: c1

    Geometry (in Angstrom), charge = 0, multiplicity = 1:

    H           -2.178935706060     1.497907797012     0.845363104741
    C           -2.410449540069     0.464820599079     0.624343307937
    C           -1.174368770110    -0.409958158149     0.756496005623
    H           -2.806093211823     0.427806670889    -0.382188854694
    H           -3.182696079785     0.132056524069     1.307572443305
    C           -0.031872359076    -0.014253911818    -0.153918596612
    H           -1.408670811478    -1.453326084567     0.559800787056
    H           -0.789229694318    -0.388693743750     1.773505175740
    C            1.185846825858    -0.922968694878    -0.153191294513
    O           -0.077323922766     0.953271516893    -0.841576533379
    C            2.501600200926    -0.153219058400    -0.212274595220
    H            1.094369924530    -1.551226177095    -1.035617904446
    H            1.159081524542    -1.581758180111     0.706543790012
    H            2.525730983170     0.494226810837    -1.076832037656
    H            3.338440756055    -0.838622776226    -0.268826617154
    H            2.632705254670     0.462982824289     0.669915368471

  Mulliken Charges: (a.u.)
   Center  Symbol    Alpha    Beta     Spin     Total
       1     H     0.44661  0.44661  0.00000  0.10678
       2     C     3.14118  3.14118  0.00000 -0.28237
       3     C     3.10145  3.10145  0.00000 -0.20291
       4     H     0.44889  0.44889  0.00000  0.10222
       5     H     0.45077  0.45077  0.00000  0.09847
       6     C     2.86915  2.86915  0.00000  0.26170
       7     H     0.44522  0.44522  0.00000  0.10956
       8     H     0.44584  0.44584  0.00000  0.10831
       9     C     3.09583  3.09583  0.00000 -0.19165
      10     O     4.17557  4.17557  0.00000 -0.35115
      11     C     3.14356  3.14356  0.00000 -0.28711
      12     H     0.44525  0.44525  0.00000  0.10950
      13     H     0.44587  0.44587  0.00000  0.10825
      14     H     0.44025  0.44025  0.00000  0.11949
      15     H     0.44972  0.44972  0.00000  0.10057
      16     H     0.45484  0.45484  0.00000  0.09033

   Total alpha = 24.00000, Total beta = 24.00000, Total charge =  0.00000

*** Psi4 exiting successfully. Buy a developer a beer!
