  ==> Input File <==

--------------------------------------------------------------------------
set {
	reference rhf
	basis cc-pvtz
}

set_num_threads( 4 )
memory 2 gb

molecule MOL {
0 1

H	 -3.642953	 0.223825	 0.000000
C	 -2.571844	 0.155001	 0.000000
C	 -1.957580	 -1.086132	 0.000000
C	 -1.807160	 1.303787	 0.000000
H	 -2.551493	 -1.979629	 0.000000
C	 -0.582719	 -1.174294	 0.000000
H	 -2.279934	 2.266806	 0.000000
C	 -0.427220	 1.213406	 0.000000
H	 -0.094904	 -2.127556	 0.000000
C	 0.196908	 -0.024061	 0.000000
H	 0.151409	 2.115254	 0.000000
C	 1.690041	 -0.173233	 0.000000
C	 2.486486	 0.411033	 1.144101
O	 2.240160	 -0.743209	 -0.887614
H	 2.332785	 1.481468	 1.211364
H	 3.531590	 0.207622	 0.973478
H	 2.182026	 -0.027548	 2.086932

	symmetry c1
}
set optking {
	frozen_dihedral = ("
		13 12 10 8
	")
}

ee = optimize('scf')
oeprop('DIPOLE', 'QUADRUPOLE', 'MULLIKEN_CHARGES')
f=open( 'psi4out.xyz', 'w' )
f.write( "17  " )
f.write( str(ee) + "\n" )
f.write( MOL.save_string_xyz() )
f.close()
--------------------------------------------------------------------------

    Molecular point group: c1
  Charge       = 0
  Multiplicity = 1
  Basis Set: CC-PVTZ
  Basis Set:
  @DF-RHF Final Energy:  -382.59917683979165
    Total Energy =                       -382.5991768397911983
    Molecular point group: c1
  Basis Set: CC-PVTZ
  Basis Set:
  Basis Set: CC-PVTZ
  Basis Set:
  @DF-RHF Final Energy:  -382.59836695767444
    Total Energy =                       -382.5983669576744433
  Basis Set: CC-PVTZ
  Basis Set:
  Basis Set: CC-PVTZ
  Basis Set:
  @DF-RHF Final Energy:  -382.59994865346681
    Total Energy =                       -382.5999486534666403
  Basis Set: CC-PVTZ
  Basis Set:
  Basis Set: CC-PVTZ
  Basis Set:
  @DF-RHF Final Energy:  -382.60011004131491
    Total Energy =                       -382.6001100413152471
  Basis Set: CC-PVTZ
  Basis Set:
  Basis Set: CC-PVTZ
  Basis Set:
  @DF-RHF Final Energy:  -382.60012352662642
    Total Energy =                       -382.6001235266262483
  Basis Set: CC-PVTZ
  Basis Set:
  Basis Set: CC-PVTZ
  Basis Set:
  @DF-RHF Final Energy:  -382.60013401350869
    Total Energy =                       -382.6001340135092050
  Basis Set: CC-PVTZ
  Basis Set:
  Charge       = 0
  Multiplicity = 1
  Basis Set: CC-PVTZ
  Basis Set:

    Orbital Energies (a.u.)
    -----------------------

    Doubly Occupied:

       1A    -20.545441     2A    -11.329605     3A    -11.245629
       4A    -11.243922     5A    -11.240490     6A    -11.240179
       7A    -11.238989     8A    -11.237715     9A    -11.230698
      10A     -1.405785    11A     -1.171172    12A     -1.053698
      13A     -1.030137    14A     -1.000899    15A     -0.863136
      16A     -0.840921    17A     -0.764872    18A     -0.708318
      19A     -0.664182    20A     -0.650180    21A     -0.627884
      22A     -0.623293    23A     -0.603050    24A     -0.592389
      25A     -0.562596    26A     -0.529115    27A     -0.517444
      28A     -0.507587    29A     -0.496676    30A     -0.414121
      31A     -0.349097    32A     -0.346914

  @DF-RHF Final Energy:  -382.60013442244781

   => Energetics <=

    Nuclear Repulsion Energy =            403.9227277989353979
    One-Electron Energy =               -1319.2934562482025740
    Two-Electron Energy =                 532.7705940268192535
    DFT Exchange-Correlation Energy =       0.0000000000000000
    Empirical Dispersion Energy =           0.0000000000000000
    PCM Polarization Energy =               0.0000000000000000
    EFP Energy =                            0.0000000000000000
    Total Energy =                       -382.6001344224479226
    Molecular point group: c1
  Basis Set: CC-PVTZ
  Basis Set:

  -Total Gradient:
     Atom            X                  Y                   Z
    ------   -----------------  -----------------  -----------------
       1       -0.000000867728     0.000003126964     0.000002667389
       2       -0.000009254971    -0.000062945093     0.000024882679
       3       -0.000057620660     0.000028996010     0.000008529107
       4        0.000065592077     0.000031524190    -0.000059630922
       5        0.000002124125    -0.000001020480    -0.000004375602
       6        0.000048838407     0.000040244902    -0.000015447310
       7       -0.000004099998    -0.000000131277     0.000007390050
       8       -0.000187409701    -0.000046239250    -0.003795797038
       9        0.000003310046    -0.000005429382     0.000007775897
      10        0.000049229810    -0.001276304284     0.006506904659
      11       -0.000005481500     0.000002308182    -0.000007209422
      12        0.000325157246     0.004152218374    -0.004491018098
      13       -0.000244728891    -0.002902537005     0.001767934865
      14       -0.000019085801     0.000031389896     0.000041361683
      15        0.000002560113    -0.000005142295    -0.000004231464
      16        0.000023787585     0.000005727062     0.000018574413
      17        0.000007949845     0.000004213484    -0.000008310886

  **** Optimization is complete! (in 7 steps) ****
    Final optimized geometry and variables:
    Molecular point group: c1

    Geometry (in Angstrom), charge = 0, multiplicity = 1:

    H           -3.634464132158     0.270517799565    -0.062465899178
    C           -2.564311340147     0.192113554401    -0.046980429565
    C           -1.960900007945    -1.052415571113    -0.044883635974
    C           -1.787496431142     1.334057465244    -0.037457519209
    H           -2.561733595585    -1.941319962614    -0.060659732526
    C           -0.584349518766    -1.153869569455    -0.039296859409
    H           -2.251333879912     2.301475459548    -0.055192390990
    C           -0.409281778117     1.232576794205    -0.005726003981
    H           -0.112125877785    -2.116376467263    -0.070145969376
    C            0.198750217658    -0.011219535695     0.001379901002
    H            0.185829459465     2.126068177625     0.002158367338
    C            1.695503354439    -0.152468169901    -0.043926508190
    C            2.488154086013     0.473675072554     1.077860178988
    O            2.216261880550    -0.804333474768    -0.888288979127
    H            2.246935389988     1.522524576540     1.198590625342
    H            3.544252625283     0.356344384975     0.888885560453
    H            2.223706141848    -0.022922910778     2.005208295734

  Mulliken Charges: (a.u.)
   Center  Symbol    Alpha    Beta     Spin     Total
       1     H     0.42119  0.42119  0.00000  0.15762
       2     C     3.08112  3.08112  0.00000 -0.16224
       3     C     3.06549  3.06549  0.00000 -0.13097
       4     C     3.06743  3.06743  0.00000 -0.13486
       5     H     0.42120  0.42120  0.00000  0.15760
       6     C     3.08619  3.08619  0.00000 -0.17239
       7     H     0.42176  0.42176  0.00000  0.15648
       8     C     3.09563  3.09563  0.00000 -0.19127
       9     H     0.41684  0.41684  0.00000  0.16632
      10     C     2.97284  2.97284  0.00000  0.05433
      11     H     0.42374  0.42374  0.00000  0.15253
      12     C     2.87429  2.87429  0.00000  0.25142
      13     C     3.15053  3.15053  0.00000 -0.30106
      14     O     4.16868  4.16868  0.00000 -0.33736
      15     H     0.45087  0.45087  0.00000  0.09827
      16     H     0.43631  0.43631  0.00000  0.12737
      17     H     0.44589  0.44589  0.00000  0.10822

   Total alpha = 32.00000, Total beta = 32.00000, Total charge =  0.00000
