  ==> Input File <==

--------------------------------------------------------------------------
set {
	reference rhf
	basis 6-31G*
}

set_num_threads( 1 )
memory 2 gb

molecule MOL {
0 1

H	 -1.748926	 -0.856500	 0.529521
O	 -2.035884	 -0.060112	 0.102722
C	 -0.955155	 0.788182	 -0.092531
C	 0.353668	 0.040312	 -0.004810
H	 -0.985057	 1.290372	 -1.054184
H	 -0.974469	 1.533190	 0.688632
F	 0.394464	 -0.937475	 -0.903053
F	 1.368604	 0.853376	 -0.249821
F	 0.546173	 -0.502608	 1.179981

	symmetry c1
}
set optking {
	frozen_dihedral = ("
		7 4 3 5
	")
}

ee = energy('scf')
oeprop('DIPOLE', 'QUADRUPOLE', 'MULLIKEN_CHARGES')
f=open( 'psi4out.xyz', 'w' )
f.write( "9  " )
f.write( str(ee) + "\n" )
f.write( MOL.save_string_xyz() )
f.close()
--------------------------------------------------------------------------

    Molecular point group: c1

    Geometry (in Angstrom), charge = 0, multiplicity = 1:

       Center              X                  Y                   Z               Mass
    ------------   -----------------  -----------------  -----------------  -----------------
           H         -1.752453381780    -0.854664248204     0.517970776775     1.007825032070
           O         -2.039411381780    -0.058276248204     0.091171776775    15.994914619560
           C         -0.958682381780     0.790017751796    -0.104081223225    12.000000000000
           C          0.350140618220     0.042147751796    -0.016360223225    12.000000000000
           H         -0.988584381780     1.292207751796    -1.065734223225     1.007825032070
           H         -0.977996381780     1.535025751796     0.677081776775     1.007825032070
           F          0.390936618220    -0.935639248204    -0.914603223225    18.998403224000
           F          1.365076618220     0.855211751796    -0.261371223225    18.998403224000
           F          0.542645618220    -0.500772248204     1.168430776775    18.998403224000

  Charge       = 0
  Multiplicity = 1
  Basis Set: 6-31G*
  Basis Set:

    Orbital Energies (a.u.)
    -----------------------

    Doubly Occupied:

       1A    -26.355899     2A    -26.348493     3A    -26.345175
       4A    -20.586830     5A    -11.508542     6A    -11.309326
       7A     -1.748565     8A     -1.649352     9A     -1.641736
      10A     -1.401574    11A     -1.050465    12A     -0.929529
      13A     -0.838275    14A     -0.836431    15A     -0.815728
      16A     -0.721974    17A     -0.719926    18A     -0.683829
      19A     -0.673240    20A     -0.669058    21A     -0.650315
      22A     -0.643110    23A     -0.623034    24A     -0.525801
      25A     -0.475774

  @DF-RHF Final Energy:  -450.65761497011476

   => Energetics <=

    Nuclear Repulsion Energy =            277.7301545843823760
    One-Electron Energy =               -1177.2715852669712149
    Two-Electron Energy =                 448.8838157124737336
    DFT Exchange-Correlation Energy =       0.0000000000000000
    Empirical Dispersion Energy =           0.0000000000000000
    PCM Polarization Energy =               0.0000000000000000
    EFP Energy =                            0.0000000000000000
    Total Energy =                       -450.6576149701151053

  Mulliken Charges: (a.u.)
   Center  Symbol    Alpha    Beta     Spin     Total
       1     H     0.27093  0.27093  0.00000  0.45813
       2     O     4.36876  4.36876  0.00000 -0.73753
       3     C     3.02621  3.02621  0.00000 -0.05243
       4     C     2.48754  2.48754  0.00000  1.02492
       5     H     0.40031  0.40031  0.00000  0.19938
       6     H     0.40779  0.40779  0.00000  0.18442
       7     F     4.68057  4.68057  0.00000 -0.36115
       8     F     4.68014  4.68014  0.00000 -0.36027
       9     F     4.67774  4.67774  0.00000 -0.35549

   Total alpha = 25.00000, Total beta = 25.00000, Total charge = -0.00000
