  ==> Input File <==

--------------------------------------------------------------------------
set {
	reference rhf
	basis 6-31G*
}

set_num_threads( 4 )
memory 2 gb

molecule MOL {
0 1

H	 -2.646374	 -0.642757	 1.268656
C	 -2.083525	 -0.384536	 0.393091
O	 -0.807605	 -0.127164	 0.768327
F	 -2.118945	 -1.383102	 -0.486752
F	 -2.621877	 0.670592	 -0.209486
C	 0.084052	 0.273579	 -0.209957
C	 0.423835	 1.732057	 0.068520
Cl	 -0.626222	 0.095463	 -1.822718
H	 0.996683	 -0.296069	 -0.190481
F	 1.283773	 2.181437	 -0.820695
F	 0.983656	 1.817526	 1.258786
F	 -0.638825	 2.499196	 0.053482

	symmetry c1
}
set optking {
	frozen_dihedral = ("
		9 6 3 2
	")
}

ee = optimize('scf')
oeprop('DIPOLE', 'QUADRUPOLE', 'MULLIKEN_CHARGES')
f=open( 'psi4out.xyz', 'w' )
f.write( "12  " )
f.write( str(ee) + "\n" )
f.write( MOL.save_string_xyz() )
f.close()
--------------------------------------------------------------------------

    Molecular point group: c1
  Charge       = 0
  Multiplicity = 1
  Basis Set: 6-31G*
  Basis Set:
  @DF-RHF Final Energy: -1146.28409130175532
    Total Energy =                      -1146.2840913017546427
    Molecular point group: c1
  Basis Set: 6-31G*
  Basis Set:
  Basis Set: 6-31G*
  Basis Set:
  @DF-RHF Final Energy: -1146.29742216774275
    Total Energy =                      -1146.2974221677432070
  Basis Set: 6-31G*
  Basis Set:
  Basis Set: 6-31G*
  Basis Set:
  @DF-RHF Final Energy: -1146.30181177449685
    Total Energy =                      -1146.3018117744968549
  Basis Set: 6-31G*
  Basis Set:
  Basis Set: 6-31G*
  Basis Set:
  @DF-RHF Final Energy: -1146.30361844776553
    Total Energy =                      -1146.3036184477657571
  Basis Set: 6-31G*
  Basis Set:
  @DF-RHF Final Energy: -1146.30396661908435
    Total Energy =                      -1146.3039666190845765
  @DF-RHF Final Energy: -1146.30406831428672
    Total Energy =                      -1146.3040683142871785
  Basis Set: 6-31G*
  Basis Set:
  @DF-RHF Final Energy: -1146.30409474107410
    Total Energy =                      -1146.3040947410743229
  Basis Set: 6-31G*
  Basis Set:
  Basis Set: 6-31G*
  Basis Set:
  @DF-RHF Final Energy: -1146.30411991541405
    Total Energy =                      -1146.3041199154140486
  Basis Set: 6-31G*
  Basis Set:
  Basis Set: 6-31G*
  Basis Set:
  @DF-RHF Final Energy: -1146.30412741778991
    Total Energy =                      -1146.3041274177894593
  Basis Set: 6-31G*
  Basis Set:
  Charge       = 0
  Multiplicity = 1
  Basis Set: 6-31G*
  Basis Set:

    Orbital Energies (a.u.)
    -----------------------

    Doubly Occupied:

       1A   -104.847936     2A    -26.359106     3A    -26.357048
       4A    -26.357026     5A    -26.336250     6A    -26.335136
       7A    -20.642777     8A    -11.525400     9A    -11.484226
      10A    -11.402626    11A    -10.582976    12A     -8.052357
      13A     -8.048748    14A     -8.048612    15A     -1.759931
      16A     -1.707143    17A     -1.656713    18A     -1.654737
      19A     -1.629859    20A     -1.474264    21A     -1.182497
      22A     -1.056630    23A     -0.985402    24A     -0.913209
      25A     -0.850950    26A     -0.848575    27A     -0.841408
      28A     -0.825185    29A     -0.803789    30A     -0.769098
      31A     -0.731112    32A     -0.722360    33A     -0.704315
      34A     -0.687044    35A     -0.677927    36A     -0.672669
      37A     -0.659024    38A     -0.657060    39A     -0.647323
      40A     -0.632174    41A     -0.590808    42A     -0.551144
      43A     -0.535630    44A     -0.478984    45A     -0.467684

  @DF-RHF Final Energy: -1146.30412813825410

   => Energetics <=

    Nuclear Repulsion Energy =            748.9807702838836576
    One-Electron Energy =               -3081.0600512573851120
    Two-Electron Energy =                1185.7751528352464447
    DFT Exchange-Correlation Energy =       0.0000000000000000
    Empirical Dispersion Energy =           0.0000000000000000
    PCM Polarization Energy =               0.0000000000000000
    EFP Energy =                            0.0000000000000000
    Total Energy =                      -1146.3041281382547822
    Molecular point group: c1
  Basis Set: 6-31G*
  Basis Set:

  -Total Gradient:
     Atom            X                  Y                   Z
    ------   -----------------  -----------------  -----------------
       1       -0.000031278461    -0.000010825501    -0.000035269786
       2        0.000475991761    -0.001510870642    -0.000341603069
       3       -0.000849646041     0.002215600528     0.000241765976
       4       -0.000021275596     0.000006842578     0.000030039075
       5       -0.000002750361    -0.000052674827     0.000020314235
       6        0.001055395784     0.000449858529     0.001376629153
       7       -0.000021458772    -0.000037367048    -0.000128146179
       8        0.000001766341     0.000023026808     0.000004171422
       9       -0.000646452990    -0.001125907575    -0.001218856675
      10        0.000013705622     0.000043496848     0.000026557225
      11       -0.000024639400     0.000015274109    -0.000011241133
      12        0.000050642104    -0.000016453812     0.000035639801

  **** Optimization is complete! (in 10 steps) ****
    Final optimized geometry and variables:
    Molecular point group: c1

    Geometry (in Angstrom), charge = 0, multiplicity = 1:

    H           -1.967006814799    -1.344952721090     1.691897791965
    C           -1.532467727608    -1.141656519761     0.731851663116
    O           -0.228114982196    -0.836772659870     0.948344651164
    F           -1.656203569099    -2.210561917665    -0.045131891260
    F           -2.179728636599    -0.142218730933     0.148773634364
    C            0.687578697937    -0.395731365134     0.000156589696
    C            1.058185610750     1.039694999263     0.359371127657
    CL           0.196659445496    -0.491589948901    -1.698785834648
    H            1.564781924506    -1.011251758754     0.094796137797
    F            2.022304689156     1.476957772303    -0.422835267926
    F            1.497373852029     1.072589808836     1.601537826326
    F            0.032942371931     1.851899988454     0.261926134604

  Mulliken Charges: (a.u.)
   Center  Symbol    Alpha    Beta     Spin     Total
       1     H     0.40514  0.40514  0.00000  0.18973
       2     C     2.55769  2.55769  0.00000  0.88463
       3     O     4.31898  4.31898  0.00000 -0.63796
       4     F     4.68290  4.68290  0.00000 -0.36579
       5     F     4.68199  4.68199  0.00000 -0.36399
       6     C     3.02738  3.02738  0.00000 -0.05475
       7     C     2.43930  2.43930  0.00000  1.12140
       8    CL     8.49981  8.49981  0.00000  0.00039
       9     H     0.36855  0.36855  0.00000  0.26289
      10     F     4.67371  4.67371  0.00000 -0.34742
      11     F     4.67606  4.67606  0.00000 -0.35213
      12     F     4.66849  4.66849  0.00000 -0.33698

   Total alpha = 45.00000, Total beta = 45.00000, Total charge =  0.00000
