  ==> Input File <==

--------------------------------------------------------------------------
set {
	reference rhf
	basis 6-31G*
}

set_num_threads( 4 )
memory 2 gb

molecule MOL {
0 1

H	 -4.028921	 0.351699	 -0.987085
C	 -3.355375	 -0.300142	 -0.465452
C	 -2.076860	 -0.007332	 -0.404944
H	 -3.751841	 -1.184002	 -0.002292
O	 -1.180634	 -0.819263	 0.215062
H	 -1.661091	 0.876412	 -0.855863
C	 0.051604	 -1.018856	 -0.387932
C	 1.043764	 0.054862	 -0.001873
H	 -0.017620	 -1.041351	 -1.469781
H	 0.437898	 -1.966374	 -0.042284
F	 2.212596	 -0.199467	 -0.571921
F	 0.652529	 1.252447	 -0.405055
F	 1.230877	 0.110694	 1.300533

	symmetry c1
}
set optking {
	frozen_dihedral = ("
		6 3 5 7
	")
}

ee = optimize('scf')
oeprop('DIPOLE', 'QUADRUPOLE', 'MULLIKEN_CHARGES')
f=open( 'psi4out.xyz', 'w' )
f.write( "13  " )
f.write( str(ee) + "\n" )
f.write( MOL.save_string_xyz() )
f.close()
--------------------------------------------------------------------------

    Molecular point group: c1
  Charge       = 0
  Multiplicity = 1
  Basis Set: 6-31G*
  Basis Set:
  @DF-RHF Final Energy:  -527.53454941964651
    Total Energy =                       -527.5345494196471918
    Molecular point group: c1
  Basis Set: 6-31G*
  Basis Set:
  Basis Set: 6-31G*
  Basis Set:
  @DF-RHF Final Energy:  -527.53489142105309
    Total Energy =                       -527.5348914210534303
  Basis Set: 6-31G*
  Basis Set:
  Basis Set: 6-31G*
  Basis Set:
  @DF-RHF Final Energy:  -527.53528682551200
    Total Energy =                       -527.5352868255122303
  Basis Set: 6-31G*
  Basis Set:
  Basis Set: 6-31G*
  Basis Set:
  @DF-RHF Final Energy:  -527.53530826184056
    Total Energy =                       -527.5353082618404414
  Basis Set: 6-31G*
  Basis Set:
  Basis Set: 6-31G*
  Basis Set:
  @DF-RHF Final Energy:  -527.53531209872926
    Total Energy =                       -527.5353120987290367
  Basis Set: 6-31G*
  Basis Set:
  Charge       = 0
  Multiplicity = 1
  Basis Set: 6-31G*
  Basis Set:

    Orbital Energies (a.u.)
    -----------------------

    Doubly Occupied:

       1A    -26.344524     2A    -26.344435     3A    -26.340297
       4A    -20.603830     5A    -11.502977     6A    -11.316594
       7A    -11.296894     8A    -11.221590     9A     -1.741655
      10A     -1.639910    11A     -1.638102    12A     -1.432854
      13A     -1.082981    14A     -1.016798    15A     -0.925113
      16A     -0.835412    17A     -0.830927    18A     -0.823039
      19A     -0.782981    20A     -0.724400    21A     -0.711519
      22A     -0.700342    23A     -0.675636    24A     -0.658347
      25A     -0.654244    26A     -0.643243    27A     -0.627531
      28A     -0.595021    29A     -0.567151    30A     -0.529084
      31A     -0.488419    32A     -0.361020

  @DF-RHF Final Energy:  -527.53531237563220

   => Energetics <=

    Nuclear Repulsion Energy =            411.4378517294930475
    One-Electron Energy =               -1546.6325859393273277
    Two-Electron Energy =                 607.6594218342021350
    DFT Exchange-Correlation Energy =       0.0000000000000000
    Empirical Dispersion Energy =           0.0000000000000000
    PCM Polarization Energy =               0.0000000000000000
    EFP Energy =                            0.0000000000000000
    Total Energy =                       -527.5353123756320883
    Molecular point group: c1
  Basis Set: 6-31G*
  Basis Set:

  -Total Gradient:
     Atom            X                  Y                   Z
    ------   -----------------  -----------------  -----------------
       1       -0.000000631286    -0.000003978017     0.000003041160
       2        0.000021112870     0.000002461947    -0.000006380984
       3        0.000004881359    -0.000973821839    -0.001218488915
       4        0.000004528965    -0.000001226822     0.000003457019
       5        0.000374966057     0.001077325593     0.000778028620
       6       -0.000136452890     0.000544807790     0.000771443774
       7       -0.000212925304    -0.000646008082    -0.000331254829
       8        0.000015219248    -0.000000840065    -0.000010266140
       9       -0.000005168553     0.000000860323     0.000005339635
      10       -0.000015690852    -0.000008892308    -0.000002375018
      11       -0.000043534681     0.000003342086     0.000044219307
      12       -0.000027915718     0.000038223604    -0.000034167960
      13        0.000021610789    -0.000032254210    -0.000002595670

  **** Optimization is complete! (in 6 steps) ****
    Final optimized geometry and variables:
    Molecular point group: c1

    Geometry (in Angstrom), charge = 0, multiplicity = 1:

    H           -4.075620384273     0.389391132103    -0.908164908671
    C           -3.371793351109    -0.236245073947    -0.393594901275
    C           -2.089958376571     0.044971505082    -0.433927475345
    H           -3.744368036657    -1.074719413742     0.164656675040
    O           -1.174888698414    -0.687165955229     0.262013747990
    H           -1.693689820576     0.887449962947    -0.971285330411
    C            0.056799720047    -0.910558410353    -0.343104629023
    C            1.073283497912     0.122131272812     0.086408130328
    H           -0.005262024089    -0.900076534999    -1.424561843901
    H            0.415312418448    -1.878434245947    -0.023222513633
    F            2.238493844885    -0.136497486028    -0.488093420679
    F            0.713713327101     1.346092165117    -0.270541508201
    F            1.255890193864     0.124418416032     1.390638788847

  Mulliken Charges: (a.u.)
   Center  Symbol    Alpha    Beta     Spin     Total
       1     H     0.40652  0.40652  0.00000  0.18696
       2     C     3.22558  3.22558  0.00000 -0.45115
       3     C     2.90919  2.90919  0.00000  0.18163
       4     H     0.40161  0.40161  0.00000  0.19678
       5     O     4.30476  4.30476  0.00000 -0.60951
       6     H     0.40108  0.40108  0.00000  0.19785
       7     C     3.06340  3.06340  0.00000 -0.12681
       8     C     2.45560  2.45560  0.00000  1.08881
       9     H     0.40367  0.40367  0.00000  0.19266
      10     H     0.39055  0.39055  0.00000  0.21890
      11     F     4.68270  4.68270  0.00000 -0.36540
      12     F     4.68081  4.68081  0.00000 -0.36162
      13     F     4.67455  4.67455  0.00000 -0.34910

   Total alpha = 32.00000, Total beta = 32.00000, Total charge =  0.00000
