                              Psi4 1.0.54 Driver

  ==> Input File <==

--------------------------------------------------------------------------
set {
	reference rhf
	basis cc-pvtz
}

set_num_threads( 4 )
memory 2 gb

molecule MOL {
0 1

H	 -1.916869	 0.928222	 0.563570
N	 -1.851927	 0.161443	 -0.071573
C	 -0.561396	 -0.500007	 0.035200
H	 -1.989986	 0.527404	 -0.990457
C	 0.575129	 0.507849	 -0.048832
H	 -0.478089	 -1.200753	 -0.788956
H	 -0.456191	 -1.081816	 0.952176
C	 1.951750	 -0.141983	 0.035101
H	 0.478254	 1.061643	 -0.975981
H	 0.467676	 1.231891	 0.755499
H	 2.101550	 -0.848142	 -0.774949
H	 2.738260	 0.600794	 -0.026526
H	 2.078939	 -0.679792	 0.968824

	symmetry c1
}
set optking {
	frozen_dihedral = ("
		1 2 3 6
	")
}

ee,wfn = optimize('scf', return_wfn=True)
oeprop( wfn, 'DIPOLE', 'QUADRUPOLE', 'MULLIKEN_CHARGES')
f=open( 'psi4out.xyz', 'w' )
f.write( "13  " )
f.write( str(ee) + "\n" )
f.write( MOL.save_string_xyz() )
f.close()
--------------------------------------------------------------------------

    Molecular point group: c1
  Charge       = 0
  Multiplicity = 1
  Basis Set: CC-PVTZ
  Basis Set:
  @DF-RHF Final Energy:  -173.35048567352541
    Total Energy =                       -173.3504856735255828
    Molecular point group: c1
  Basis Set: CC-PVTZ
  Basis Set:
  Basis Set: CC-PVTZ
  Basis Set:
  @DF-RHF Final Energy:  -173.35202194439691
    Total Energy =                       -173.3520219443968529
  Basis Set: CC-PVTZ
  Basis Set:
  Basis Set: CC-PVTZ
  Basis Set:
  @DF-RHF Final Energy:  -173.35223000692505
    Total Energy =                       -173.3522300069251401
  Basis Set: CC-PVTZ
  Basis Set:
  Basis Set: CC-PVTZ
  Basis Set:
  @DF-RHF Final Energy:  -173.35223214686957
    Total Energy =                       -173.3522321468695395
  Basis Set: CC-PVTZ
  Basis Set:
  Charge       = 0
  Multiplicity = 1
  Basis Set: CC-PVTZ
  Basis Set:

    Orbital Energies (a.u.)
    -----------------------

    Doubly Occupied:

       1A    -15.527137     2A    -11.238663     3A    -11.214101
       4A    -11.209861     5A     -1.179253     6A     -1.038008
       7A     -0.900090     8A     -0.807332     9A     -0.677683
      10A     -0.608912    11A     -0.606161    12A     -0.561911
      13A     -0.525649    14A     -0.515049    15A     -0.486664
      16A     -0.471375    17A     -0.381227

  @DF-RHF Final Energy:  -173.35223225847645

   => Energetics <=

    Nuclear Repulsion Energy =            131.8401131746819317
    One-Electron Energy =                -494.4865470705032067
    Two-Electron Energy =                 189.2942016373449121
    DFT Exchange-Correlation Energy =       0.0000000000000000
    Empirical Dispersion Energy =           0.0000000000000000
    PCM Polarization Energy =               0.0000000000000000
    EFP Energy =                            0.0000000000000000
    Total Energy =                       -173.3522322584763344
    Molecular point group: c1
  Basis Set: CC-PVTZ
  Basis Set:

  -Total Gradient:
     Atom            X                  Y                   Z
    ------   -----------------  -----------------  -----------------
       1        0.000546234136     0.001062080891    -0.001229183345
       2       -0.000541101864    -0.001075813008     0.001317850376
       3       -0.000544953509    -0.001111305213     0.000822544904
       4       -0.000001354917     0.000004510846    -0.000006791748
       5       -0.000034480734    -0.000015273128     0.000020356618
       6        0.000544172964     0.001116849474    -0.000917398028
       7       -0.000001236530     0.000001053386     0.000004464576
       8        0.000007928723     0.000013278075    -0.000016858518
       9        0.000006361091     0.000000910253     0.000008315082
      10        0.000001048302     0.000007712905    -0.000000761282
      11        0.000002299547    -0.000003385862     0.000005029440
      12        0.000018496849    -0.000006045381    -0.000002939546
      13       -0.000003414054     0.000005426763    -0.000004628527

  **** Optimization is complete! (in 5 steps) ****
    Final optimized geometry and variables:
    Molecular point group: c1

    Geometry (in Angstrom), charge = 0, multiplicity = 1:

    H           -1.978998704874     0.887736420630     0.582585132330
    N           -1.897866426571     0.113157550856    -0.043179030087
    C           -0.573461218887    -0.480978469501     0.035020631901
    H           -2.070000881498     0.469327189633    -0.960120979801
    C            0.592683995741     0.502737054585    -0.029893079534
    H           -0.481625022794    -1.191183745248    -0.780043269613
    H           -0.509613514809    -1.053820860596     0.954543669318
    C            1.952853696232    -0.181449496532     0.056957273390
    H            0.526972823983     1.070942747312    -0.954287892074
    H            0.495381239609     1.221868848016     0.779958991482
    H            2.091382258208    -0.882855668313    -0.759184690369
    H            2.759848033471     0.540291564382     0.011728310893
    H            2.055097945820    -0.733144817963     0.985531911954

  Mulliken Charges: (a.u.)
   Center  Symbol    Alpha    Beta     Spin     Total
       1     H     0.43260  0.43260  0.00000  0.13479
       2     N     3.68750  3.68750  0.00000 -0.37501
       3     C     3.02739  3.02739  0.00000 -0.05478
       4     H     0.43242  0.43242  0.00000  0.13516
       5     C     3.08178  3.08178  0.00000 -0.16357
       6     H     0.45512  0.45512  0.00000  0.08976
       7     H     0.45405  0.45405  0.00000  0.09190
       8     C     3.15225  3.15225  0.00000 -0.30450
       9     H     0.45949  0.45949  0.00000  0.08102
      10     H     0.45968  0.45968  0.00000  0.08064
      11     H     0.45501  0.45501  0.00000  0.08999
      12     H     0.44796  0.44796  0.00000  0.10409
      13     H     0.45474  0.45474  0.00000  0.09052

   Total alpha = 17.00000, Total beta = 17.00000, Total charge =  0.00000

*** Psi4 exiting successfully. Buy a developer a beer!
