  ==> Input File <==

--------------------------------------------------------------------------
set {
	reference rhf
	basis 6-31G*
}

set_num_threads( 1 )
memory 2 gb

molecule MOL {
0 1

H	 -2.510566	 -0.777634	 1.933428
C	 -2.494094	 -1.443243	 1.072711
O	 -1.265780	 -1.401977	 0.420882
H	 -2.649274	 -2.458098	 1.412019
H	 -3.310550	 -1.166527	 0.406936
C	 -0.928928	 -0.147809	 -0.081953
C	 0.463145	 -0.201470	 -0.666296
H	 -1.633140	 0.149148	 -0.860154
H	 -0.959465	 0.604971	 0.703156
O	 1.392611	 -0.295398	 0.366430
H	 0.538897	 -1.057102	 -1.334249
H	 0.640366	 0.700385	 -1.253616
C	 2.706965	 -0.449871	 -0.062409
H	 2.756559	 -0.644779	 -1.131878
H	 3.305899	 0.433456	 0.155466
H	 3.125548	 -1.294566	 0.467107

	symmetry c1
}
set optking {
	frozen_dihedral = ("
		3 6 7 11,
		2 3 6 7
	")
}

ee = energy('scf')
oeprop('DIPOLE', 'QUADRUPOLE', 'MULLIKEN_CHARGES')
f=open( 'psi4out.xyz', 'w' )
f.write( "16  " )
f.write( str(ee) + "\n" )
f.write( MOL.save_string_xyz() )
f.close()
--------------------------------------------------------------------------

    Molecular point group: c1

    Geometry (in Angstrom), charge = 0, multiplicity = 1:

       Center              X                  Y                   Z               Mass
    ------------   -----------------  -----------------  -----------------  -----------------
           H         -2.491608528380    -0.115779630973     1.753122859192     1.007825032070
           C         -2.475136528380    -0.781388630973     0.892405859192    12.000000000000
           O         -1.246822528380    -0.740122630973     0.240576859192    15.994914619560
           H         -2.630316528380    -1.796243630973     1.231713859192     1.007825032070
           H         -3.291592528380    -0.504672630973     0.226630859192     1.007825032070
           C         -0.909970528380     0.514045369027    -0.262258140808    12.000000000000
           C          0.482102471620     0.460384369027    -0.846601140808    12.000000000000
           H         -1.614182528380     0.811002369027    -1.040459140808     1.007825032070
           H         -0.940507528380     1.266825369027     0.522850859192     1.007825032070
           O          1.411568471620     0.366456369027     0.186124859192    15.994914619560
           H          0.557854471620    -0.395247630973    -1.514554140808     1.007825032070
           H          0.659323471620     1.362239369027    -1.433921140808     1.007825032070
           C          2.725922471620     0.211983369027    -0.242714140808    12.000000000000
           H          2.775516471620     0.017075369027    -1.312183140808     1.007825032070
           H          3.324856471620     1.095310369027    -0.024839140808     1.007825032070
           H          3.144505471620    -0.632711630973     0.286801859192     1.007825032070

  Charge       = 0
  Multiplicity = 1
  Basis Set: 6-31G*
  Basis Set:

    Orbital Energies (a.u.)
    -----------------------

    Doubly Occupied:

       1A    -20.553444     2A    -20.550645     3A    -11.269354
       4A    -11.268204     5A    -11.263424     6A    -11.262417
       7A     -1.387671     8A     -1.370008     9A     -1.030394
      10A     -0.935470    11A     -0.892060    12A     -0.824937
      13A     -0.683106    14A     -0.679052    15A     -0.657777
      16A     -0.635403    17A     -0.627468    18A     -0.596265
      19A     -0.554409    20A     -0.536517    21A     -0.506628
      22A     -0.478154    23A     -0.463607    24A     -0.417862
      25A     -0.407057

  @DF-RHF Final Energy:  -306.97355734472842

   => Energetics <=

    Nuclear Repulsion Energy =            258.8739038121767635
    One-Electron Energy =                -931.9921634749697432
    Two-Electron Energy =                 366.1447023180649012
    DFT Exchange-Correlation Energy =       0.0000000000000000
    Empirical Dispersion Energy =           0.0000000000000000
    PCM Polarization Energy =               0.0000000000000000
    EFP Energy =                            0.0000000000000000
    Total Energy =                       -306.9735573447280785

  Mulliken Charges: (a.u.)
   Center  Symbol    Alpha    Beta     Spin     Total
       1     H     0.42805  0.42805  0.00000  0.14390
       2     C     3.07946  3.07946  0.00000 -0.15892
       3     O     4.30094  4.30094  0.00000 -0.60188
       4     H     0.41136  0.41136  0.00000  0.17729
       5     H     0.43192  0.43192  0.00000  0.13616
       6     C     2.99356  2.99356  0.00000  0.01288
       7     C     2.99534  2.99534  0.00000  0.00931
       8     H     0.43241  0.43241  0.00000  0.13517
       9     H     0.42271  0.42271  0.00000  0.15458
      10     O     4.30268  4.30268  0.00000 -0.60535
      11     H     0.42181  0.42181  0.00000  0.15638
      12     H     0.43218  0.43218  0.00000  0.13564
      13     C     3.07687  3.07687  0.00000 -0.15374
      14     H     0.43049  0.43049  0.00000  0.13903
      15     H     0.42412  0.42412  0.00000  0.15176
      16     H     0.41610  0.41610  0.00000  0.16780

   Total alpha = 25.00000, Total beta = 25.00000, Total charge =  0.00000
