  ==> Input File <==

--------------------------------------------------------------------------
set {
	reference rhf
	basis 6-31G*
}

set_num_threads( 1 )
memory 2 gb

molecule MOL {
0 1

H	 -3.710464	 -0.805197	 0.296550
O	 -3.517110	 -0.026191	 -0.205115
C	 -2.306886	 0.532354	 0.237577
C	 -1.177863	 -0.397191	 -0.171080
H	 -2.156308	 1.517575	 -0.201710
H	 -2.315015	 0.655684	 1.319734
C	 0.198102	 0.111031	 0.262842
H	 -1.208843	 -0.518759	 -1.250427
H	 -1.368741	 -1.376554	 0.258909
C	 1.331804	 -0.827780	 -0.158768
H	 0.361943	 1.100838	 -0.156218
H	 0.217265	 0.229072	 1.345532
C	 2.723619	 -0.410569	 0.329459
H	 1.342964	 -0.912588	 -1.244120
H	 1.116806	 -1.824343	 0.220779
C	 3.243875	 0.895854	 -0.272975
H	 3.424222	 -1.207124	 0.091250
H	 2.714788	 -0.329854	 1.414619
H	 3.251977	 0.848779	 -1.358681
H	 2.637085	 1.747371	 0.016682
H	 4.259473	 1.094070	 0.055697

	symmetry c1
}
set optking {
	frozen_dihedral = ("
		2 3 4 8,
		8 4 7 10,
		4 7 10 14,
		16 13 10 14
	")
}

ee = energy('scf')
oeprop('DIPOLE', 'QUADRUPOLE', 'MULLIKEN_CHARGES')
f=open( 'psi4out.xyz', 'w' )
f.write( "21  " )
f.write( str(ee) + "\n" )
f.write( MOL.save_string_xyz() )
f.close()
--------------------------------------------------------------------------

    Molecular point group: c1

    Geometry (in Angstrom), charge = 0, multiplicity = 1:

       Center              X                  Y                   Z               Mass
    ------------   -----------------  -----------------  -----------------  -----------------
           H         -3.715656016639    -0.791937527355     0.294015474431     1.007825032070
           O         -3.522302016639    -0.012931527355    -0.207649525569    15.994914619560
           C         -2.312078016639     0.545613472645     0.235042474431    12.000000000000
           C         -1.183055016639    -0.383931527355    -0.173614525569    12.000000000000
           H         -2.161500016639     1.530834472645    -0.204244525569     1.007825032070
           H         -2.320207016639     0.668943472645     1.317199474431     1.007825032070
           C          0.192909983361     0.124290472645     0.260307474431    12.000000000000
           H         -1.214035016639    -0.505499527355    -1.252961525569     1.007825032070
           H         -1.373933016639    -1.363294527355     0.256374474431     1.007825032070
           C          1.326611983361    -0.814520527355    -0.161302525569    12.000000000000
           H          0.356750983361     1.114097472645    -0.158752525569     1.007825032070
           H          0.212072983361     0.242331472645     1.342997474431     1.007825032070
           C          2.718426983361    -0.397309527355     0.326924474431    12.000000000000
           H          1.337771983361    -0.899328527355    -1.246654525569     1.007825032070
           H          1.111613983361    -1.811083527355     0.218244474431     1.007825032070
           C          3.238682983361     0.909113472645    -0.275509525569    12.000000000000
           H          3.419029983361    -1.193864527355     0.088715474431     1.007825032070
           H          2.709595983361    -0.316594527355     1.412084474431     1.007825032070
           H          3.246784983361     0.862038472645    -1.361215525569     1.007825032070
           H          2.631892983361     1.760630472645     0.014147474431     1.007825032070
           H          4.254280983361     1.107329472645     0.053162474431     1.007825032070

  Charge       = 0
  Multiplicity = 1
  Basis Set: 6-31G*
  Basis Set:

    Orbital Energies (a.u.)
    -----------------------

    Doubly Occupied:

       1A    -20.551058     2A    -11.268146     3A    -11.217626
       4A    -11.216826     5A    -11.215785     6A    -11.213327
       7A    -11.209448     8A     -1.359441     9A     -1.088344
      10A     -1.034532    11A     -0.955188    12A     -0.878513
      13A     -0.817366    14A     -0.780600    15A     -0.694027
      16A     -0.648995    17A     -0.621046    18A     -0.609711
      19A     -0.592986    20A     -0.575053    21A     -0.538459
      22A     -0.533576    23A     -0.503252    24A     -0.492143
      25A     -0.481910    26A     -0.464478    27A     -0.459975
      28A     -0.457912    29A     -0.418029

  @DF-RHF Final Energy:  -310.21090937090685

   => Energetics <=

    Nuclear Repulsion Energy =            313.0020856052836962
    One-Electron Energy =               -1040.6306797260970143
    Two-Electron Energy =                 417.4176847499070391
    DFT Exchange-Correlation Energy =       0.0000000000000000
    Empirical Dispersion Energy =           0.0000000000000000
    PCM Polarization Energy =               0.0000000000000000
    EFP Energy =                            0.0000000000000000
    Total Energy =                       -310.2109093709062790

  Mulliken Charges: (a.u.)
   Center  Symbol    Alpha    Beta     Spin     Total
       1     H     0.28175  0.28175  0.00000  0.43651
       2     O     4.37059  4.37059  0.00000 -0.74118
       3     C     2.99259  2.99259  0.00000  0.01482
       4     C     3.16176  3.16176  0.00000 -0.32352
       5     H     0.41612  0.41612  0.00000  0.16775
       6     H     0.43137  0.43137  0.00000  0.13727
       7     C     3.16258  3.16258  0.00000 -0.32516
       8     H     0.41340  0.41340  0.00000  0.17320
       9     H     0.42934  0.42934  0.00000  0.14132
      10     C     3.15151  3.15151  0.00000 -0.30301
      11     H     0.42020  0.42020  0.00000  0.15961
      12     H     0.42452  0.42452  0.00000  0.15097
      13     C     3.15247  3.15247  0.00000 -0.30494
      14     H     0.42282  0.42282  0.00000  0.15437
      15     H     0.42239  0.42239  0.00000  0.15521
      16     C     3.24133  3.24133  0.00000 -0.48265
      17     H     0.42065  0.42065  0.00000  0.15870
      18     H     0.42362  0.42362  0.00000  0.15276
      19     H     0.42176  0.42176  0.00000  0.15647
      20     H     0.42032  0.42032  0.00000  0.15937
      21     H     0.41893  0.41893  0.00000  0.16214

   Total alpha = 29.00000, Total beta = 29.00000, Total charge =  0.00000
