  ==> Input File <==

--------------------------------------------------------------------------
set {
	reference rhf
	basis 6-31G*
}

set_num_threads( 4 )
memory 2 gb

molecule MOL {
0 1

O	 3.225979	 0.970355	 -0.599647
C	 2.701189	 0.057885	 -0.047330
C	 1.245376	 -0.013843	 0.345420
O	 3.347903	 -1.046386	 0.304773
C	 0.455112	 1.231400	 -0.050772
H	 0.838542	 -0.913825	 -0.103701
H	 1.208210	 -0.175333	 1.419774
C	 -0.998893	 1.219485	 0.433193
H	 0.482531	 1.345121	 -1.130325
H	 0.957290	 2.103070	 0.354729
C	 -1.883438	 0.145884	 -0.207175
H	 -1.431207	 2.195402	 0.224832
H	 -1.019646	 1.105716	 1.516076
C	 -3.347647	 0.245583	 0.225435
H	 -1.822183	 0.231698	 -1.291012
H	 -1.510341	 -0.844814	 0.042401
C	 -4.239992	 -0.825570	 -0.404234
H	 -3.732888	 1.230466	 -0.033079
H	 -3.408585	 0.170602	 1.310038
C	 -5.626504	 -0.303341	 -0.779151
H	 -3.752610	 -1.223793	 -1.291657
H	 -4.343774	 -1.659689	 0.286603
H	 -6.235116	 -1.085286	 -1.222729
H	 -5.558413	 0.509652	 -1.496508
H	 -6.153795	 0.070932	 0.093865
C	 4.728119	 -1.109107	 -0.004993
H	 4.882018	 -1.033965	 -1.071845
H	 5.068212	 -2.067527	 0.355250
H	 5.265056	 -0.311663	 0.488280

	symmetry c1
}
set optking {
	frozen_dihedral = ("
		21 17 14 11
	")
}

ee = optimize('scf')
oeprop('DIPOLE', 'QUADRUPOLE', 'MULLIKEN_CHARGES')
f=open( 'psi4out.xyz', 'w' )
f.write( "29  " )
f.write( str(ee) + "\n" )
f.write( MOL.save_string_xyz() )
f.close()
--------------------------------------------------------------------------

    Molecular point group: c1
  Charge       = 0
  Multiplicity = 1
  Basis Set: 6-31G*
  Basis Set:
  @DF-RHF Final Energy:  -501.04003960910632
    Total Energy =                       -501.0400396091056336
    Molecular point group: c1
  Basis Set: 6-31G*
  Basis Set:
  Basis Set: 6-31G*
  Basis Set:
  @DF-RHF Final Energy:  -501.04029129922526
    Total Energy =                       -501.0402912992246911
  Basis Set: 6-31G*
  Basis Set:
  Basis Set: 6-31G*
  Basis Set:
  @DF-RHF Final Energy:  -501.04035390192985
    Total Energy =                       -501.0403539019298478
  Basis Set: 6-31G*
  Basis Set:
  Basis Set: 6-31G*
  Basis Set:
  @DF-RHF Final Energy:  -501.04034952376003
    Total Energy =                       -501.0403495237602556
  Basis Set: 6-31G*
  Basis Set:
  Basis Set: 6-31G*
  Basis Set:
  @DF-RHF Final Energy:  -501.04036022922958
    Total Energy =                       -501.0403602292292362
  Basis Set: 6-31G*
  Basis Set:
  Charge       = 0
  Multiplicity = 1
  Basis Set: 6-31G*
  Basis Set:

    Orbital Energies (a.u.)
    -----------------------

    Doubly Occupied:

       1A    -20.603352     2A    -20.545171     3A    -11.371984
       4A    -11.280650     5A    -11.234703     6A    -11.219127
       7A    -11.217524     8A    -11.216255     9A    -11.215541
      10A    -11.214239    11A    -11.209381    12A     -1.469048
      13A     -1.362488    14A     -1.097609    15A     -1.065567
      16A     -1.019188    17A     -0.977264    18A     -0.928455
      19A     -0.861813    20A     -0.800200    21A     -0.790531
      22A     -0.763847    23A     -0.700625    24A     -0.682293
      25A     -0.672132    26A     -0.645141    27A     -0.630856
      28A     -0.603283    29A     -0.597216    30A     -0.581375
      31A     -0.565997    32A     -0.551801    33A     -0.531188
      34A     -0.526167    35A     -0.517536    36A     -0.515453
      37A     -0.494910    38A     -0.478079    39A     -0.471020
      40A     -0.460270    41A     -0.456353    42A     -0.455741
      43A     -0.440588    44A     -0.435124

  @DF-RHF Final Energy:  -501.04035954419487

   => Energetics <=

    Nuclear Repulsion Energy =            610.3934629853365550
    One-Electron Energy =               -1891.9134800374042698
    Two-Electron Energy =                 780.4796575078734122
    DFT Exchange-Correlation Energy =       0.0000000000000000
    Empirical Dispersion Energy =           0.0000000000000000
    PCM Polarization Energy =               0.0000000000000000
    EFP Energy =                            0.0000000000000000
    Total Energy =                       -501.0403595441943025
    Molecular point group: c1
  Basis Set: 6-31G*
  Basis Set:

  -Total Gradient:
     Atom            X                  Y                   Z
    ------   -----------------  -----------------  -----------------
       1        0.000028423089     0.000050510482     0.000132245286
       2       -0.000080505758    -0.000174165154    -0.000363322458
       3        0.000007788590     0.000048186420     0.000088993146
       4        0.000029690204     0.000046082411     0.000097508893
       5        0.000042934318     0.000054533772     0.000075358980
       6       -0.000009222259    -0.000023653918    -0.000009868151
       7       -0.000020599691     0.000008962128     0.000000116049
       8        0.000022110775     0.000048960897    -0.000005638158
       9        0.000004957539     0.000028381836     0.000007358118
      10        0.000037700966    -0.000025544572     0.000010434237
      11       -0.000605236759     0.001749154066    -0.002302884062
      12       -0.000005581727    -0.000032587097    -0.000023438232
      13       -0.000016114518     0.000047673742    -0.000000270695
      14        0.001093369528    -0.003248665569     0.003615555121
      15       -0.000049500092    -0.000008684343     0.000008739946
      16       -0.000000957079     0.000024423447     0.000015782927
      17       -0.002339258212     0.004343988834    -0.003752599958
      18        0.000001535545     0.000008668529     0.000020125058
      19        0.000053211808    -0.000062656333     0.000044681730
      20        0.000130470378    -0.000102341605     0.000021777343
      21        0.001781331657    -0.002740777654     0.002216143496
      22       -0.000122155157    -0.000006204908     0.000093006920
      23       -0.000047241966     0.000010579474    -0.000004156388
      24        0.000028810986    -0.000067275318     0.000010532108
      25        0.000031497183     0.000020766133    -0.000002586243
      26        0.000001207103     0.000000797805     0.000003871643
      27       -0.000004009051     0.000000950233     0.000000944862
      28        0.000001185184     0.000000683434     0.000001949658
      29        0.000004157404    -0.000000747170    -0.000000361174

  **** Optimization is complete! (in 6 steps) ****
    Final optimized geometry and variables:
    Molecular point group: c1

    Geometry (in Angstrom), charge = 0, multiplicity = 1:

    O            3.226577613536     0.935855870608    -0.500633123955
    C            2.694853135051     0.016172169110     0.032774503565
    C            1.237469054561    -0.054448267250     0.419829137333
    O            3.334715931508    -1.097228816670     0.368244578891
    C            0.455334387526     1.202230309084     0.044083441010
    H            0.826947633727    -0.943768945626    -0.046841297206
    H            1.196019423823    -0.235309519531     1.490928848343
    C           -1.001035908484     1.188102093348     0.521107478767
    H            0.488274800860     1.336388159505    -1.032967567210
    H            0.960071781351     2.063420377690     0.468348133963
    C           -1.884755503941     0.123760758843    -0.134886429804
    H           -1.430485067908     2.167229988982     0.321515228447
    H           -1.027149358058     1.062642312612     1.602565775101
    C           -3.353582995146     0.228230105592     0.282028782044
    H           -1.818411548070     0.217575277636    -1.217455108789
    H           -1.516668581486    -0.870828070510     0.108578484519
    C           -4.246946381426    -0.862092387910    -0.337839608105
    H           -3.721307270410     1.208375983858    -0.016636646216
    H           -3.433082134781     0.197997082172     1.366115254272
    C           -5.648560610661    -0.374311936289    -0.697020527152
    H           -3.759899689457    -1.282706317763    -1.214537855452
    H           -4.330108610118    -1.692557219051     0.360071952586
    H           -6.260205777338    -1.181681541854    -1.087902142713
    H           -5.608930951105     0.407576588473    -1.450013318107
    H           -6.154946064288     0.032854253751     0.173803857803
    C            4.715842414116    -1.161467490228     0.062886562763
    H            4.874409078109    -1.068690100798    -1.001897010517
    H            5.049750154577    -2.127644346555     0.407855465254
    H            5.254697953729    -0.375345694355     0.571988791465

  Mulliken Charges: (a.u.)
   Center  Symbol    Alpha    Beta     Spin     Total
       1     O     4.28598  4.28598  0.00000 -0.57195
       2     C     2.60484  2.60484  0.00000  0.79032
       3     C     3.20974  3.20974  0.00000 -0.41949
       4     O     4.30746  4.30746  0.00000 -0.61491
       5     C     3.15368  3.15368  0.00000 -0.30737
       6     H     0.39877  0.39877  0.00000  0.20246
       7     H     0.40123  0.40123  0.00000  0.19755
       8     C     3.15718  3.15718  0.00000 -0.31435
       9     H     0.41312  0.41312  0.00000  0.17376
      10     H     0.40876  0.40876  0.00000  0.18247
      11     C     3.15680  3.15680  0.00000 -0.31360
      12     H     0.41822  0.41822  0.00000  0.16355
      13     H     0.42379  0.42379  0.00000  0.15242
      14     C     3.15265  3.15265  0.00000 -0.30530
      15     H     0.42214  0.42214  0.00000  0.15573
      16     H     0.42344  0.42344  0.00000  0.15312
      17     C     3.15414  3.15414  0.00000 -0.30828
      18     H     0.42230  0.42230  0.00000  0.15540
      19     H     0.42134  0.42134  0.00000  0.15733
      20     C     3.23951  3.23951  0.00000 -0.47901
      21     H     0.42122  0.42122  0.00000  0.15755
      22     H     0.42178  0.42178  0.00000  0.15645
      23     H     0.42002  0.42002  0.00000  0.15997
      24     H     0.42143  0.42143  0.00000  0.15714
      25     H     0.42134  0.42134  0.00000  0.15732
      26     C     3.09240  3.09240  0.00000 -0.18480
      27     H     0.40910  0.40910  0.00000  0.18180
      28     H     0.40852  0.40852  0.00000  0.18297
      29     H     0.40912  0.40912  0.00000  0.18177

   Total alpha = 44.00000, Total beta = 44.00000, Total charge = -0.00000
