  ==> Input File <==

--------------------------------------------------------------------------
set {
	reference rhf
	basis cc-pvtz
}

set_num_threads( 4 )
memory 2 gb

molecule MOL {
0 1

H	 2.614283	 2.028610	 0.296620
O	 3.358864	 1.662087	 -0.142800
C	 3.565468	 0.338079	 0.273842
C	 2.533667	 -0.637565	 -0.272227
H	 4.548038	 0.064914	 -0.086598
H	 3.593945	 0.282242	 1.360360
C	 1.114816	 -0.402372	 0.240993
H	 2.544552	 -0.580764	 -1.356576
H	 2.850574	 -1.642962	 -0.005497
C	 0.113298	 -1.420414	 -0.302504
H	 0.796373	 0.598427	 -0.031033
H	 1.113377	 -0.446476	 1.328807
C	 -1.356301	 -1.018835	 -0.163694
H	 0.334704	 -1.615199	 -1.349053
H	 0.262233	 -2.362511	 0.217825
C	 -1.782905	 0.176840	 -1.013466
H	 -1.970218	 -1.872818	 -0.436359
H	 -1.574452	 -0.812979	 0.881862
C	 -3.276759	 0.475877	 -0.916572
H	 -1.522971	 -0.011915	 -2.052828
H	 -1.228843	 1.062452	 -0.717305
C	 -3.705433	 1.671410	 -1.760865
H	 -3.838914	 -0.401668	 -1.223940
H	 -3.539692	 0.656361	 0.122348
H	 -3.485107	 1.508264	 -2.810663
H	 -4.770184	 1.854216	 -1.671454
H	 -3.188333	 2.574203	 -1.452767

	symmetry c1
}
set optking {
	frozen_dihedral = ("
		14 10 7 4
	")
}

ee = optimize('scf')
oeprop('DIPOLE', 'QUADRUPOLE', 'MULLIKEN_CHARGES')
f=open( 'psi4out.xyz', 'w' )
f.write( "27  " )
f.write( str(ee) + "\n" )
f.write( MOL.save_string_xyz() )
f.close()
--------------------------------------------------------------------------

    Molecular point group: c1
  Charge       = 0
  Multiplicity = 1
  Basis Set: CC-PVTZ
  Basis Set:
  @DF-RHF Final Energy:  -388.42639605558543
    Total Energy =                       -388.4263960555855419
    Molecular point group: c1
  Basis Set: CC-PVTZ
  Basis Set:
  Basis Set: CC-PVTZ
  Basis Set:
  @DF-RHF Final Energy:  -388.42645276126854
    Total Energy =                       -388.4264527612681377
  Basis Set: CC-PVTZ
  Basis Set:
  Basis Set: CC-PVTZ
  Basis Set:
  @DF-RHF Final Energy:  -388.42665962166387
    Total Energy =                       -388.4266596216641574
  Basis Set: CC-PVTZ
  Basis Set:
  Basis Set: CC-PVTZ
  Basis Set:
  @DF-RHF Final Energy:  -388.42667767283035
    Total Energy =                       -388.4266776728300101
  Basis Set: CC-PVTZ
  Basis Set:
  Basis Set: CC-PVTZ
  Basis Set:
  @DF-RHF Final Energy:  -388.42668487526049
    Total Energy =                       -388.4266848752603210
  Basis Set: CC-PVTZ
  Basis Set:
  Charge       = 0
  Multiplicity = 1
  Basis Set: CC-PVTZ
  Basis Set:

    Orbital Energies (a.u.)
    -----------------------

    Doubly Occupied:

       1A    -20.545420     2A    -11.264963     3A    -11.216635
       4A    -11.214563     5A    -11.213551     6A    -11.213406
       7A    -11.213291     8A    -11.211403     9A    -11.206781
      10A     -1.363279    11A     -1.095703    12A     -1.062295
      13A     -1.012319    14A     -0.949392    15A     -0.888170
      16A     -0.820839    17A     -0.799933    18A     -0.780429
      19A     -0.696936    20A     -0.647557    21A     -0.640958
      22A     -0.616041    23A     -0.605116    24A     -0.582445
      25A     -0.580053    26A     -0.554396    27A     -0.540986
      28A     -0.529957    29A     -0.506482    30A     -0.496030
      31A     -0.484148    32A     -0.473890    33A     -0.470345
      34A     -0.461032    35A     -0.451573    36A     -0.442175
      37A     -0.425779

  @DF-RHF Final Energy:  -388.42668560876422

   => Energetics <=

    Nuclear Repulsion Energy =            460.8354548110592646
    One-Electron Energy =               -1439.9677356252182108
    Two-Electron Energy =                 590.7055952053945020
    DFT Exchange-Correlation Energy =       0.0000000000000000
    Empirical Dispersion Energy =           0.0000000000000000
    PCM Polarization Energy =               0.0000000000000000
    EFP Energy =                            0.0000000000000000
    Total Energy =                       -388.4266856087645010
    Molecular point group: c1
  Basis Set: CC-PVTZ
  Basis Set:

  -Total Gradient:
     Atom            X                  Y                   Z
    ------   -----------------  -----------------  -----------------
       1        0.000006421487    -0.000001937965     0.000000571325
       2        0.000017818042     0.000008004881    -0.000006398967
       3       -0.000014608859    -0.000000292894     0.000027185090
       4       -0.000393836676     0.001348743073    -0.001705758638
       5       -0.000000230171     0.000001579806     0.000002001183
       6        0.000002797072     0.000003855182     0.000001426355
       7        0.000947437536    -0.002434544490     0.002483300140
       8       -0.000010899514    -0.000001707756    -0.000006716300
       9        0.000000981035     0.000008378810    -0.000003480413
      10       -0.002398644560     0.003372088025    -0.001527816894
      11       -0.000016642089     0.000001279138    -0.000006481694
      12        0.000002203522    -0.000013688982     0.000007243941
      13        0.000025332042     0.000012079251    -0.000017898827
      14        0.001819422512    -0.002268355384     0.000732977544
      15       -0.000008200590    -0.000015017770     0.000023229624
      16        0.000004133817    -0.000008199629     0.000002898879
      17        0.000003433703     0.000006371857    -0.000008006795
      18        0.000008771016    -0.000004031168     0.000004220899
      19       -0.000015240407    -0.000011775218    -0.000010149860
      20        0.000003228129    -0.000007473200     0.000001900763
      21        0.000008729214    -0.000002392766    -0.000004752604
      22        0.000007849350     0.000011370753     0.000014550806
      23        0.000001180778    -0.000004492549    -0.000006266097
      24       -0.000003358142    -0.000004337540    -0.000002632681
      25       -0.000002732005    -0.000005233569     0.000005454085
      26        0.000001746088     0.000003381628     0.000005372202
      27        0.000002907678     0.000006348482    -0.000005973064

  **** Optimization is complete! (in 6 steps) ****
    Final optimized geometry and variables:
    Molecular point group: c1

    Geometry (in Angstrom), charge = 0, multiplicity = 1:

    H            2.574925299643     1.852185651525     0.940281421047
    O            3.312016459982     1.512148270276     0.468320456772
    C            3.493574870772     0.152728752286     0.765586516807
    C            2.441583755852    -0.750204194188     0.139405109872
    H            4.470044807588    -0.106474034918     0.379194111525
    H            3.522618548719     0.000744599067     1.842758770439
    C            1.024487800426    -0.516527415247     0.658056092969
    H            2.459461420879    -0.610033090793    -0.936838841308
    H            2.732196545859    -1.781355249850     0.328389635834
    C            0.010523908140    -1.512466601880     0.089881401026
    H            0.722750242506     0.493884721684     0.402423594477
    H            1.013041708444    -0.577736682360     1.744137774307
    C           -1.455935118793    -1.117297329342     0.269021860765
    H            0.223768892604    -1.687602493212    -0.961519926194
    H            0.172409989982    -2.470937032544     0.576018315162
    C           -1.929523752118     0.017117052638    -0.638010404423
    H           -2.074708066503    -1.989551402849     0.078567610006
    H           -1.629606388997    -0.846854278637     1.308345143880
    C           -3.404315575370     0.361095971952    -0.446035065373
    H           -1.760449813839    -0.263917725492    -1.674938303479
    H           -1.335889075028     0.909722989300    -0.465559200657
    C           -3.881212454257     1.487194629997    -1.357196527445
    H           -4.005998139165    -0.525801195808    -0.625106165044
    H           -3.575602496786     0.639937344813     0.590226685885
    H           -3.755978121009     1.224445382657    -2.402367874511
    H           -4.930393973985     1.706309166358    -1.195184363215
    H           -3.321707238583     2.399443355244    -1.178304726772

  Mulliken Charges: (a.u.)
   Center  Symbol    Alpha    Beta     Spin     Total
       1     H     0.39216  0.39216  0.00000  0.21569
       2     O     4.20564  4.20564  0.00000 -0.41127
       3     C     2.97948  2.97948  0.00000  0.04104
       4     C     3.08976  3.08976  0.00000 -0.17951
       5     H     0.44903  0.44903  0.00000  0.10194
       6     H     0.46937  0.46937  0.00000  0.06125
       7     C     3.10230  3.10230  0.00000 -0.20459
       8     H     0.45049  0.45049  0.00000  0.09902
       9     H     0.45542  0.45542  0.00000  0.08917
      10     C     3.10075  3.10075  0.00000 -0.20149
      11     H     0.45681  0.45681  0.00000  0.08638
      12     H     0.45169  0.45169  0.00000  0.09661
      13     C     3.09810  3.09810  0.00000 -0.19620
      14     H     0.45250  0.45250  0.00000  0.09500
      15     H     0.44764  0.44764  0.00000  0.10473
      16     C     3.08657  3.08657  0.00000 -0.17314
      17     H     0.44741  0.44741  0.00000  0.10519
      18     H     0.45467  0.45467  0.00000  0.09066
      19     C     3.08462  3.08462  0.00000 -0.16924
      20     H     0.45437  0.45437  0.00000  0.09126
      21     H     0.45434  0.45434  0.00000  0.09132
      22     C     3.14951  3.14951  0.00000 -0.29903
      23     H     0.45393  0.45393  0.00000  0.09214
      24     H     0.45471  0.45471  0.00000  0.09057
      25     H     0.45488  0.45488  0.00000  0.09024
      26     H     0.44841  0.44841  0.00000  0.10318
      27     H     0.45546  0.45546  0.00000  0.08909

   Total alpha = 37.00000, Total beta = 37.00000, Total charge = -0.00000
