  ==> Input File <==

--------------------------------------------------------------------------
set {
	reference rhf
	basis 6-31G*
}

set_num_threads( 1 )
memory 2 gb

molecule MOL {
0 1

H	 -2.646374	 -0.642757	 1.268656
C	 -2.083525	 -0.384536	 0.393091
O	 -0.807605	 -0.127164	 0.768327
F	 -2.118945	 -1.383102	 -0.486752
F	 -2.621877	 0.670592	 -0.209486
C	 0.084052	 0.273579	 -0.209957
C	 -0.656371	 1.251762	 -1.112781
Cl	 0.666450	 -1.116190	 -1.140853
H	 0.943277	 0.775263	 0.199701
F	 0.138432	 1.688795	 -2.066421
F	 -1.039359	 2.287239	 -0.392679
F	 -1.717479	 0.712458	 -1.661574

	symmetry c1
}
set optking {
	frozen_dihedral = ("
		10 7 6 9,
		6 3 2 4
	")
}

ee = energy('scf')
oeprop('DIPOLE', 'QUADRUPOLE', 'MULLIKEN_CHARGES')
f=open( 'psi4out.xyz', 'w' )
f.write( "12  " )
f.write( str(ee) + "\n" )
f.write( MOL.save_string_xyz() )
f.close()
--------------------------------------------------------------------------

    Molecular point group: c1

    Geometry (in Angstrom), charge = 0, multiplicity = 1:

       Center              X                  Y                   Z               Mass
    ------------   -----------------  -----------------  -----------------  -----------------
           H         -1.760297771681    -0.905268685636     1.968735065611     1.007825032070
           C         -1.197448771681    -0.647047685636     1.093170065611    12.000000000000
           O          0.078471228319    -0.389675685636     1.468406065611    15.994914619560
           F         -1.232868771681    -1.645613685636     0.213327065611    18.998403224000
           F         -1.735800771681     0.408080314364     0.490593065611    18.998403224000
           C          0.970128228319     0.011067314364     0.490122065611    12.000000000000
           C          0.229705228319     0.989250314364    -0.412701934389    12.000000000000
          CL          1.552526228319    -1.378701685636    -0.440773934389    34.968852682000
           H          1.829353228319     0.512751314364     0.899780065611     1.007825032070
           F          1.024508228319     1.426283314364    -1.366341934389    18.998403224000
           F         -0.153282771681     2.024727314364     0.307400065611    18.998403224000
           F         -0.831402771681     0.449946314364    -0.961494934389    18.998403224000

  Charge       = 0
  Multiplicity = 1
  Basis Set: 6-31G*
  Basis Set:

    Orbital Energies (a.u.)
    -----------------------

    Doubly Occupied:

       1A   -104.839599     2A    -26.354992     3A    -26.352865
       4A    -26.331830     5A    -26.329319     6A    -26.313515
       7A    -20.647366     8A    -11.521295     9A    -11.480920
      10A    -11.400920    11A    -10.574574    12A     -8.043932
      13A     -8.040393    14A     -8.040264    15A     -1.771535
      16A     -1.712107    17A     -1.656577    18A     -1.652842
      19A     -1.614923    20A     -1.486088    21A     -1.175868
      22A     -1.044649    23A     -0.997856    24A     -0.915767
      25A     -0.882147    26A     -0.854684    27A     -0.835086
      28A     -0.826269    29A     -0.807776    30A     -0.749484
      31A     -0.746153    32A     -0.720275    33A     -0.698731
      34A     -0.697230    35A     -0.678472    36A     -0.667025
      37A     -0.658173    38A     -0.650178    39A     -0.632770
      40A     -0.619601    41A     -0.563584    42A     -0.540791
      43A     -0.520518    44A     -0.472351    45A     -0.464517

  @DF-RHF Final Energy: -1146.19906583872876

   => Energetics <=

    Nuclear Repulsion Energy =            796.9897358937816989
    One-Electron Energy =               -3177.2056580900643894
    Two-Electron Energy =                1234.0168563575498411
    DFT Exchange-Correlation Energy =       0.0000000000000000
    Empirical Dispersion Energy =           0.0000000000000000
    PCM Polarization Energy =               0.0000000000000000
    EFP Energy =                            0.0000000000000000
    Total Energy =                      -1146.1990658387330768

  Mulliken Charges: (a.u.)
   Center  Symbol    Alpha    Beta     Spin     Total
       1     H     0.39832  0.39832  0.00000  0.20335
       2     C     2.55647  2.55647  0.00000  0.88706
       3     O     4.30605  4.30605  0.00000 -0.61211
       4     F     4.68800  4.68800  0.00000 -0.37601
       5     F     4.68449  4.68449  0.00000 -0.36898
       6     C     3.02822  3.02822  0.00000 -0.05643
       7     C     2.45502  2.45502  0.00000  1.08996
       8    CL     8.50046  8.50046  0.00000 -0.00091
       9     H     0.36236  0.36236  0.00000  0.27529
      10     F     4.67510  4.67510  0.00000 -0.35021
      11     F     4.67873  4.67873  0.00000 -0.35745
      12     F     4.66678  4.66678  0.00000 -0.33356

   Total alpha = 45.00000, Total beta = 45.00000, Total charge =  0.00000
