                              Psi4 1.0.54 Driver

  ==> Input File <==

--------------------------------------------------------------------------
set {
	reference rhf
	basis cc-pvtz
}

set_num_threads( 4 )
memory 2 gb

molecule MOL {
0 1

H	 3.145548	 0.955964	 -1.164083
O	 2.221410	 0.821867	 -1.016836
C	 2.076458	 -0.067370	 -0.038225
C	 0.626018	 -0.337582	 0.258241
O	 3.003730	 -0.560359	 0.504888
C	 -0.267326	 0.883135	 0.076490
H	 0.325620	 -1.161483	 -0.378003
H	 0.574537	 -0.713685	 1.275261
C	 -1.726822	 0.642622	 0.463839
H	 -0.210803	 1.217591	 -0.953497
H	 0.129920	 1.693110	 0.675679
C	 -2.480891	 -0.340606	 -0.429852
H	 -2.243098	 1.597649	 0.438609
H	 -1.776542	 0.301208	 1.495542
C	 -3.955933	 -0.460128	 -0.060472
H	 -2.393755	 -0.020485	 -1.464726
H	 -2.024244	 -1.323637	 -0.374360
H	 -4.467673	 -1.160944	 -0.709827
H	 -4.458917	 0.497287	 -0.144505
H	 -4.076458	 -0.806900	 0.960497

	symmetry c1
}
set optking {
	frozen_dihedral = ("
		5 3 4 7
	")
}

ee,wfn = optimize('scf', return_wfn=True)
oeprop( wfn, 'DIPOLE', 'QUADRUPOLE', 'MULLIKEN_CHARGES')
f=open( 'psi4out.xyz', 'w' )
f.write( "20  " )
f.write( str(ee) + "\n" )
f.write( MOL.save_string_xyz() )
f.close()
--------------------------------------------------------------------------

    Molecular point group: c1
  Charge       = 0
  Multiplicity = 1
  Basis Set: CC-PVTZ
  Basis Set:
  @DF-RHF Final Energy:  -384.09227106040322
    Total Energy =                       -384.0922710604030499
    Molecular point group: c1
  Basis Set: CC-PVTZ
  Basis Set:
  Basis Set: CC-PVTZ
  Basis Set:
  @DF-RHF Final Energy:  -384.09133112758980
    Total Energy =                       -384.0913311275895694
  Basis Set: CC-PVTZ
  Basis Set:
  Basis Set: CC-PVTZ
  Basis Set:
  @DF-RHF Final Energy:  -384.09241874934281
    Total Energy =                       -384.0924187493430395
  Basis Set: CC-PVTZ
  Basis Set:
  Basis Set: CC-PVTZ
  Basis Set:
  @DF-RHF Final Energy:  -384.09296478176151
    Total Energy =                       -384.0929647817615091
  Basis Set: CC-PVTZ
  Basis Set:
  Basis Set: CC-PVTZ
  Basis Set:
  @DF-RHF Final Energy:  -384.09297519054672
    Total Energy =                       -384.0929751905468947
  Basis Set: CC-PVTZ
  Basis Set:
  Basis Set: CC-PVTZ
  Basis Set:
  @DF-RHF Final Energy:  -384.09297673988061
    Total Energy =                       -384.0929767398807257
  Basis Set: CC-PVTZ
  Basis Set:
  Charge       = 0
  Multiplicity = 1
  Basis Set: CC-PVTZ
  Basis Set:

    Orbital Energies (a.u.)
    -----------------------

    Doubly Occupied:

       1A    -20.605343     2A    -20.537406     3A    -11.373042
       4A    -11.238303     5A    -11.227148     6A    -11.221316
       7A    -11.220189     8A    -11.211891     9A     -1.477832
      10A     -1.367436    11A     -1.100113    12A     -1.043121
      13A     -0.961511    14A     -0.864120    15A     -0.827758
      16A     -0.792627    17A     -0.703118    18A     -0.684836
      19A     -0.663685    20A     -0.632986    21A     -0.610379
      22A     -0.593704    23A     -0.577730    24A     -0.552457
      25A     -0.550733    26A     -0.519841    27A     -0.500611
      28A     -0.484616    29A     -0.478935    30A     -0.471275
      31A     -0.459223    32A     -0.436846

  @DF-RHF Final Energy:  -384.09297685655508

   => Energetics <=

    Nuclear Repulsion Energy =            377.2340507782936356
    One-Electron Energy =               -1270.6737891316281548
    Two-Electron Energy =                 509.3467614967790382
    DFT Exchange-Correlation Energy =       0.0000000000000000
    Empirical Dispersion Energy =           0.0000000000000000
    PCM Polarization Energy =               0.0000000000000000
    EFP Energy =                            0.0000000000000000
    Total Energy =                       -384.0929768565554809
    Molecular point group: c1
  Basis Set: CC-PVTZ
  Basis Set:

  -Total Gradient:
     Atom            X                  Y                   Z
    ------   -----------------  -----------------  -----------------
       1       -0.000011213818    -0.000008100991     0.000007797967
       2       -0.000012479919     0.000000245513     0.000008489741
       3        0.000090652660     0.000973489250     0.001137344514
       4       -0.000275677865     0.000435090262    -0.001134424069
       5       -0.000011009429    -0.000764379300    -0.000694849162
       6       -0.000008521159     0.000000992618    -0.000009181512
       7        0.000215594073    -0.000647219311     0.000682969675
       8        0.000008236529     0.000010540947    -0.000012730871
       9       -0.000007926909     0.000011670862    -0.000004596633
      10        0.000006748131    -0.000000314904     0.000001124446
      11        0.000000360224     0.000000827074     0.000004193989
      12        0.000012196159    -0.000019351608     0.000019768002
      13       -0.000002901920     0.000001776700     0.000001851241
      14       -0.000002656319    -0.000002537345    -0.000002329836
      15       -0.000004225789     0.000010473077    -0.000007702429
      16        0.000001563633     0.000001772295     0.000004358532
      17        0.000004472081    -0.000007945052    -0.000002804975
      18       -0.000001323312     0.000002835917    -0.000003741269
      19       -0.000004597131     0.000004046896     0.000004098445
      20        0.000002710092    -0.000003912902     0.000000364201

  **** Optimization is complete! (in 7 steps) ****
    Final optimized geometry and variables:
    Molecular point group: c1

    Geometry (in Angstrom), charge = 0, multiplicity = 1:

    H            3.277391302600     0.728623331716    -1.115870217626
    O            2.341739111028     0.676997703418    -0.990075285055
    C            2.102532076778    -0.172523523596     0.003314099623
    C            0.635534660145    -0.384919467505     0.272315852952
    O            2.976570025317    -0.725819323570     0.577540978798
    C           -0.252680521612     0.844218525698     0.079876840781
    H            0.331287753280    -1.192937863095    -0.385083192792
    H            0.564208450372    -0.764927018833     1.282322477417
    C           -1.705981332327     0.617505299833     0.498513559889
    H           -0.215251756373     1.162188475892    -0.954916208158
    H            0.152984058465     1.662713050494     0.665587194457
    C           -2.476194452690    -0.383692683863    -0.360664048917
    H           -2.219892834163     1.573490113546     0.460465960966
    H           -1.737801416025     0.299250314968     1.537849127618
    C           -3.944415231906    -0.493544307037     0.038101800458
    H           -2.407402969980    -0.086272481431    -1.403714281949
    H           -2.019147386429    -1.365520527375    -0.291557447900
    H           -4.467390331034    -1.209744468788    -0.584877478158
    H           -4.449137787421     0.461639892543    -0.060016173063
    H           -4.046413336507    -0.815674690733     1.069048442023

  Mulliken Charges: (a.u.)
   Center  Symbol    Alpha    Beta     Spin     Total
       1     H     0.38188  0.38188  0.00000  0.23625
       2     O     4.15783  4.15783  0.00000 -0.31565
       3     C     2.81352  2.81352  0.00000  0.37297
       4     C     3.09247  3.09247  0.00000 -0.18493
       5     O     4.19462  4.19462  0.00000 -0.38924
       6     C     3.10245  3.10245  0.00000 -0.20490
       7     H     0.44234  0.44234  0.00000  0.11531
       8     H     0.43453  0.43453  0.00000  0.13093
       9     C     3.09819  3.09819  0.00000 -0.19639
      10     H     0.44240  0.44240  0.00000  0.11519
      11     H     0.44289  0.44289  0.00000  0.11422
      12     C     3.08756  3.08756  0.00000 -0.17511
      13     H     0.44604  0.44604  0.00000  0.10793
      14     H     0.45222  0.45222  0.00000  0.09557
      15     C     3.14967  3.14967  0.00000 -0.29935
      16     H     0.45251  0.45251  0.00000  0.09499
      17     H     0.45341  0.45341  0.00000  0.09319
      18     H     0.44742  0.44742  0.00000  0.10516
      19     H     0.45382  0.45382  0.00000  0.09235
      20     H     0.45424  0.45424  0.00000  0.09152

   Total alpha = 32.00000, Total beta = 32.00000, Total charge =  0.00000

*** Psi4 exiting successfully. Buy a developer a beer!
