  ==> Input File <==

--------------------------------------------------------------------------
set {
	reference rhf
	basis 6-31G*
}

set_num_threads( 1 )
memory 2 gb

molecule MOL {
0 1

O	 1.167274	 1.437346	 0.089575
C	 -0.007803	 1.323301	 0.225433
C	 -0.971829	 2.466174	 0.395260
O	 -0.632575	 0.154573	 0.251549
H	 -1.496415	 2.365724	 1.338482
H	 -0.433284	 3.401658	 0.369293
H	 -1.711948	 2.441510	 -0.396176
C	 0.160891	 -1.019931	 0.106212
C	 1.589627	 -0.672828	 0.480843
H	 0.089836	 -1.367806	 -0.916050
H	 -0.238459	 -1.792301	 0.749618
C	 2.246377	 0.346236	 -0.452210
H	 2.163194	 -1.597435	 0.473358
H	 1.604769	 -0.303424	 1.502885
C	 3.691736	 0.652107	 -0.061850
H	 2.219579	 -0.032311	 -1.472055
H	 1.666466	 1.263317	 -0.447249
H	 4.134505	 1.377213	 -0.737283
H	 4.305508	 -0.243868	 -0.089969
H	 3.748266	 1.059562	 0.943567

	symmetry c1
}
set optking {
	frozen_dihedral = ("
		16 12 9 8,
		12 9 8 10,
		1 2 4 8
	")
}

ee = energy('scf')
oeprop('DIPOLE', 'QUADRUPOLE', 'MULLIKEN_CHARGES')
f=open( 'psi4out.xyz', 'w' )
f.write( "20  " )
f.write( str(ee) + "\n" )
f.write( MOL.save_string_xyz() )
f.close()
--------------------------------------------------------------------------

    Molecular point group: c1

    Geometry (in Angstrom), charge = 0, multiplicity = 1:

       Center              X                  Y                   Z               Mass
    ------------   -----------------  -----------------  -----------------  -----------------
           O          0.260703563808     0.840995584990    -0.040583145248    15.994914619560
           C         -0.914373436192     0.726950584990     0.095274854752    12.000000000000
           C         -1.878399436192     1.869823584990     0.265101854752    12.000000000000
           O         -1.539145436192    -0.441777415010     0.121390854752    15.994914619560
           H         -2.402985436192     1.769373584990     1.208323854752     1.007825032070
           H         -1.339854436192     2.805307584990     0.239134854752     1.007825032070
           H         -2.618518436192     1.845159584990    -0.526334145248     1.007825032070
           C         -0.745679436192    -1.616281415010    -0.023946145248    12.000000000000
           C          0.683056563808    -1.269178415010     0.350684854752    12.000000000000
           H         -0.816734436192    -1.964156415010    -1.046208145248     1.007825032070
           H         -1.145029436192    -2.388651415010     0.619459854752     1.007825032070
           C          1.339806563808    -0.250114415010    -0.582368145248    12.000000000000
           H          1.256623563808    -2.193785415010     0.343199854752     1.007825032070
           H          0.698198563808    -0.899774415010     1.372726854752     1.007825032070
           C          2.785165563808     0.055756584990    -0.192008145248    12.000000000000
           H          1.313008563808    -0.628661415010    -1.602213145248     1.007825032070
           H          0.759895563808     0.666966584990    -0.577407145248     1.007825032070
           H          3.227934563808     0.780862584990    -0.867441145248     1.007825032070
           H          3.398937563808    -0.840218415010    -0.220127145248     1.007825032070
           H          2.841695563808     0.463211584990     0.813408854752     1.007825032070

  Charge       = 0
  Multiplicity = 1
  Basis Set: 6-31G*
  Basis Set:

    Orbital Energies (a.u.)
    -----------------------

    Doubly Occupied:

       1A    -20.607453     2A    -20.588590     3A    -11.358377
       4A    -11.286461     5A    -11.232391     6A    -11.210542
       7A    -11.196811     8A    -11.169935     9A     -1.596220
      10A     -1.430348    11A     -1.139091    12A     -1.026573
      13A     -1.005688    14A     -0.948068    15A     -0.892455
      16A     -0.759500    17A     -0.743623    18A     -0.722105
      19A     -0.686334    20A     -0.644434    21A     -0.615873
      22A     -0.593406    23A     -0.566714    24A     -0.564177
      25A     -0.544454    26A     -0.542852    27A     -0.527151
      28A     -0.492443    29A     -0.476946    30A     -0.455425
      31A     -0.436951    32A     -0.158605

  @DF-RHF Final Energy:  -383.36221575971985

   => Energetics <=

    Nuclear Repulsion Energy =            428.5970593429615860
    One-Electron Energy =               -1371.4789476384471527
    Two-Electron Energy =                 559.5196725357652667
    DFT Exchange-Correlation Energy =       0.0000000000000000
    Empirical Dispersion Energy =           0.0000000000000000
    PCM Polarization Energy =               0.0000000000000000
    EFP Energy =                            0.0000000000000000
    Total Energy =                       -383.3622157597203568

  Mulliken Charges: (a.u.)
   Center  Symbol    Alpha    Beta     Spin     Total
       1     O     4.17748  4.17748  0.00000 -0.35496
       2     C     2.69104  2.69104  0.00000  0.61793
       3     C     3.26351  3.26351  0.00000 -0.52702
       4     O     4.30499  4.30499  0.00000 -0.60997
       5     H     0.39918  0.39918  0.00000  0.20164
       6     H     0.40590  0.40590  0.00000  0.18820
       7     H     0.41122  0.41122  0.00000  0.17756
       8     C     2.99839  2.99839  0.00000  0.00321
       9     C     3.19087  3.19087  0.00000 -0.38174
      10     H     0.41251  0.41251  0.00000  0.17499
      11     H     0.40894  0.40894  0.00000  0.18212
      12     C     3.19697  3.19697  0.00000 -0.39393
      13     H     0.41346  0.41346  0.00000  0.17307
      14     H     0.41686  0.41686  0.00000  0.16628
      15     C     3.22749  3.22749  0.00000 -0.45498
      16     H     0.45504  0.45504  0.00000  0.08992
      17     H     0.35250  0.35250  0.00000  0.29500
      18     H     0.42168  0.42168  0.00000  0.15665
      19     H     0.42167  0.42167  0.00000  0.15667
      20     H     0.43031  0.43031  0.00000  0.13938

   Total alpha = 32.00000, Total beta = 32.00000, Total charge =  0.00000
