  ==> Input File <==

--------------------------------------------------------------------------
set {
	reference rhf
	basis 6-31G*
}

set_num_threads( 4 )
memory 2 gb

molecule MOL {
0 1

H	 -1.340386	 1.226751	 0.504731
C	 -0.790252	 0.431209	 0.000000
N	 0.538815	 0.649616	 0.000000
O	 -1.343635	 -0.511007	 -0.484981
C	 1.521968	 -0.411503	 0.000000
H	 0.852804	 1.592852	 0.000000
H	 2.150599	 -0.357004	 -0.881901
H	 0.999455	 -1.354525	 0.000000
H	 2.150599	 -0.357004	 0.881901

	symmetry c1
}
set optking {
	frozen_dihedral = ("
		1 2 3 6
	")
}

ee = optimize('scf')
oeprop('DIPOLE', 'QUADRUPOLE', 'MULLIKEN_CHARGES')
f=open( 'psi4out.xyz', 'w' )
f.write( "9  " )
f.write( str(ee) + "\n" )
f.write( MOL.save_string_xyz() )
f.close()
--------------------------------------------------------------------------

    Molecular point group: c1
  Charge       = 0
  Multiplicity = 1
  Basis Set: 6-31G*
  Basis Set:
  @DF-RHF Final Energy:  -207.95098830219416
    Total Energy =                       -207.9509883021941903
    Molecular point group: c1
  Basis Set: 6-31G*
  Basis Set:
  Basis Set: 6-31G*
  Basis Set:
  @DF-RHF Final Energy:  -207.95418296864324
    Total Energy =                       -207.9541829686431242
  Basis Set: 6-31G*
  Basis Set:
  Basis Set: 6-31G*
  Basis Set:
  @DF-RHF Final Energy:  -207.95796441943361
    Total Energy =                       -207.9579644194336083
  Basis Set: 6-31G*
  Basis Set:
  Basis Set: 6-31G*
  Basis Set:
  @DF-RHF Final Energy:  -207.95871033444985
    Total Energy =                       -207.9587103344497905
  Basis Set: 6-31G*
  Basis Set:
  @DF-RHF Final Energy:  -207.95893971818646
    Total Energy =                       -207.9589397181865706
  @DF-RHF Final Energy:  -207.95928659289393
    Total Energy =                       -207.9592865928939318
  @DF-RHF Final Energy:  -207.95946853555867
    Total Energy =                       -207.9594685355587274
  Basis Set: 6-31G*
  Basis Set:
  @DF-RHF Final Energy:  -207.95957923705768
    Total Energy =                       -207.9595792370577669
  Basis Set: 6-31G*
  Basis Set:
  Basis Set: 6-31G*
  Basis Set:
  @DF-RHF Final Energy:  -207.95959176176115
    Total Energy =                       -207.9595917617612031
  Basis Set: 6-31G*
  Basis Set:
  Basis Set: 6-31G*
  Basis Set:
  @DF-RHF Final Energy:  -207.95959873685774
    Total Energy =                       -207.9595987368577426
  Basis Set: 6-31G*
  Basis Set:
  Charge       = 0
  Multiplicity = 1
  Basis Set: 6-31G*
  Basis Set:

    Orbital Energies (a.u.)
    -----------------------

    Doubly Occupied:

       1A    -20.534061     2A    -15.589308     3A    -11.345416
       4A    -11.258676     5A     -1.395660     6A     -1.235710
       7A     -0.964026     8A     -0.806153     9A     -0.743931
      10A     -0.643757    11A     -0.630957    12A     -0.587750
      13A     -0.554132    14A     -0.534488    15A     -0.429313
      16A     -0.397425

  @DF-RHF Final Energy:  -207.95959968620366

   => Energetics <=

    Nuclear Repulsion Energy =            122.7457463214969238
    One-Electron Energy =                -526.1091650840519378
    Two-Electron Energy =                 195.4038190763513967
    DFT Exchange-Correlation Energy =       0.0000000000000000
    Empirical Dispersion Energy =           0.0000000000000000
    PCM Polarization Energy =               0.0000000000000000
    EFP Energy =                            0.0000000000000000
    Total Energy =                       -207.9595996862036031
    Molecular point group: c1
  Basis Set: 6-31G*
  Basis Set:

  -Total Gradient:
     Atom            X                  Y                   Z
    ------   -----------------  -----------------  -----------------
       1       -0.001043188638    -0.001840755115     0.003690768625
       2        0.001854930660     0.002298013233    -0.006218184723
       3       -0.002324522289    -0.000114898408     0.006993215127
       4       -0.000008413308    -0.000004070203    -0.000001066034
       5       -0.000001687357    -0.000023904403     0.000028504611
       6        0.001520576352    -0.000326016202    -0.004495085387
       7        0.000016703172     0.000021041922     0.000000771944
       8       -0.000009125593     0.000003544026    -0.000014598289
       9       -0.000005272998    -0.000012954851     0.000015674129

  **** Optimization is complete! (in 11 steps) ****
    Final optimized geometry and variables:
    Molecular point group: c1

    Geometry (in Angstrom), charge = 0, multiplicity = 1:

    H           -1.405889031146     1.301149217384     0.259680820218
    C           -0.785358761438     0.440642272085     0.005296899898
    N            0.495422191129     0.572098877983     0.433483220883
    O           -1.236266922455    -0.532114248448    -0.518666662058
    C            1.469461117570    -0.453176465321     0.108555815628
    H            0.841557251753     1.505386396786     0.480015512919
    H            1.713181985786    -0.473599567759    -0.949091377260
    H            1.071447604673    -1.417754135210     0.384604997260
    H            2.371096374287    -0.269842349808     0.677813875504

  Mulliken Charges: (a.u.)
   Center  Symbol    Alpha    Beta     Spin     Total
       1     H     0.42424  0.42424  0.00000  0.15153
       2     C     2.75348  2.75348  0.00000  0.49304
       3     N     3.86600  3.86600  0.00000 -0.73201
       4     O     4.27566  4.27566  0.00000 -0.55133
       5     C     3.14483  3.14483  0.00000 -0.28966
       6     H     0.31288  0.31288  0.00000  0.37424
       7     H     0.41316  0.41316  0.00000  0.17369
       8     H     0.39577  0.39577  0.00000  0.20846
       9     H     0.41398  0.41398  0.00000  0.17203

   Total alpha = 16.00000, Total beta = 16.00000, Total charge =  0.00000
