  ==> Input File <==

--------------------------------------------------------------------------
set {
	reference rhf
	basis 6-31G*
}

set_num_threads( 4 )
memory 2 gb

molecule MOL {
0 1

H	 0.235385	 -1.500311	 -0.719872
C	 -0.743457	 -1.519802	 -0.244867
O	 -1.392607	 -0.295399	 -0.366433
H	 -1.355856	 -2.263709	 -0.735490
H	 -0.614808	 -1.803262	 0.798938
C	 -0.719715	 0.768384	 0.229244
C	 0.719720	 0.768376	 -0.229267
H	 -1.185038	 1.714362	 -0.050570
H	 -0.750528	 0.687237	 1.313896
O	 1.392611	 -0.295398	 0.366430
H	 0.750534	 0.687200	 -1.313918
H	 1.185043	 1.714359	 0.050526
C	 2.706965	 -0.449871	 -0.062409
H	 2.756559	 -0.644779	 -1.131878
H	 3.305899	 0.433456	 0.155466
H	 3.125548	 -1.294566	 0.467107

	symmetry c1
}
set optking {
	frozen_dihedral = ("
		2 3 6 7
	")
}

ee = optimize('scf')
oeprop('DIPOLE', 'QUADRUPOLE', 'MULLIKEN_CHARGES')
f=open( 'psi4out.xyz', 'w' )
f.write( "16  " )
f.write( str(ee) + "\n" )
f.write( MOL.save_string_xyz() )
f.close()
--------------------------------------------------------------------------

    Molecular point group: c1
  Charge       = 0
  Multiplicity = 1
  Basis Set: 6-31G*
  Basis Set:
  @DF-RHF Final Energy:  -306.96142213165882
    Total Energy =                       -306.9614221316591056
    Molecular point group: c1
  Basis Set: 6-31G*
  Basis Set:
  Basis Set: 6-31G*
  Basis Set:
  @DF-RHF Final Energy:  -306.97083627435336
    Total Energy =                       -306.9708362743532462
  Basis Set: 6-31G*
  Basis Set:
  Basis Set: 6-31G*
  Basis Set:
  @DF-RHF Final Energy:  -306.97361247198819
    Total Energy =                       -306.9736124719881332
  Basis Set: 6-31G*
  Basis Set:
  Basis Set: 6-31G*
  Basis Set:
  @DF-RHF Final Energy:  -306.97451644726868
    Total Energy =                       -306.9745164472689112
  Basis Set: 6-31G*
  Basis Set:
  @DF-RHF Final Energy:  -306.97492665492751
    Total Energy =                       -306.9749266549275148
  Basis Set: 6-31G*
  Basis Set:
  @DF-RHF Final Energy:  -306.97500540936676
    Total Energy =                       -306.9750054093667586
  Basis Set: 6-31G*
  Basis Set:
  Basis Set: 6-31G*
  Basis Set:
  @DF-RHF Final Energy:  -306.97501146067498
    Total Energy =                       -306.9750114606750913
  Basis Set: 6-31G*
  Basis Set:
  Basis Set: 6-31G*
  Basis Set:
  @DF-RHF Final Energy:  -306.97501255793105
    Total Energy =                       -306.9750125579311657
  Basis Set: 6-31G*
  Basis Set:
  Charge       = 0
  Multiplicity = 1
  Basis Set: 6-31G*
  Basis Set:

    Orbital Energies (a.u.)
    -----------------------

    Doubly Occupied:

       1A    -20.563802     2A    -20.549039     3A    -11.273955
       4A    -11.271794     5A    -11.268184     6A    -11.254171
       7A     -1.391716     8A     -1.366957     9A     -1.028358
      10A     -0.948863    11A     -0.893203    12A     -0.817082
      13A     -0.692457    14A     -0.680891    15A     -0.656084
      16A     -0.633362    17A     -0.626499    18A     -0.595415
      19A     -0.554173    20A     -0.537504    21A     -0.519232
      22A     -0.489048    23A     -0.453666    24A     -0.424439
      25A     -0.404887

  @DF-RHF Final Energy:  -306.97501265072896

   => Energetics <=

    Nuclear Repulsion Energy =            264.7830933406276586
    One-Electron Energy =                -943.7266514652283149
    Two-Electron Energy =                 371.9685454738716999
    DFT Exchange-Correlation Energy =       0.0000000000000000
    Empirical Dispersion Energy =           0.0000000000000000
    PCM Polarization Energy =               0.0000000000000000
    EFP Energy =                            0.0000000000000000
    Total Energy =                       -306.9750126507290133
    Molecular point group: c1
  Basis Set: 6-31G*
  Basis Set:

  -Total Gradient:
     Atom            X                  Y                   Z
    ------   -----------------  -----------------  -----------------
       1        0.000011183253     0.000004001337     0.000000417141
       2        0.001485218614     0.000540532110    -0.003209818482
       3       -0.001783302133    -0.001762977288     0.005860195798
       4        0.000004670012    -0.000005612573     0.000001591671
       5        0.000000626139     0.000001400496     0.000003990999
       6       -0.000560240982     0.003271427787    -0.005042884703
       7        0.000844783978    -0.002046227720     0.002395464403
       8        0.000003029243     0.000002228303     0.000002588610
       9        0.000001864005    -0.000006634882     0.000000062272
      10       -0.000018869207    -0.000006080479    -0.000007775925
      11        0.000001389929    -0.000001845781    -0.000000997678
      12        0.000001724880     0.000001116790     0.000000393824
      13        0.000009303757     0.000010923681    -0.000002399899
      14        0.000002392203    -0.000001016682     0.000001631100
      15        0.000000729688    -0.000001583197    -0.000000667408
      16       -0.000004503376     0.000000348096    -0.000001791722

  **** Optimization is complete! (in 9 steps) ****
    Final optimized geometry and variables:
    Molecular point group: c1

    Geometry (in Angstrom), charge = 0, multiplicity = 1:

    H           -0.521497280912    -1.550559452646    -0.942212692174
    C           -1.361504860419    -1.416210672038    -0.270389050331
    O           -1.832587244308    -0.100375812684    -0.273380315063
    H           -2.181396993766    -2.036779583137    -0.606491600272
    H           -1.058281784596    -1.732541321225     0.723182596715
    C           -1.012054981434     0.886966990772     0.275259847024
    C            0.427221564341     0.911120588037    -0.211816603042
    H           -1.482476223303     1.828091138389     0.019088895584
    H           -0.994043309231     0.802474087603     1.360683738059
    O            1.176437346389    -0.066580827263     0.444639246790
    H            0.459847084173     0.763537935237    -1.290646192401
    H            0.844197963373     1.896477029805    -0.002361783463
    C            2.511585833233    -0.120578123771     0.052019403559
    H            2.606654252239    -0.356174787838    -1.006149728020
    H            3.019547070733     0.823003585119     0.242208145791
    H            2.990718447679    -0.899045442338     0.629377230734

  Mulliken Charges: (a.u.)
   Center  Symbol    Alpha    Beta     Spin     Total
       1     H     0.42720  0.42720  0.00000  0.14560
       2     C     3.07588  3.07588  0.00000 -0.15176
       3     O     4.30982  4.30982  0.00000 -0.61964
       4     H     0.41748  0.41748  0.00000  0.16504
       5     H     0.42426  0.42426  0.00000  0.15148
       6     C     2.99055  2.99055  0.00000  0.01890
       7     C     3.01445  3.01445  0.00000 -0.02889
       8     H     0.41552  0.41552  0.00000  0.16897
       9     H     0.42212  0.42212  0.00000  0.15576
      10     O     4.30422  4.30422  0.00000 -0.60843
      11     H     0.42340  0.42340  0.00000  0.15321
      12     H     0.42697  0.42697  0.00000  0.14605
      13     C     3.08075  3.08075  0.00000 -0.16149
      14     H     0.42836  0.42836  0.00000  0.14329
      15     H     0.42863  0.42863  0.00000  0.14273
      16     H     0.41040  0.41040  0.00000  0.17920

   Total alpha = 25.00000, Total beta = 25.00000, Total charge =  0.00000
