                              Psi4 1.0.54 Driver

  ==> Input File <==

--------------------------------------------------------------------------
set {
	reference rhf
	basis cc-pvtz
}

set_num_threads( 4 )
memory 2 gb

molecule MOL {
0 1

H	 -1.274539	 -1.873685	 1.362135
N	 -0.498138	 -1.252677	 1.277727
C	 -0.561396	 -0.500007	 0.035200
H	 0.330048	 -1.809472	 1.315452
C	 0.575129	 0.507849	 -0.048832
H	 -1.508749	 0.028506	 0.014840
H	 -0.539959	 -1.137606	 -0.849911
C	 1.951750	 -0.141983	 0.035101
H	 0.478254	 1.061643	 -0.975981
H	 0.467676	 1.231891	 0.755499
H	 2.101550	 -0.848142	 -0.774949
H	 2.738260	 0.600794	 -0.026526
H	 2.078939	 -0.679792	 0.968824

	symmetry c1
}
set optking {
	frozen_dihedral = ("
		6 3 5 9
	")
}

ee,wfn = optimize('scf', return_wfn=True)
oeprop( wfn, 'DIPOLE', 'QUADRUPOLE', 'MULLIKEN_CHARGES')
f=open( 'psi4out.xyz', 'w' )
f.write( "13  " )
f.write( str(ee) + "\n" )
f.write( MOL.save_string_xyz() )
f.close()
--------------------------------------------------------------------------

    Molecular point group: c1
  Charge       = 0
  Multiplicity = 1
  Basis Set: CC-PVTZ
  Basis Set:
  @DF-RHF Final Energy:  -173.35088776542858
    Total Energy =                       -173.3508877654284390
    Molecular point group: c1
  Basis Set: CC-PVTZ
  Basis Set:
  Basis Set: CC-PVTZ
  Basis Set:
  @DF-RHF Final Energy:  -173.35130803292790
    Total Energy =                       -173.3513080329279319
  Basis Set: CC-PVTZ
  Basis Set:
  Basis Set: CC-PVTZ
  Basis Set:
  @DF-RHF Final Energy:  -173.35152087217079
    Total Energy =                       -173.3515208721708518
  Basis Set: CC-PVTZ
  Basis Set:
  Basis Set: CC-PVTZ
  Basis Set:
  @DF-RHF Final Energy:  -173.35153548530545
    Total Energy =                       -173.3515354853055328
  Basis Set: CC-PVTZ
  Basis Set:
  Basis Set: CC-PVTZ
  Basis Set:
  @DF-RHF Final Energy:  -173.35153702574630
    Total Energy =                       -173.3515370257463246
  Basis Set: CC-PVTZ
  Basis Set:
  Charge       = 0
  Multiplicity = 1
  Basis Set: CC-PVTZ
  Basis Set:

    Orbital Energies (a.u.)
    -----------------------

    Doubly Occupied:

       1A    -15.526762     2A    -11.238798     3A    -11.209945
       4A    -11.206041     5A     -1.178637     6A     -1.032357
       7A     -0.908643     8A     -0.788264     9A     -0.669997
      10A     -0.642304    11A     -0.572841    12A     -0.563429
      13A     -0.559039    14A     -0.482378    15A     -0.479124
      16A     -0.469458    17A     -0.384058

  @DF-RHF Final Energy:  -173.35153711136149

   => Energetics <=

    Nuclear Repulsion Energy =            134.0067678757364433
    One-Electron Energy =                -498.8924587665354125
    Two-Electron Energy =                 191.5341537794375313
    DFT Exchange-Correlation Energy =       0.0000000000000000
    Empirical Dispersion Energy =           0.0000000000000000
    PCM Polarization Energy =               0.0000000000000000
    EFP Energy =                            0.0000000000000000
    Total Energy =                       -173.3515371113614378
    Molecular point group: c1
  Basis Set: CC-PVTZ
  Basis Set:

  -Total Gradient:
     Atom            X                  Y                   Z
    ------   -----------------  -----------------  -----------------
       1        0.000002298685    -0.000002066409    -0.000003421289
       2        0.000003128066     0.000010559961     0.000007411185
       3        0.000184228891    -0.000278245010    -0.001463880693
       4        0.000003163493    -0.000001136706    -0.000000482077
       5       -0.000795777642     0.000954755120     0.000819524869
       6       -0.000039174557     0.000089208764     0.001103737411
       7       -0.000001318429     0.000003303769    -0.000001121830
       8        0.000004570513    -0.000003364003     0.000000974963
       9        0.000639711754    -0.000767262061    -0.000465165138
      10       -0.000003072997    -0.000002862441    -0.000000417942
      11        0.000001998377     0.000003086166     0.000004038680
      12       -0.000002794491    -0.000005366036     0.000002101626
      13        0.000003038338    -0.000000611113    -0.000003299766

  **** Optimization is complete! (in 6 steps) ****
    Final optimized geometry and variables:
    Molecular point group: c1

    Geometry (in Angstrom), charge = 0, multiplicity = 1:

    H           -1.795168768157    -1.370438309080     0.997334683273
    N           -0.945360756137    -0.854152146012     0.916885937908
    C           -0.905968106390    -0.116633371306    -0.337745948073
    H           -0.198611376825    -1.512973658542     0.975856499479
    C            0.248561770608     0.877175026215    -0.378244085349
    H           -1.836929665152     0.432965306715    -0.415404894993
    H           -0.847766130559    -0.769448573140    -1.210087662003
    C            1.627427205918     0.234548754049    -0.251453900820
    H            0.198902024995     1.413491139131    -1.321572742284
    H            0.112817730146     1.603928127531     0.415154139237
    H            1.783183005997    -0.517018902556    -1.019821886095
    H            2.409460640580     0.977400999068    -0.356254036729
    H            1.759413694353    -0.238388054236     0.714450708816

  Mulliken Charges: (a.u.)
   Center  Symbol    Alpha    Beta     Spin     Total
       1     H     0.42883  0.42883  0.00000  0.14235
       2     N     3.69179  3.69179  0.00000 -0.38359
       3     C     3.03351  3.03351  0.00000 -0.06702
       4     H     0.42892  0.42892  0.00000  0.14215
       5     C     3.07592  3.07592  0.00000 -0.15184
       6     H     0.45288  0.45288  0.00000  0.09425
       7     H     0.46550  0.46550  0.00000  0.06900
       8     C     3.15854  3.15854  0.00000 -0.31709
       9     H     0.45572  0.45572  0.00000  0.08856
      10     H     0.45309  0.45309  0.00000  0.09382
      11     H     0.45588  0.45588  0.00000  0.08823
      12     H     0.44646  0.44646  0.00000  0.10707
      13     H     0.45295  0.45295  0.00000  0.09409

   Total alpha = 17.00000, Total beta = 17.00000, Total charge = -0.00000

*** Psi4 exiting successfully. Buy a developer a beer!
