  ==> Input File <==

--------------------------------------------------------------------------
set {
	reference rhf
	basis cc-pvtz
}

set_num_threads( 4 )
memory 2 gb

molecule MOL {
0 1

H	 3.321509	 -0.485627	 -1.037091
C	 2.609393	 -0.682114	 -0.246166
C	 1.322304	 0.099773	 -0.484271
H	 2.423624	 -1.750010	 -0.224780
H	 3.072065	 -0.403001	 0.693712
C	 0.308557	 -0.162619	 0.622645
H	 0.885385	 -0.181566	 -1.434367
H	 1.532732	 1.161448	 -0.523044
N	 -1.069352	 -0.004081	 0.085342
H	 0.371632	 -1.172932	 0.991288
H	 0.400391	 0.548875	 1.426218
O	 -1.584901	 -0.965470	 -0.377818
O	 -1.548033	 1.079343	 0.130056

	symmetry c1
}
set optking {
	frozen_dihedral = ("
		7 3 6 9
	")
}

ee = optimize('scf')
oeprop('DIPOLE', 'QUADRUPOLE', 'MULLIKEN_CHARGES')
f=open( 'psi4out.xyz', 'w' )
f.write( "13  " )
f.write( str(ee) + "\n" )
f.write( MOL.save_string_xyz() )
f.close()
--------------------------------------------------------------------------

    Molecular point group: c1
  Charge       = 0
  Multiplicity = 1
  Basis Set: CC-PVTZ
  Basis Set:
  @DF-RHF Final Energy:  -321.85884736127059
    Total Energy =                       -321.8588473612704774
    Molecular point group: c1
  Basis Set: CC-PVTZ
  Basis Set:
  Basis Set: CC-PVTZ
  Basis Set:
  @DF-RHF Final Energy:  -321.85803166143074
    Total Energy =                       -321.8580316614306867
  Basis Set: CC-PVTZ
  Basis Set:
  Basis Set: CC-PVTZ
  Basis Set:
  @DF-RHF Final Energy:  -321.85588062314866
    Total Energy =                       -321.8558806231487210
  Basis Set: CC-PVTZ
  Basis Set:
  Basis Set: CC-PVTZ
  Basis Set:
  @DF-RHF Final Energy:  -321.85886968399944
    Total Energy =                       -321.8588696839991030
  Basis Set: CC-PVTZ
  Basis Set:
  @DF-RHF Final Energy:  -321.85907575393844
    Total Energy =                       -321.8590757539384413
  @DF-RHF Final Energy:  -321.85909816755259
    Total Energy =                       -321.8590981675526450
  Basis Set: CC-PVTZ
  Basis Set:
  @DF-RHF Final Energy:  -321.85910752131895
    Total Energy =                       -321.8591075213186059
  Basis Set: CC-PVTZ
  Basis Set:
  Basis Set: CC-PVTZ
  Basis Set:
  @DF-RHF Final Energy:  -321.85911342318786
    Total Energy =                       -321.8591134231879209
  Basis Set: CC-PVTZ
  Basis Set:
  Basis Set: CC-PVTZ
  Basis Set:
  @DF-RHF Final Energy:  -321.85911762711862
    Total Energy =                       -321.8591176271190761
  Basis Set: CC-PVTZ
  Basis Set:
  Charge       = 0
  Multiplicity = 1
  Basis Set: CC-PVTZ
  Basis Set:

    Orbital Energies (a.u.)
    -----------------------

    Doubly Occupied:

       1A    -20.590471     2A    -20.590344     3A    -15.836954
       4A    -11.297248     5A    -11.254781     6A    -11.236687
       7A     -1.636034     8A     -1.420296     9A     -1.133120
      10A     -1.028017    11A     -0.884403    12A     -0.834900
      13A     -0.762033    14A     -0.738453    15A     -0.727707
      16A     -0.667808    17A     -0.607064    18A     -0.591540
      19A     -0.548090    20A     -0.521161    21A     -0.513169
      22A     -0.485920    23A     -0.475176    24A     -0.453447

  @DF-RHF Final Energy:  -321.85911801439295

   => Energetics <=

    Nuclear Repulsion Energy =            248.1460202741763226
    One-Electron Energy =                -930.3406315413003540
    Two-Electron Energy =                 360.3354932527309415
    DFT Exchange-Correlation Energy =       0.0000000000000000
    Empirical Dispersion Energy =           0.0000000000000000
    PCM Polarization Energy =               0.0000000000000000
    EFP Energy =                            0.0000000000000000
    Total Energy =                       -321.8591180143931183
    Molecular point group: c1
  Basis Set: CC-PVTZ
  Basis Set:

  -Total Gradient:
     Atom            X                  Y                   Z
    ------   -----------------  -----------------  -----------------
       1       -0.000003198863    -0.000003307768    -0.000001948226
       2        0.000000236702    -0.000001670886     0.000001790302
       3        0.001772520019    -0.005832498421     0.000288253150
       4       -0.000003142873     0.000001601867     0.000002151788
       5        0.000003410743     0.000003889798    -0.000002286746
       6       -0.000227308854     0.004891538628     0.000902837045
       7       -0.001460540084     0.003921339604    -0.000451385525
       8        0.000009960437     0.000008870946     0.000017780666
       9       -0.000090660049    -0.002916003112    -0.000724962442
      10       -0.000004472423    -0.000008219869     0.000001460179
      11       -0.000000915684     0.000000910806    -0.000015576158
      12        0.000003203234    -0.000028018792    -0.000023008990
      13        0.000000907687    -0.000038432799     0.000004894956

  **** Optimization is complete! (in 10 steps) ****
    Final optimized geometry and variables:
    Molecular point group: c1

    Geometry (in Angstrom), charge = 0, multiplicity = 1:

    H            3.370176724693    -0.341759810305    -0.974349934092
    C            2.647227262403    -0.573965800211    -0.203028089807
    C            1.347928911578     0.182930975162    -0.445526724309
    H            2.483319662830    -1.645103664793    -0.208469091485
    H            3.086029031938    -0.306387936164     0.752161879021
    C            0.327472118859    -0.066978073295     0.668395150638
    H            0.910441285245    -0.092056881689    -1.397212909762
    H            1.542898930217     1.246542793137    -0.504195121643
    N           -1.049512876149     0.108002590899     0.136330749396
    H            0.368849577679    -1.083731715724     1.021281776395
    H            0.433154060127     0.626410463986     1.485310444888
    O           -1.597822350251    -0.857082762444    -0.279073353963
    O           -1.494749803637     1.206716556786     0.133838047026

  Mulliken Charges: (a.u.)
   Center  Symbol    Alpha    Beta     Spin     Total
       1     H     0.44261  0.44261  0.00000  0.11478
       2     C     3.14995  3.14995  0.00000 -0.29990
       3     C     3.09312  3.09312  0.00000 -0.18625
       4     H     0.44956  0.44956  0.00000  0.10088
       5     H     0.45221  0.45221  0.00000  0.09559
       6     C     3.03726  3.03726  0.00000 -0.07452
       7     H     0.43877  0.43877  0.00000  0.12245
       8     H     0.44120  0.44120  0.00000  0.11760
       9     N     3.27926  3.27926  0.00000  0.44148
      10     H     0.43723  0.43723  0.00000  0.12553
      11     H     0.43314  0.43314  0.00000  0.13372
      12     O     4.17228  4.17228  0.00000 -0.34455
      13     O     4.17341  4.17341  0.00000 -0.34682

   Total alpha = 24.00000, Total beta = 24.00000, Total charge = -0.00000
