  ==> Input File <==

--------------------------------------------------------------------------
set {
	reference rhf
	basis cc-pvtz
}

set_num_threads( 4 )
memory 2 gb

molecule MOL {
0 1

O	 0.074770	 1.259872	 0.000487
C	 0.029490	 0.077183	 0.000078
C	 -1.232113	 -0.748027	 0.000015
O	 1.106773	 -0.690081	 -0.000204
C	 -2.501422	 0.088592	 -0.000052
H	 -1.188777	 -1.400384	 -0.865133
H	 -1.188857	 -1.400312	 0.865225
H	 -2.548170	 0.725504	 -0.873205
H	 -3.371613	 -0.556398	 -0.000040
H	 -2.548215	 0.725571	 0.873047
C	 2.103435	 -0.408898	 -0.962099
H	 1.706620	 -0.506001	 -1.961771
H	 2.885954	 -1.132315	 -0.800367
H	 2.487865	 0.591767	 -0.831226

	symmetry c1
}
set optking {
	frozen_dihedral = ("
		11 4 2 3
	")
}

ee = optimize('scf')
oeprop('DIPOLE', 'QUADRUPOLE', 'MULLIKEN_CHARGES')
f=open( 'psi4out.xyz', 'w' )
f.write( "14  " )
f.write( str(ee) + "\n" )
f.write( MOL.save_string_xyz() )
f.close()
--------------------------------------------------------------------------

    Molecular point group: c1
  Charge       = 0
  Multiplicity = 1
  Basis Set: CC-PVTZ
  Basis Set:
  @DF-RHF Final Energy:  -305.97625270576566
    Total Energy =                       -305.9762527057654324
    Molecular point group: c1
  Basis Set: CC-PVTZ
  Basis Set:
  Basis Set: CC-PVTZ
  Basis Set:
  @DF-RHF Final Energy:  -305.97452452888422
    Total Energy =                       -305.9745245288843876
  Basis Set: CC-PVTZ
  Basis Set:
  Basis Set: CC-PVTZ
  Basis Set:
  @DF-RHF Final Energy:  -305.97690937961113
    Total Energy =                       -305.9769093796114703
  Basis Set: CC-PVTZ
  Basis Set:
  Basis Set: CC-PVTZ
  Basis Set:
  @DF-RHF Final Energy:  -305.97705036160210
    Total Energy =                       -305.9770503616023234
  Basis Set: CC-PVTZ
  Basis Set:
  Basis Set: CC-PVTZ
  Basis Set:
  @DF-RHF Final Energy:  -305.97707017199315
    Total Energy =                       -305.9770701719933186
  Basis Set: CC-PVTZ
  Basis Set:
  Basis Set: CC-PVTZ
  Basis Set:
  @DF-RHF Final Energy:  -305.97707168470777
    Total Energy =                       -305.9770716847078802
  Basis Set: CC-PVTZ
  Basis Set:
  Charge       = 0
  Multiplicity = 1
  Basis Set: CC-PVTZ
  Basis Set:

    Orbital Energies (a.u.)
    -----------------------

    Doubly Occupied:

       1A    -20.586017     2A    -20.540862     3A    -11.367414
       4A    -11.283361     5A    -11.239444     6A    -11.216225
       7A     -1.466583     8A     -1.368205     9A     -1.064844
      10A     -0.978329    11A     -0.885222    12A     -0.768284
      13A     -0.702597    14A     -0.680198    15A     -0.675806
      16A     -0.621616    17A     -0.609824    18A     -0.555502
      19A     -0.541327    20A     -0.522706    21A     -0.511479
      22A     -0.498310    23A     -0.459287    24A     -0.440203

  @DF-RHF Final Energy:  -305.97707185322656

   => Energetics <=

    Nuclear Repulsion Energy =            247.1328426368650071
    One-Electron Energy =                -907.0525479038419689
    Two-Electron Energy =                 353.9426334137501158
    DFT Exchange-Correlation Energy =       0.0000000000000000
    Empirical Dispersion Energy =           0.0000000000000000
    PCM Polarization Energy =               0.0000000000000000
    EFP Energy =                            0.0000000000000000
    Total Energy =                       -305.9770718532268461
    Molecular point group: c1
  Basis Set: CC-PVTZ
  Basis Set:

  -Total Gradient:
     Atom            X                  Y                   Z
    ------   -----------------  -----------------  -----------------
       1        0.000030670540    -0.000010907259     0.000169245293
       2       -0.001932191258    -0.001763897191     0.007154953320
       3        0.000201134292    -0.000513166681    -0.006803254847
       4        0.004871092079     0.007500701903     0.004142983214
       5        0.000010088551    -0.000009829337     0.000010319642
       6       -0.000002560289    -0.000000021461     0.000001293747
       7       -0.000002094666     0.000006199105     0.000003785607
       8        0.000004387392     0.000002951729    -0.000008917624
       9        0.000009051215    -0.000001151356    -0.000000265690
      10       -0.000005131144     0.000002624786     0.000004111559
      11       -0.003177601178    -0.005222543394    -0.004673309013
      12       -0.000009264626    -0.000001753982    -0.000003859498
      13        0.000002951531     0.000005142185    -0.000002694766
      14       -0.000000532434     0.000005650954     0.000005609056

  **** Optimization is complete! (in 7 steps) ****
    Final optimized geometry and variables:
    Molecular point group: c1

    Geometry (in Angstrom), charge = 0, multiplicity = 1:

    O            0.102095127476     1.323702492264    -0.012076095859
    C            0.064610088654     0.154769953722     0.144134316833
    C           -1.191354596090    -0.675701584242     0.162189445169
    O            1.164807885241    -0.600183835968     0.235014999547
    C           -2.469100345614     0.141464417852     0.260517573800
    H           -1.165721360614    -1.257397982193    -0.754922992701
    H           -1.111407084670    -1.395226320364     0.968626236356
    H           -2.548208799867     0.840008825652    -0.561025416876
    H           -3.332681628125    -0.511989109784     0.241076823584
    H           -2.495619962479     0.711525503641     1.180312056365
    C            2.185113123842    -0.367643418605    -0.714564481019
    H            1.813893405927    -0.555974389701    -1.714486709656
    H            2.976781636671    -1.062992772955    -0.487804602451
    H            2.553634630794     0.644998420061    -0.651063396209

  Mulliken Charges: (a.u.)
   Center  Symbol    Alpha    Beta     Spin     Total
       1     O     4.18324  4.18324  0.00000 -0.36648
       2     C     2.79821  2.79821  0.00000  0.40357
       3     C     3.09435  3.09435  0.00000 -0.18870
       4     O     4.16112  4.16112  0.00000 -0.32223
       5     C     3.14045  3.14045  0.00000 -0.28091
       6     H     0.44618  0.44618  0.00000  0.10763
       7     H     0.43856  0.43856  0.00000  0.12288
       8     H     0.44634  0.44634  0.00000  0.10732
       9     H     0.45036  0.45036  0.00000  0.09928
      10     H     0.44941  0.44941  0.00000  0.10118
      11     C     3.03534  3.03534  0.00000 -0.07067
      12     H     0.46477  0.46477  0.00000  0.07046
      13     H     0.44537  0.44537  0.00000  0.10925
      14     H     0.44629  0.44629  0.00000  0.10742

   Total alpha = 24.00000, Total beta = 24.00000, Total charge = -0.00000
