  ==> Input File <==

--------------------------------------------------------------------------
set {
	reference rhf
	basis 6-31G*
}

set_num_threads( 1 )
memory 2 gb

molecule MOL {
0 1

H	 -3.833380	 -0.454517	 -1.420312
O	 -3.452007	 0.283848	 -0.965577
C	 -3.181085	 -0.079926	 0.364119
C	 -1.765924	 0.277073	 0.805136
H	 -3.327791	 -1.152017	 0.410903
H	 -3.905698	 0.375695	 1.036898
C	 -0.677594	 -0.417312	 -0.014550
H	 -1.637766	 1.358238	 0.744969
H	 -1.659588	 0.017670	 1.857098
C	 0.738335	 -0.034840	 0.421385
H	 -0.814977	 -0.178223	 -1.064632
H	 -0.802730	 -1.495410	 0.071702
C	 1.822265	 -0.738362	 -0.399735
H	 0.853533	 1.043532	 0.342250
H	 0.871597	 -0.279636	 1.474438
C	 3.258060	 -0.455774	 0.057203
H	 1.718003	 -0.459167	 -1.447053
H	 1.651028	 -1.811884	 -0.354513
C	 3.709143	 0.994797	 -0.123830
H	 3.930637	 -1.101717	 -0.501982
H	 3.365259	 -0.739518	 1.102287
H	 3.601178	 1.310569	 -1.158127
H	 4.753787	 1.110486	 0.148516
H	 3.135362	 1.678896	 0.492569

	symmetry c1
}
set optking {
	frozen_dihedral = ("
		20 16 13 17,
		17 13 10 7,
		13 10 7 11,
		11 7 4 3,
		7 4 3 2
	")
}

ee = energy('scf')
oeprop('DIPOLE', 'QUADRUPOLE', 'MULLIKEN_CHARGES')
f=open( 'psi4out.xyz', 'w' )
f.write( "24  " )
f.write( str(ee) + "\n" )
f.write( MOL.save_string_xyz() )
f.close()
--------------------------------------------------------------------------

    Molecular point group: c1

    Geometry (in Angstrom), charge = 0, multiplicity = 1:

       Center              X                  Y                   Z               Mass
    ------------   -----------------  -----------------  -----------------  -----------------
           H         -3.829798384749    -0.439919300484    -1.417048154141     1.007825032070
           O         -3.448425384749     0.298445699516    -0.962313154141    15.994914619560
           C         -3.177503384749    -0.065328300484     0.367382845859    12.000000000000
           C         -1.762342384749     0.291670699516     0.808399845859    12.000000000000
           H         -3.324209384749    -1.137419300484     0.414166845859     1.007825032070
           H         -3.902116384749     0.390292699516     1.040161845859     1.007825032070
           C         -0.674012384749    -0.402714300484    -0.011286154141    12.000000000000
           H         -1.634184384749     1.372835699516     0.748232845859     1.007825032070
           H         -1.656006384749     0.032267699516     1.860361845859     1.007825032070
           C          0.741916615251    -0.020242300484     0.424648845859    12.000000000000
           H         -0.811395384749    -0.163625300484    -1.061368154141     1.007825032070
           H         -0.799148384749    -1.480812300484     0.074965845859     1.007825032070
           C          1.825846615251    -0.723764300484    -0.396471154141    12.000000000000
           H          0.857114615251     1.058129699516     0.345513845859     1.007825032070
           H          0.875178615251    -0.265038300484     1.477701845859     1.007825032070
           C          3.261641615251    -0.441176300484     0.060466845859    12.000000000000
           H          1.721584615251    -0.444569300484    -1.443789154141     1.007825032070
           H          1.654609615251    -1.797286300484    -0.351249154141     1.007825032070
           C          3.712724615251     1.009394699516    -0.120566154141    12.000000000000
           H          3.934218615251    -1.087119300484    -0.498718154141     1.007825032070
           H          3.368840615251    -0.724920300484     1.105550845859     1.007825032070
           H          3.604759615251     1.325166699516    -1.154863154141     1.007825032070
           H          4.757368615251     1.125083699516     0.151779845859     1.007825032070
           H          3.138943615251     1.693493699516     0.495832845859     1.007825032070

  Charge       = 0
  Multiplicity = 1
  Basis Set: 6-31G*
  Basis Set:

    Orbital Energies (a.u.)
    -----------------------

    Doubly Occupied:

       1A    -20.551391     2A    -11.268286     3A    -11.213829
       4A    -11.213095     5A    -11.210995     6A    -11.210426
       7A    -11.209644     8A    -11.205900     9A     -1.359155
      10A     -1.086955    11A     -1.046756    12A     -0.984473
      13A     -0.913581    14A     -0.846056    15A     -0.790939
      16A     -0.775088    17A     -0.703541    18A     -0.641561
      19A     -0.632965    20A     -0.609474    21A     -0.594463
      22A     -0.578924    23A     -0.559625    24A     -0.536527
      25A     -0.513172    26A     -0.507336    27A     -0.494604
      28A     -0.472713    29A     -0.462778    30A     -0.459726
      31A     -0.453467    32A     -0.450408    33A     -0.417795

  @DF-RHF Final Energy:  -349.24463924562525

   => Energetics <=

    Nuclear Repulsion Energy =            384.0962421785174570
    One-Electron Energy =               -1234.7303550099709355
    Two-Electron Energy =                 501.3894735858282274
    DFT Exchange-Correlation Energy =       0.0000000000000000
    Empirical Dispersion Energy =           0.0000000000000000
    PCM Polarization Energy =               0.0000000000000000
    EFP Energy =                            0.0000000000000000
    Total Energy =                       -349.2446392456251942

  Mulliken Charges: (a.u.)
   Center  Symbol    Alpha    Beta     Spin     Total
       1     H     0.27867  0.27867  0.00000  0.44267
       2     O     4.37227  4.37227  0.00000 -0.74454
       3     C     2.99517  2.99517  0.00000  0.00965
       4     C     3.15992  3.15992  0.00000 -0.31984
       5     H     0.43534  0.43534  0.00000  0.12931
       6     H     0.42340  0.42340  0.00000  0.15320
       7     C     3.15560  3.15560  0.00000 -0.31119
       8     H     0.41608  0.41608  0.00000  0.16784
       9     H     0.42388  0.42388  0.00000  0.15224
      10     C     3.15371  3.15371  0.00000 -0.30741
      11     H     0.41116  0.41116  0.00000  0.17768
      12     H     0.42868  0.42868  0.00000  0.14265
      13     C     3.15219  3.15219  0.00000 -0.30439
      14     H     0.42041  0.42041  0.00000  0.15919
      15     H     0.42586  0.42586  0.00000  0.14829
      16     C     3.15220  3.15220  0.00000 -0.30439
      17     H     0.42367  0.42367  0.00000  0.15265
      18     H     0.42349  0.42349  0.00000  0.15302
      19     C     3.24105  3.24105  0.00000 -0.48211
      20     H     0.42159  0.42159  0.00000  0.15681
      21     H     0.42394  0.42394  0.00000  0.15213
      22     H     0.42202  0.42202  0.00000  0.15597
      23     H     0.41984  0.41984  0.00000  0.16033
      24     H     0.41988  0.41988  0.00000  0.16024

   Total alpha = 33.00000, Total beta = 33.00000, Total charge = -0.00000
