  ==> Input File <==

--------------------------------------------------------------------------
set {
	reference rhf
	basis cc-pvtz
}

set_num_threads( 4 )
memory 2 gb

molecule MOL {
0 1

H	 -3.162190	 0.493205	 -0.000107
C	 -2.363908	 -0.234727	 0.000005
O	 -1.158738	 0.454634	 -0.000087
H	 -2.464314	 -0.863616	 -0.882153
H	 -2.464327	 -0.863359	 0.882345
C	 -0.028611	 -0.359694	 0.000037
C	 1.156980	 0.431859	 0.514050
H	 0.170756	 -0.722691	 -1.008489
H	 -0.197843	 -1.233985	 0.629019
C	 2.438677	 -0.393154	 0.544972
H	 1.289363	 1.304218	 -0.116339
H	 0.923710	 0.796936	 1.508161
H	 2.704057	 -0.748626	 -0.445129
H	 3.268454	 0.196037	 0.915570
H	 2.336065	 -1.259121	 1.190449

	symmetry c1
}
set optking {
	frozen_dihedral = ("
		8 6 3 2
	")
}

ee = optimize('scf')
oeprop('DIPOLE', 'QUADRUPOLE', 'MULLIKEN_CHARGES')
f=open( 'psi4out.xyz', 'w' )
f.write( "15  " )
f.write( str(ee) + "\n" )
f.write( MOL.save_string_xyz() )
f.close()
--------------------------------------------------------------------------

    Molecular point group: c1
  Charge       = 0
  Multiplicity = 1
  Basis Set: CC-PVTZ
  Basis Set:
  @DF-RHF Final Energy:  -232.22716554619109
    Total Energy =                       -232.2271655461912019
    Molecular point group: c1
  Basis Set: CC-PVTZ
  Basis Set:
  Basis Set: CC-PVTZ
  Basis Set:
  @DF-RHF Final Energy:  -232.22722549463072
    Total Energy =                       -232.2272254946306020
  Basis Set: CC-PVTZ
  Basis Set:
  Basis Set: CC-PVTZ
  Basis Set:
  @DF-RHF Final Energy:  -232.22723913249010
    Total Energy =                       -232.2272391324900696
  Basis Set: CC-PVTZ
  Basis Set:
  Charge       = 0
  Multiplicity = 1
  Basis Set: CC-PVTZ
  Basis Set:

    Orbital Energies (a.u.)
    -----------------------

    Doubly Occupied:

       1A    -20.546780     2A    -11.264289     3A    -11.262016
       4A    -11.212473     5A    -11.210594     6A     -1.380619
       7A     -1.058184     8A     -0.956317     9A     -0.877452
      10A     -0.808987    11A     -0.676534    12A     -0.655582
      13A     -0.632715    14A     -0.607262    15A     -0.565652
      16A     -0.541387    17A     -0.503424    18A     -0.490462
      19A     -0.479274    20A     -0.463075    21A     -0.414570

  @DF-RHF Final Energy:  -232.22723934160007

   => Energetics <=

    Nuclear Repulsion Energy =            189.9797736474774865
    One-Electron Energy =                -691.1987314286870969
    Two-Electron Energy =                 268.9917184396093148
    DFT Exchange-Correlation Energy =       0.0000000000000000
    Empirical Dispersion Energy =           0.0000000000000000
    PCM Polarization Energy =               0.0000000000000000
    EFP Energy =                            0.0000000000000000
    Total Energy =                       -232.2272393416002956
    Molecular point group: c1
  Basis Set: CC-PVTZ
  Basis Set:

  -Total Gradient:
     Atom            X                  Y                   Z
    ------   -----------------  -----------------  -----------------
       1       -0.000001983120     0.000002725344    -0.000002264881
       2       -0.000050828244     0.000008683126     0.002037291002
       3        0.000456332057     0.000484981613    -0.003026060160
       4        0.000012218002     0.000006913241     0.000005891983
       5        0.000015557337     0.000001918169    -0.000002697763
       6       -0.001885203371    -0.002509017492     0.001422868908
       7       -0.000007296981     0.000001949875    -0.000017494357
       8        0.001444672162     0.002007659604    -0.000417106136
       9       -0.000002956517    -0.000007609198    -0.000003019115
      10        0.000011271628    -0.000006113677     0.000007776372
      11        0.000007316512     0.000009301661     0.000002151867
      12       -0.000004178303    -0.000001101135    -0.000001779731
      13        0.000000768072    -0.000000682954    -0.000001660282
      14        0.000001095981    -0.000000115855    -0.000000427686
      15        0.000003214788     0.000000507679    -0.000003470021

  **** Optimization is complete! (in 4 steps) ****
    Final optimized geometry and variables:
    Molecular point group: c1

    Geometry (in Angstrom), charge = 0, multiplicity = 1:

    H           -3.137934934635     0.543639878594    -0.248967521091
    C           -2.349366199577    -0.194590838080    -0.222802758994
    O           -1.135681050017     0.479842413575    -0.207655262050
    H           -2.444096931042    -0.834698213631    -1.097895497202
    H           -2.473911641012    -0.808649549188     0.666196930263
    C           -0.007259488002    -0.339216677705    -0.186428521695
    C            1.179545104558     0.459726497427     0.317623424074
    H            0.203209410620    -0.705740922203    -1.190936183753
    H           -0.176297526567    -1.202635145573     0.454921341300
    C            2.469793838127    -0.352595315986     0.321253227048
    H            1.293583395769     1.337907836044    -0.308479871281
    H            0.958775651893     0.816032805137     1.317927863798
    H            2.724064727687    -0.694781077835    -0.676409535856
    H            3.299313598287     0.240574993823     0.686324182783
    H            2.385261390502    -1.226735905236     0.958609907737

  Mulliken Charges: (a.u.)
   Center  Symbol    Alpha    Beta     Spin     Total
       1     H     0.44789  0.44789  0.00000  0.10421
       2     C     3.03285  3.03285  0.00000 -0.06570
       3     O     4.17321  4.17321  0.00000 -0.34642
       4     H     0.47235  0.47235  0.00000  0.05531
       5     H     0.47137  0.47137  0.00000  0.05727
       6     C     2.95704  2.95704  0.00000  0.08592
       7     C     3.08034  3.08034  0.00000 -0.16068
       8     H     0.47084  0.47084  0.00000  0.05832
       9     H     0.47723  0.47723  0.00000  0.04554
      10     C     3.15580  3.15580  0.00000 -0.31160
      11     H     0.45045  0.45045  0.00000  0.09910
      12     H     0.45253  0.45253  0.00000  0.09493
      13     H     0.45562  0.45562  0.00000  0.08877
      14     H     0.44632  0.44632  0.00000  0.10736
      15     H     0.45615  0.45615  0.00000  0.08769

   Total alpha = 21.00000, Total beta = 21.00000, Total charge = -0.00000
