  ==> Input File <==

--------------------------------------------------------------------------
set {
	reference rhf
	basis 6-31G*
}

set_num_threads( 4 )
memory 2 gb

molecule MOL {
0 1

H	 2.465338	 -2.224223	 0.000000
O	 2.784187	 -1.332015	 0.000000
C	 1.765313	 -0.449364	 0.000000
C	 1.005777	 -0.350752	 1.161604
C	 1.463685	 0.338623	 -1.093724
H	 1.260224	 -0.973987	 1.998081
C	 -0.050475	 0.534434	 1.223582
H	 2.031956	 0.283333	 -2.001213
C	 0.396303	 1.216798	 -0.997166
H	 -0.631577	 0.604092	 2.124318
C	 -0.373656	 1.337257	 0.137823
N	 0.081493	 2.048071	 -2.157065
H	 -1.189984	 2.028582	 0.170758
O	 0.764256	 1.924624	 -3.128984
O	 -0.838666	 2.801216	 -2.065715

	symmetry c1
}
set optking {
	frozen_dihedral = ("
		4 3 2 1
	")
}

ee = optimize('scf')
oeprop('DIPOLE', 'QUADRUPOLE', 'MULLIKEN_CHARGES')
f=open( 'psi4out.xyz', 'w' )
f.write( "15  " )
f.write( str(ee) + "\n" )
f.write( MOL.save_string_xyz() )
f.close()
--------------------------------------------------------------------------

    Molecular point group: c1
  Charge       = 0
  Multiplicity = 1
  Basis Set: 6-31G*
  Basis Set:
  @DF-RHF Final Energy:  -509.02222454609722
    Total Energy =                       -509.0222245460967088
    Molecular point group: c1
  Basis Set: 6-31G*
  Basis Set:
  Basis Set: 6-31G*
  Basis Set:
  @DF-RHF Final Energy:  -509.02348384143852
    Total Energy =                       -509.0234838414385194
  Basis Set: 6-31G*
  Basis Set:
  Basis Set: 6-31G*
  Basis Set:
  @DF-RHF Final Energy:  -509.00847825542542
    Total Energy =                       -509.0084782554251888
  Basis Set: 6-31G*
  Basis Set:
  Basis Set: 6-31G*
  Basis Set:
  @DF-RHF Final Energy:  -509.02321507302878
    Total Energy =                       -509.0232150730287231
  Basis Set: 6-31G*
  Basis Set:
  Basis Set: 6-31G*
  Basis Set:
  @DF-RHF Final Energy:  -509.02368894471266
    Total Energy =                       -509.0236889447128306
  Basis Set: 6-31G*
  Basis Set:
  Basis Set: 6-31G*
  Basis Set:
  @DF-RHF Final Energy:  -509.02369801599684
    Total Energy =                       -509.0236980159965015
  Basis Set: 6-31G*
  Basis Set:
  Charge       = 0
  Multiplicity = 1
  Basis Set: 6-31G*
  Basis Set:

    Orbital Energies (a.u.)
    -----------------------

    Doubly Occupied:

       1A    -20.602991     2A    -20.602960     3A    -20.602671
       4A    -15.857693     5A    -11.322176     6A    -11.308843
       7A    -11.268830     8A    -11.267132     9A    -11.266596
      10A    -11.265920    11A     -1.636458    12A     -1.420599
      13A     -1.419624    14A     -1.200467    15A     -1.094430
      16A     -1.046778    17A     -0.963919    18A     -0.865591
      19A     -0.836807    20A     -0.793070    21A     -0.735606
      22A     -0.732983    23A     -0.718929    24A     -0.710744
      25A     -0.680668    26A     -0.642101    27A     -0.624626
      28A     -0.568753    29A     -0.558602    30A     -0.528687
      31A     -0.512017    32A     -0.489397    33A     -0.485461
      34A     -0.452977    35A     -0.377498    36A     -0.356018

  @DF-RHF Final Energy:  -509.02370069572356

   => Energetics <=

    Nuclear Repulsion Energy =            502.8165206262553397
    One-Electron Energy =               -1692.0432024619785807
    Two-Electron Energy =                 680.2029811399995651
    DFT Exchange-Correlation Energy =       0.0000000000000000
    Empirical Dispersion Energy =           0.0000000000000000
    PCM Polarization Energy =               0.0000000000000000
    EFP Energy =                            0.0000000000000000
    Total Energy =                       -509.0237006957236190
    Molecular point group: c1
  Basis Set: 6-31G*
  Basis Set:

  -Total Gradient:
     Atom            X                  Y                   Z
    ------   -----------------  -----------------  -----------------
       1       -0.000067359977     0.000015777391    -0.001130843379
       2        0.000388335160     0.000283777915     0.001580663668
       3       -0.000779187400    -0.000837929301    -0.001017154763
       4        0.000324191370     0.000714962216     0.000415441574
       5        0.000162812860    -0.000208062954     0.000116531253
       6        0.000007570940     0.000014823306    -0.000021553446
       7        0.000105969506    -0.000179813081     0.000099656308
       8        0.000001180897    -0.000000734156     0.000002148513
       9       -0.000199610215     0.000109847749     0.000147763349
      10       -0.000022864052     0.000030483848     0.000000262786
      11        0.000070644021     0.000053082414    -0.000194586367
      12        0.000068543347     0.000007817850     0.000038905832
      13       -0.000002838954    -0.000018316125     0.000035806995
      14       -0.000100850967     0.000042335145     0.000025141275
      15        0.000043463465    -0.000028052222    -0.000098183589

  **** Optimization is complete! (in 7 steps) ****
    Final optimized geometry and variables:
    Molecular point group: c1

    Geometry (in Angstrom), charge = 0, multiplicity = 1:

    H            1.813658931129    -3.037305443483     0.721818093311
    O            2.098071840736    -2.132824186627     0.711223579015
    C            1.028512024144    -1.288940228016     0.771643884517
    C            0.277366703176    -1.173801648975     1.932226127482
    C            0.740969457653    -0.499086509338    -0.325229932683
    H            0.531441590315    -1.780057406920     2.782739157138
    C           -0.778918013162    -0.280875595212     1.992288972813
    H            1.326643544505    -0.575693522048    -1.217912916220
    C           -0.313319793383     0.391242828828    -0.233511052207
    H           -1.358724310474    -0.198514943093     2.892727850878
    C           -1.086812471436     0.517388453639     0.904033756829
    N           -0.622109914109     1.226526530150    -1.391307041828
    H           -1.895431904955     1.218228537693     0.932728921003
    O            0.052404283374     1.094030287271    -2.366455388558
    O           -1.532966057407     1.991677694377    -1.294128985826

  Mulliken Charges: (a.u.)
   Center  Symbol    Alpha    Beta     Spin     Total
       1     H     0.26816  0.26816  0.00000  0.46367
       2     O     4.38299  4.38299  0.00000 -0.76597
       3     C     2.81802  2.81802  0.00000  0.36396
       4     C     3.10773  3.10773  0.00000 -0.21547
       5     C     3.10711  3.10711  0.00000 -0.21421
       6     H     0.38618  0.38618  0.00000  0.22763
       7     C     3.10488  3.10488  0.00000 -0.20976
       8     H     0.35850  0.35850  0.00000  0.28300
       9     C     2.91745  2.91745  0.00000  0.16509
      10     H     0.38667  0.38667  0.00000  0.22666
      11     C     3.09103  3.09103  0.00000 -0.18207
      12     N     3.24087  3.24087  0.00000  0.51825
      13     H     0.36414  0.36414  0.00000  0.27172
      14     O     4.23247  4.23247  0.00000 -0.46494
      15     O     4.23378  4.23378  0.00000 -0.46756

   Total alpha = 36.00000, Total beta = 36.00000, Total charge =  0.00000
