                              Psi4 1.0.54 Driver

  ==> Input File <==

--------------------------------------------------------------------------
set {
	reference rhf
	basis cc-pvtz
}

set_num_threads( 4 )
memory 2 gb

molecule MOL {
0 1

H	 1.818022	 2.415730	 0.421748
N	 0.976891	 1.885960	 0.335536
C	 1.263552	 0.494993	 0.021953
H	 0.434580	 2.309929	 -0.387987
C	 -0.016533	 -0.325589	 -0.026925
H	 1.908347	 0.105431	 0.802641
H	 1.802995	 0.374426	 -0.918498
C	 -1.280353	 0.525521	 0.047747
H	 -0.016686	 -0.912532	 -0.939714
H	 -0.014099	 -1.037598	 0.796369
C	 -2.560681	 -0.301323	 -0.007747
H	 -1.279957	 1.241025	 -0.770189
H	 -1.270445	 1.110526	 0.963468
H	 -2.617064	 -0.872870	 -0.928010
H	 -3.439525	 0.331102	 0.043462
H	 -2.609427	 -1.002736	 0.818585

	symmetry c1
}
set optking {
	frozen_dihedral = ("
		6 3 5 9
	")
}

ee,wfn = optimize('scf', return_wfn=True)
oeprop( wfn, 'DIPOLE', 'QUADRUPOLE', 'MULLIKEN_CHARGES')
f=open( 'psi4out.xyz', 'w' )
f.write( "16  " )
f.write( str(ee) + "\n" )
f.write( MOL.save_string_xyz() )
f.close()
--------------------------------------------------------------------------

    Molecular point group: c1
  Charge       = 0
  Multiplicity = 1
  Basis Set: CC-PVTZ
  Basis Set:
  @DF-RHF Final Energy:  -212.38777783021814
    Total Energy =                       -212.3877778302179991
    Molecular point group: c1
  Basis Set: CC-PVTZ
  Basis Set:
  Basis Set: CC-PVTZ
  Basis Set:
  @DF-RHF Final Energy:  -212.38782543899077
    Total Energy =                       -212.3878254389906601
  Basis Set: CC-PVTZ
  Basis Set:
  Basis Set: CC-PVTZ
  Basis Set:
  @DF-RHF Final Energy:  -212.39060270684882
    Total Energy =                       -212.3906027068487674
  Basis Set: CC-PVTZ
  Basis Set:
  Basis Set: CC-PVTZ
  Basis Set:
  @DF-RHF Final Energy:  -212.39088120002009
    Total Energy =                       -212.3908812000200328
  Basis Set: CC-PVTZ
  Basis Set:
  Basis Set: CC-PVTZ
  Basis Set:
  @DF-RHF Final Energy:  -212.39089868281908
    Total Energy =                       -212.3908986828188290
  Basis Set: CC-PVTZ
  Basis Set:
  Basis Set: CC-PVTZ
  Basis Set:
  @DF-RHF Final Energy:  -212.39090806160743
    Total Energy =                       -212.3909080616072629
  Basis Set: CC-PVTZ
  Basis Set:
  Charge       = 0
  Multiplicity = 1
  Basis Set: CC-PVTZ
  Basis Set:

    Orbital Energies (a.u.)
    -----------------------

    Doubly Occupied:

       1A    -15.526272     2A    -11.239418     3A    -11.208552
       4A    -11.206929     5A    -11.202496     6A     -1.176873
       7A     -1.053361     8A     -0.957189     9A     -0.852408
      10A     -0.776294    11A     -0.667877    12A     -0.639384
      13A     -0.601013    14A     -0.581151    15A     -0.552289
      16A     -0.524693    17A     -0.503149    18A     -0.468649
      19A     -0.465599    20A     -0.452187    21A     -0.380017

  @DF-RHF Final Energy:  -212.39091031160683

   => Energetics <=

    Nuclear Repulsion Energy =            189.3639216639151073
    One-Electron Energy =                -661.4380635128648009
    Two-Electron Energy =                 259.6832315373429765
    DFT Exchange-Correlation Energy =       0.0000000000000000
    Empirical Dispersion Energy =           0.0000000000000000
    PCM Polarization Energy =               0.0000000000000000
    EFP Energy =                            0.0000000000000000
    Total Energy =                       -212.3909103116067172
    Molecular point group: c1
  Basis Set: CC-PVTZ
  Basis Set:

  -Total Gradient:
     Atom            X                  Y                   Z
    ------   -----------------  -----------------  -----------------
       1       -0.000005991549     0.000033244567    -0.000006661819
       2       -0.000034355229     0.000035144849     0.000011005528
       3        0.000875110483    -0.001903877094    -0.002650261142
       4       -0.000012227742     0.000047920791    -0.000013206341
       5        0.001191815979    -0.002342620550     0.002040075033
       6       -0.000957156507     0.001851109185     0.001924687564
       7        0.000000541665    -0.000006300611    -0.000007463307
       8        0.000071259895     0.000005244085     0.000003063838
       9       -0.001098438708     0.002253606128    -0.001334375137
      10       -0.000006170027    -0.000012089168     0.000020893996
      11       -0.000015263106    -0.000000744026    -0.000021774318
      12       -0.000012998462     0.000006586204     0.000010425393
      13        0.000005601581     0.000037162701     0.000030244061
      14       -0.000007595591    -0.000010070790    -0.000013196525
      15       -0.000004039213     0.000001335383     0.000001685908
      16        0.000009906531     0.000004348346     0.000004857267

  **** Optimization is complete! (in 7 steps) ****
    Final optimized geometry and variables:
    Molecular point group: c1

    Geometry (in Angstrom), charge = 0, multiplicity = 1:

    H            2.452212979033     1.659589674424     0.378885464099
    N            1.528008952240     1.306913616026     0.249076821341
    C            1.572797868938    -0.110635159289    -0.090572387615
    H            1.110523314049     1.845975485419    -0.479316090381
    C            0.184355885235    -0.795942746319    -0.093839431166
    H            2.187175084752    -0.577851373788     0.668662941914
    H            2.060895530619    -0.288026052466    -1.046808543470
    C           -1.029551866359     0.130446943466    -0.010544966740
    H            0.088800772393    -1.376321184404    -1.006405719297
    H            0.130575352841    -1.501133614318     0.728623605256
    C           -2.342337860757    -0.646433118047    -0.027843412574
    H           -1.023026249555     0.825727603074    -0.845968925821
    H           -0.971611590866     0.731303036821     0.887339276582
    H           -2.443397264535    -1.233225941841    -0.935198077611
    H           -3.193318829292     0.022784759087     0.029025605095
    H           -2.403136095774    -1.329311149149     0.813243653609

  Mulliken Charges: (a.u.)
   Center  Symbol    Alpha    Beta     Spin     Total
       1     H     0.42925  0.42925  0.00000  0.14149
       2     N     3.68800  3.68800  0.00000 -0.37599
       3     C     3.03439  3.03439  0.00000 -0.06879
       4     H     0.42905  0.42905  0.00000  0.14190
       5     C     3.09011  3.09011  0.00000 -0.18021
       6     H     0.45632  0.45632  0.00000  0.08737
       7     H     0.46189  0.46189  0.00000  0.07623
       8     C     3.08762  3.08762  0.00000 -0.17523
       9     H     0.45473  0.45473  0.00000  0.09054
      10     H     0.45403  0.45403  0.00000  0.09194
      11     C     3.15126  3.15126  0.00000 -0.30253
      12     H     0.45993  0.45993  0.00000  0.08014
      13     H     0.44209  0.44209  0.00000  0.11582
      14     H     0.45723  0.45723  0.00000  0.08554
      15     H     0.44887  0.44887  0.00000  0.10226
      16     H     0.45524  0.45524  0.00000  0.08952

   Total alpha = 21.00000, Total beta = 21.00000, Total charge = -0.00000

*** Psi4 exiting successfully. Buy a developer a beer!
