                              Psi4 1.0.54 Driver

  ==> Input File <==

--------------------------------------------------------------------------
set {
	reference rhf
	basis cc-pvtz
}

set_num_threads( 4 )
memory 2 gb

molecule MOL {
0 1

H	 -2.123894	 -0.667238	 -0.609809
O	 -2.041679	 -0.058866	 0.103463
C	 -0.959304	 0.780994	 -0.094939
C	 0.354905	 0.037902	 -0.006215
H	 -0.985899	 1.279578	 -1.057596
H	 -0.969809	 1.529522	 0.682889
F	 0.165017	 -1.217064	 0.360927
F	 0.952154	 0.023260	 -1.179534
F	 1.179951	 0.578457	 0.858117

	symmetry c1
}
set optking {
	frozen_dihedral = ("
		7 4 3 5
	")
}

ee,wfn = optimize('scf', return_wfn=True)
oeprop( wfn, 'DIPOLE', 'QUADRUPOLE', 'MULLIKEN_CHARGES')
f=open( 'psi4out.xyz', 'w' )
f.write( "9  " )
f.write( str(ee) + "\n" )
f.write( MOL.save_string_xyz() )
f.close()
--------------------------------------------------------------------------

    Molecular point group: c1
  Charge       = 0
  Multiplicity = 1
  Basis Set: CC-PVTZ
  Basis Set:
  @DF-RHF Final Energy:  -450.83886745410001
    Total Energy =                       -450.8388674540999546
    Molecular point group: c1
  Basis Set: CC-PVTZ
  Basis Set:
  Basis Set: CC-PVTZ
  Basis Set:
  @DF-RHF Final Energy:  -450.83938911072272
    Total Energy =                       -450.8393891107227773
  Basis Set: CC-PVTZ
  Basis Set:
  Basis Set: CC-PVTZ
  Basis Set:
  @DF-RHF Final Energy:  -450.83995146461382
    Total Energy =                       -450.8399514646138186
  Basis Set: CC-PVTZ
  Basis Set:
  Basis Set: CC-PVTZ
  Basis Set:
  @DF-RHF Final Energy:  -450.83997863561166
    Total Energy =                       -450.8399786356118284
  Basis Set: CC-PVTZ
  Basis Set:
  Charge       = 0
  Multiplicity = 1
  Basis Set: CC-PVTZ
  Basis Set:

    Orbital Energies (a.u.)
    -----------------------

    Doubly Occupied:

       1A    -26.337836     2A    -26.336827     3A    -26.335560
       4A    -20.582619     5A    -11.494965     6A    -11.310084
       7A     -1.747320     8A     -1.644019     9A     -1.640712
      10A     -1.405666    11A     -1.044482    12A     -0.929755
      13A     -0.835860    14A     -0.834492    15A     -0.812043
      16A     -0.730769    17A     -0.719367    18A     -0.703854
      19A     -0.670397    20A     -0.664545    21A     -0.647319
      22A     -0.630993    23A     -0.614815    24A     -0.529625
      25A     -0.483989

  @DF-RHF Final Energy:  -450.83998051039521

   => Energetics <=

    Nuclear Repulsion Energy =            276.4807078030705725
    One-Electron Energy =               -1175.2655543955042958
    Two-Electron Energy =                 447.9448660820386294
    DFT Exchange-Correlation Energy =       0.0000000000000000
    Empirical Dispersion Energy =           0.0000000000000000
    PCM Polarization Energy =               0.0000000000000000
    EFP Energy =                            0.0000000000000000
    Total Energy =                       -450.8399805103950939
    Molecular point group: c1
  Basis Set: CC-PVTZ
  Basis Set:

  -Total Gradient:
     Atom            X                  Y                   Z
    ------   -----------------  -----------------  -----------------
       1        0.000000184336     0.000008697677    -0.000005156128
       2        0.000137097156     0.000067423083    -0.000022083426
       3        0.000504668927     0.001175840834     0.000314244946
       4        0.000166297929     0.000234276007     0.001289796635
       5       -0.000570725434    -0.001079331354    -0.000559714873
       6        0.000001370621    -0.000022575734    -0.000003581038
       7       -0.000145659851    -0.000394777994    -0.001009600980
       8       -0.000043205217     0.000070420319     0.000118782280
       9       -0.000050028468    -0.000059972834    -0.000122687414

  **** Optimization is complete! (in 5 steps) ****
    Final optimized geometry and variables:
    Molecular point group: c1

    Geometry (in Angstrom), charge = 0, multiplicity = 1:

    H           -2.154814573866    -0.699753828254    -0.585429755931
    O           -2.079755169446    -0.073786687139     0.112672157562
    C           -0.993558703010     0.762048998358    -0.079564979246
    C            0.359041916346     0.036749008863    -0.008508828114
    H           -1.036560728116     1.268374554219    -1.035994128727
    H           -1.014894133091     1.498298070703     0.707501782973
    F            0.235928251059    -1.221075270184     0.341942040691
    F            0.967781750331     0.051563557295    -1.181858207705
    F            1.171168081844     0.617441272828     0.849168403503

  Mulliken Charges: (a.u.)
   Center  Symbol    Alpha    Beta     Spin     Total
       1     H     0.38915  0.38915  0.00000  0.22171
       2     O     4.18404  4.18404  0.00000 -0.36808
       3     C     3.00738  3.00738  0.00000 -0.01477
       4     C     2.67985  2.67985  0.00000  0.64030
       5     H     0.46038  0.46038  0.00000  0.07924
       6     H     0.44746  0.44746  0.00000  0.10507
       7     F     4.60702  4.60702  0.00000 -0.21403
       8     F     4.61427  4.61427  0.00000 -0.22854
       9     F     4.61045  4.61045  0.00000 -0.22090

   Total alpha = 25.00000, Total beta = 25.00000, Total charge = -0.00000

*** Psi4 exiting successfully. Buy a developer a beer!
