  ==> Input File <==

--------------------------------------------------------------------------
set {
	reference rhf
	basis 6-31G*
}

set_num_threads( 4 )
memory 2 gb

molecule MOL {
0 1

O	 -1.525407	 -0.153733	 -1.753196
C	 -1.436487	 0.478966	 -0.751169
C	 -2.202981	 1.739747	 -0.455767
O	 -0.632575	 0.154573	 0.251549
H	 -1.511665	 2.555405	 -0.277636
H	 -2.847139	 1.976173	 -1.289433
H	 -2.793021	 1.607234	 0.443705
C	 0.160891	 -1.019931	 0.106212
C	 1.589627	 -0.672828	 0.480843
H	 0.089836	 -1.367806	 -0.916050
H	 -0.238459	 -1.792301	 0.749618
C	 2.246377	 0.346236	 -0.452210
H	 2.163194	 -1.597435	 0.473358
H	 1.604769	 -0.303424	 1.502885
C	 3.691736	 0.652107	 -0.061850
H	 2.219579	 -0.032311	 -1.472055
H	 1.666466	 1.263317	 -0.447249
H	 4.134505	 1.377213	 -0.737283
H	 4.305508	 -0.243868	 -0.089969
H	 3.748266	 1.059562	 0.943567

	symmetry c1
}
set optking {
	frozen_dihedral = ("
		2 4 8 10
	")
}

ee = optimize('scf')
oeprop('DIPOLE', 'QUADRUPOLE', 'MULLIKEN_CHARGES')
f=open( 'psi4out.xyz', 'w' )
f.write( "20  " )
f.write( str(ee) + "\n" )
f.write( MOL.save_string_xyz() )
f.close()
--------------------------------------------------------------------------

    Molecular point group: c1
  Charge       = 0
  Multiplicity = 1
  Basis Set: 6-31G*
  Basis Set:
  @DF-RHF Final Energy:  -383.94305683180937
    Total Energy =                       -383.9430568318092583
    Molecular point group: c1
  Basis Set: 6-31G*
  Basis Set:
  Basis Set: 6-31G*
  Basis Set:
  @DF-RHF Final Energy:  -383.94340655063763
    Total Energy =                       -383.9434065506376328
  Basis Set: 6-31G*
  Basis Set:
  Basis Set: 6-31G*
  Basis Set:
  @DF-RHF Final Energy:  -383.94361240403771
    Total Energy =                       -383.9436124040375944
  Basis Set: 6-31G*
  Basis Set:
  Basis Set: 6-31G*
  Basis Set:
  @DF-RHF Final Energy:  -383.94379001016023
    Total Energy =                       -383.9437900101598871
  Basis Set: 6-31G*
  Basis Set:
  Basis Set: 6-31G*
  Basis Set:
  @DF-RHF Final Energy:  -383.94382601276294
    Total Energy =                       -383.9438260127627700
  Basis Set: 6-31G*
  Basis Set:
  Basis Set: 6-31G*
  Basis Set:
  @DF-RHF Final Energy:  -383.94383649743577
    Total Energy =                       -383.9438364974359956
  Basis Set: 6-31G*
  Basis Set:
  Charge       = 0
  Multiplicity = 1
  Basis Set: 6-31G*
  Basis Set:

    Orbital Energies (a.u.)
    -----------------------

    Doubly Occupied:

       1A    -20.600893     2A    -20.543404     3A    -11.375760
       4A    -11.280946     5A    -11.232770     6A    -11.225228
       7A    -11.221057     8A    -11.213525     9A     -1.465267
      10A     -1.362595    11A     -1.085391    12A     -1.028559
      13A     -0.981083    14A     -0.883959    15A     -0.809548
      16A     -0.773303    17A     -0.692956    18A     -0.679501
      19A     -0.664001    20A     -0.632505    21A     -0.602391
      22A     -0.593985    23A     -0.572890    24A     -0.548447
      25A     -0.539981    26A     -0.537094    27A     -0.506618
      28A     -0.487493    29A     -0.478663    30A     -0.473625
      31A     -0.442473    32A     -0.437438

  @DF-RHF Final Energy:  -383.94383609867975

   => Energetics <=

    Nuclear Repulsion Energy =            388.7793595703850542
    One-Electron Energy =               -1293.4996940113460369
    Two-Electron Energy =                 520.7764983422811156
    DFT Exchange-Correlation Energy =       0.0000000000000000
    Empirical Dispersion Energy =           0.0000000000000000
    PCM Polarization Energy =               0.0000000000000000
    EFP Energy =                            0.0000000000000000
    Total Energy =                       -383.9438360986798671
    Molecular point group: c1
  Basis Set: 6-31G*
  Basis Set:

  -Total Gradient:
     Atom            X                  Y                   Z
    ------   -----------------  -----------------  -----------------
       1        0.000027598203     0.000020722572    -0.000019024234
       2        0.000463427224     0.000400500836    -0.000283344722
       3        0.000014880915     0.000030591819    -0.000019952357
       4       -0.001018443174    -0.000839583738     0.000512328184
       5       -0.000004150959     0.000015977223     0.000002311697
       6        0.000005393303     0.000003573658     0.000001815274
       7        0.000007970234    -0.000005255092    -0.000003121676
       8        0.001202649583     0.000908256178    -0.000467973382
       9        0.000014129256    -0.000036012232     0.000016456983
      10       -0.000697563659    -0.000512583797     0.000262762043
      11       -0.000047101180     0.000039748619     0.000025382024
      12        0.000015145614    -0.000056770429    -0.000029928494
      13        0.000011447893    -0.000001838564    -0.000016252145
      14        0.000016511604    -0.000014922042     0.000012797455
      15       -0.000016165416     0.000043494801     0.000024658221
      16        0.000015782360    -0.000003847698    -0.000005792277
      17       -0.000008726861    -0.000001136530    -0.000018197838
      18       -0.000002894114     0.000015066375     0.000010904555
      19       -0.000011459696     0.000004367848    -0.000016646559
      20        0.000011568876    -0.000010349806     0.000010817253

  **** Optimization is complete! (in 7 steps) ****
    Final optimized geometry and variables:
    Molecular point group: c1

    Geometry (in Angstrom), charge = 0, multiplicity = 1:

    O           -1.832515897182    -0.341048156488    -1.431498708162
    C           -1.697159575938     0.279742638753    -0.427513983926
    C           -2.444227113394     1.543441495282    -0.094953449628
    O           -0.866100343831    -0.051069552841     0.552519624644
    H           -1.741727660718     2.352656190672     0.067877296795
    H           -3.114395306533     1.791871415075    -0.904250317154
    H           -3.004294650677     1.405790649515     0.822713472282
    C           -0.042763805425    -1.209172811228     0.425505658321
    C            1.380626939763    -0.859475545817     0.823958907745
    H           -0.101526278342    -1.580001250752    -0.585246243715
    H           -0.451965096065    -1.959741075092     1.090376355439
    C            2.059506896657     0.138061812220    -0.115771713768
    H            1.950395605015    -1.786484182802     0.846887959448
    H            1.377656501312    -0.469304168090     1.838299133126
    C            3.497164805227     0.449894066198     0.298115483233
    H            2.051219019329    -0.258291107767    -1.128668186556
    H            1.484020485570     1.058543771123    -0.139151762025
    H            3.953687494000     1.163295417527    -0.380544820736
    H            4.110383250941    -0.446851196706     0.296723507935
    H            3.534281392727     0.873718670603     1.297653185069

  Mulliken Charges: (a.u.)
   Center  Symbol    Alpha    Beta     Spin     Total
       1     O     4.28250  4.28250  0.00000 -0.56500
       2     C     2.61926  2.61926  0.00000  0.76148
       3     C     3.28255  3.28255  0.00000 -0.56509
       4     O     4.31018  4.31018  0.00000 -0.62036
       5     H     0.40122  0.40122  0.00000  0.19755
       6     H     0.39713  0.39713  0.00000  0.20574
       7     H     0.40038  0.40038  0.00000  0.19923
       8     C     3.01140  3.01140  0.00000 -0.02280
       9     C     3.16202  3.16202  0.00000 -0.32404
      10     H     0.39504  0.39504  0.00000  0.20991
      11     H     0.41287  0.41287  0.00000  0.17426
      12     C     3.15626  3.15626  0.00000 -0.31251
      13     H     0.41935  0.41935  0.00000  0.16130
      14     H     0.41472  0.41472  0.00000  0.17056
      15     C     3.24012  3.24012  0.00000 -0.48023
      16     H     0.41897  0.41897  0.00000  0.16206
      17     H     0.41677  0.41677  0.00000  0.16646
      18     H     0.41720  0.41720  0.00000  0.16559
      19     H     0.42134  0.42134  0.00000  0.15732
      20     H     0.42072  0.42072  0.00000  0.15856

   Total alpha = 32.00000, Total beta = 32.00000, Total charge = -0.00000
