  ==> Input File <==

--------------------------------------------------------------------------
set {
	reference rhf
	basis 6-31G*
}

set_num_threads( 1 )
memory 2 gb

molecule MOL {
0 1

H	 4.593867	 0.299617	 -0.485965
C	 3.742646	 -0.332906	 -0.255558
C	 2.440513	 0.466328	 -0.280840
H	 3.723339	 -1.137853	 -0.984883
H	 3.915874	 -0.776210	 0.721028
C	 1.217350	 -0.386724	 0.039429
H	 2.298869	 0.921385	 -1.256159
H	 2.505725	 1.283340	 0.435841
N	 0.000003	 0.397874	 -0.023260
H	 1.137198	 -1.187039	 -0.691347
H	 1.352277	 -0.869520	 1.013124
C	 -1.217365	 -0.386708	 0.039277
H	 -0.000031	 1.072115	 0.718656
C	 -2.452633	 0.504241	 -0.042481
H	 -1.215291	 -1.074557	 -0.802042
H	 -1.269739	 -1.003477	 0.942735
C	 -3.758029	 -0.289423	 -0.010781
H	 -2.394220	 1.093569	 -0.952170
H	 -2.440793	 1.210787	 0.785871
H	 -3.816659	 -0.981993	 -0.845726
H	 -4.617837	 0.370165	 -0.069296
H	 -3.847478	 -0.867502	 0.904682

	symmetry c1
}
set optking {
	frozen_dihedral = ("
		15 12 14 18
	")
}

ee = energy('scf')
oeprop('DIPOLE', 'QUADRUPOLE', 'MULLIKEN_CHARGES')
f=open( 'psi4out.xyz', 'w' )
f.write( "22  " )
f.write( str(ee) + "\n" )
f.write( MOL.save_string_xyz() )
f.close()
--------------------------------------------------------------------------

    Molecular point group: c1

    Geometry (in Angstrom), charge = 0, multiplicity = 1:

       Center              X                  Y                   Z               Mass
    ------------   -----------------  -----------------  -----------------  -----------------
           H          4.597878642352     0.311394114531    -0.416471274702     1.007825032070
           C          3.746657642352    -0.321128885469    -0.186064274702    12.000000000000
           C          2.444524642352     0.478105114531    -0.211346274702    12.000000000000
           H          3.727350642352    -1.126075885469    -0.915389274702     1.007825032070
           H          3.919885642352    -0.764432885469     0.790521725298     1.007825032070
           C          1.221361642352    -0.374946885469     0.108922725298    12.000000000000
           H          2.302880642352     0.933162114531    -1.186665274702     1.007825032070
           H          2.509736642352     1.295117114531     0.505334725298     1.007825032070
           N          0.004014642352     0.409651114531     0.046233725298    14.003074004780
           H          1.141209642352    -1.175261885469    -0.621853274702     1.007825032070
           H          1.356288642352    -0.857742885469     1.082617725298     1.007825032070
           C         -1.213353357648    -0.374930885469     0.108770725298    12.000000000000
           H          0.003980642352     1.083892114531     0.788149725298     1.007825032070
           C         -2.448621357648     0.516018114531     0.027012725298    12.000000000000
           H         -1.211279357648    -1.062779885469    -0.732548274702     1.007825032070
           H         -1.265727357648    -0.991699885469     1.012228725298     1.007825032070
           C         -3.754017357648    -0.277645885469     0.058712725298    12.000000000000
           H         -2.390208357648     1.105346114531    -0.882676274702     1.007825032070
           H         -2.436781357648     1.222564114531     0.855364725298     1.007825032070
           H         -3.812647357648    -0.970215885469    -0.776232274702     1.007825032070
           H         -4.613825357648     0.381942114531     0.000197725298     1.007825032070
           H         -3.843466357648    -0.855724885469     0.974175725298     1.007825032070

  Charge       = 0
  Multiplicity = 1
  Basis Set: 6-31G*
  Basis Set:

    Orbital Energies (a.u.)
    -----------------------

    Doubly Occupied:

       1A    -15.533639     2A    -11.238180     3A    -11.238010
       4A    -11.213584     5A    -11.211585     6A    -11.209798
       7A    -11.208634     8A     -1.205604     9A     -1.058723
      10A     -1.025577    11A     -0.927901    12A     -0.868560
      13A     -0.810080    14A     -0.793267    15A     -0.670286
      16A     -0.626401    17A     -0.614357    18A     -0.610445
      19A     -0.574966    20A     -0.562673    21A     -0.530686
      22A     -0.524867    23A     -0.516062    24A     -0.484721
      25A     -0.483615    26A     -0.473983    27A     -0.465481
      28A     -0.450663    29A     -0.358481

  @DF-RHF Final Energy:  -290.38291517890684

   => Energetics <=

    Nuclear Repulsion Energy =            313.1891412352490534
    One-Electron Energy =               -1012.1624606753384796
    Two-Electron Energy =                 408.5904042611834370
    DFT Exchange-Correlation Energy =       0.0000000000000000
    Empirical Dispersion Energy =           0.0000000000000000
    PCM Polarization Energy =               0.0000000000000000
    EFP Energy =                            0.0000000000000000
    Total Energy =                       -290.3829151789059893

  Mulliken Charges: (a.u.)
   Center  Symbol    Alpha    Beta     Spin     Total
       1     H     0.41787  0.41787  0.00000  0.16426
       2     C     3.24379  3.24379  0.00000 -0.48759
       3     C     3.15163  3.15163  0.00000 -0.30326
       4     H     0.42128  0.42128  0.00000  0.15745
       5     H     0.42213  0.42213  0.00000  0.15574
       6     C     3.04933  3.04933  0.00000 -0.09866
       7     H     0.41359  0.41359  0.00000  0.17282
       8     H     0.42654  0.42654  0.00000  0.14693
       9     N     3.85798  3.85798  0.00000 -0.71596
      10     H     0.42205  0.42205  0.00000  0.15590
      11     H     0.43553  0.43553  0.00000  0.12893
      12     C     3.04637  3.04637  0.00000 -0.09274
      13     H     0.33506  0.33506  0.00000  0.32988
      14     C     3.15567  3.15567  0.00000 -0.31134
      15     H     0.42159  0.42159  0.00000  0.15682
      16     H     0.43654  0.43654  0.00000  0.12692
      17     C     3.24328  3.24328  0.00000 -0.48656
      18     H     0.41299  0.41299  0.00000  0.17402
      19     H     0.42670  0.42670  0.00000  0.14660
      20     H     0.42073  0.42073  0.00000  0.15855
      21     H     0.41771  0.41771  0.00000  0.16458
      22     H     0.42164  0.42164  0.00000  0.15671

   Total alpha = 29.00000, Total beta = 29.00000, Total charge = -0.00000
