                              Psi4 1.0.54 Driver

  ==> Input File <==

--------------------------------------------------------------------------
set {
	reference rhf
	basis cc-pvtz
}

set_num_threads( 4 )
memory 2 gb

molecule MOL {
0 1

H	 -2.202844	 0.232365	 2.556094
C	 -1.809542	 -0.710089	 2.930231
O	 -0.613226	 -1.043801	 2.309743
H	 -1.616697	 -0.610610	 3.988438
H	 -2.564707	 -1.480217	 2.783558
C	 -0.709081	 -1.215920	 0.933944
C	 0.659923	 -1.470497	 0.354837
H	 -1.353023	 -2.064650	 0.703800
H	 -1.137368	 -0.332980	 0.464457
O	 1.401606	 -0.295166	 0.366636
H	 1.155912	 -2.244517	 0.936489
H	 0.548888	 -1.836391	 -0.665832
C	 2.714315	 -0.441627	 -0.061017
H	 2.765292	 -0.641548	 -1.128869
H	 3.305661	 0.447341	 0.150952
H	 3.143725	 -1.278506	 0.470147

	symmetry c1
}
set optking {
	frozen_dihedral = ("
		7 10 13 14
	")
}

ee,wfn = optimize('scf', return_wfn=True)
oeprop( wfn, 'DIPOLE', 'QUADRUPOLE', 'MULLIKEN_CHARGES')
f=open( 'psi4out.xyz', 'w' )
f.write( "16  " )
f.write( str(ee) + "\n" )
f.write( MOL.save_string_xyz() )
f.close()
--------------------------------------------------------------------------

    Molecular point group: c1
  Charge       = 0
  Multiplicity = 1
  Basis Set: CC-PVTZ
  Basis Set:
  @DF-RHF Final Energy:  -307.09657791260327
    Total Energy =                       -307.0965779126033794
    Molecular point group: c1
  Basis Set: CC-PVTZ
  Basis Set:
  Basis Set: CC-PVTZ
  Basis Set:
  @DF-RHF Final Energy:  -307.09748938217746
    Total Energy =                       -307.0974893821771730
  Basis Set: CC-PVTZ
  Basis Set:
  Basis Set: CC-PVTZ
  Basis Set:
  @DF-RHF Final Energy:  -307.09772748414264
    Total Energy =                       -307.0977274841426379
  Basis Set: CC-PVTZ
  Basis Set:
  Charge       = 0
  Multiplicity = 1
  Basis Set: CC-PVTZ
  Basis Set:

    Orbital Energies (a.u.)
    -----------------------

    Doubly Occupied:

       1A    -20.547816     2A    -20.547669     3A    -11.267580
       4A    -11.266898     5A    -11.261616     6A    -11.261535
       7A     -1.391716     8A     -1.374476     9A     -1.032145
      10A     -0.937276    11A     -0.892183    12A     -0.824373
      13A     -0.686395    14A     -0.682787    15A     -0.659412
      16A     -0.638489    17A     -0.632093    18A     -0.598409
      19A     -0.551401    20A     -0.535971    21A     -0.509721
      22A     -0.479592    23A     -0.464750    24A     -0.423368
      25A     -0.413561

  @DF-RHF Final Energy:  -307.09772836891193

   => Energetics <=

    Nuclear Repulsion Energy =            258.9018323383966163
    One-Electron Energy =                -932.2366613315282393
    Two-Electron Energy =                 366.2371006242196358
    DFT Exchange-Correlation Energy =       0.0000000000000000
    Empirical Dispersion Energy =           0.0000000000000000
    PCM Polarization Energy =               0.0000000000000000
    EFP Energy =                            0.0000000000000000
    Total Energy =                       -307.0977283689119872
    Molecular point group: c1
  Basis Set: CC-PVTZ
  Basis Set:

  -Total Gradient:
     Atom            X                  Y                   Z
    ------   -----------------  -----------------  -----------------
       1        0.000002517280    -0.000001337613    -0.000001338907
       2        0.000000732463     0.000001013515     0.000008169684
       3       -0.000006601440    -0.000015343929     0.000026963387
       4       -0.000002599459    -0.000000612413     0.000001686568
       5       -0.000001248747    -0.000000422804     0.000001055215
       6        0.000050206939     0.000111580415     0.000002113553
       7        0.000342049959    -0.000322351715     0.000936109451
       8        0.000055387147     0.000001855505    -0.000012475005
       9       -0.000023240502     0.000007649438    -0.000016759667
      10       -0.000406028319     0.000718269749    -0.001521178586
      11        0.000029064833     0.000027916176     0.000011321636
      12        0.000002613474    -0.000002306680    -0.000001065719
      13       -0.000018874594    -0.001892956371     0.000785549730
      14        0.000004821820     0.001354720965    -0.000227980977
      15       -0.000023517478     0.000019827199     0.000002850944
      16       -0.000005283380    -0.000007501436     0.000004978694

  **** Optimization is complete! (in 4 steps) ****
    Final optimized geometry and variables:
    Molecular point group: c1

    Geometry (in Angstrom), charge = 0, multiplicity = 1:

    H           -2.480762657158     1.047222558282     1.442708196701
    C           -2.076626326871     0.103117808917     1.800755852566
    O           -0.881319506867    -0.210721414860     1.168057545002
    H           -1.877980502009     0.189084354395     2.859070151647
    H           -2.825735755050    -0.671674204975     1.647657568792
    C           -0.984263852000    -0.363550265964    -0.209499719059
    C            0.383178040584    -0.598444865457    -0.800495213484
    H           -1.622167242728    -1.214498294697    -0.448084966521
    H           -1.423108102945     0.522271893770    -0.663508452908
    O            1.115673696311     0.582324768194    -0.772787227165
    H            0.889105516620    -1.376852650469    -0.233957140742
    H            0.268002006662    -0.949734862455    -1.826036305312
    C            2.425940797230     0.458673580496    -1.215268298102
    H            2.469699537662     0.280950436302    -2.288247250321
    H            2.934174856451     1.388326772665    -1.003045609728
    H            2.947199514803    -0.347553491496    -0.705246350547

  Mulliken Charges: (a.u.)
   Center  Symbol    Alpha    Beta     Spin     Total
       1     H     0.47020  0.47020  0.00000  0.05960
       2     C     3.03200  3.03200  0.00000 -0.06400
       3     O     4.17041  4.17041  0.00000 -0.34082
       4     H     0.44635  0.44635  0.00000  0.10730
       5     H     0.47369  0.47369  0.00000  0.05262
       6     C     2.96069  2.96069  0.00000  0.07861
       7     C     2.96053  2.96053  0.00000  0.07894
       8     H     0.47616  0.47616  0.00000  0.04768
       9     H     0.47068  0.47068  0.00000  0.05864
      10     O     4.17062  4.17062  0.00000 -0.34123
      11     H     0.46979  0.46979  0.00000  0.06041
      12     H     0.47686  0.47686  0.00000  0.04628
      13     C     3.03176  3.03176  0.00000 -0.06351
      14     H     0.47166  0.47166  0.00000  0.05668
      15     H     0.44659  0.44659  0.00000  0.10683
      16     H     0.47202  0.47202  0.00000  0.05596

   Total alpha = 25.00000, Total beta = 25.00000, Total charge = -0.00000

*** Psi4 exiting successfully. Buy a developer a beer!
