                              Psi4 1.0.54 Driver

  ==> Input File <==

--------------------------------------------------------------------------
set {
	reference rhf
	basis cc-pvtz
}

set_num_threads( 4 )
memory 2 gb

molecule MOL {
0 1

H	 -1.752232	 -2.214755	 -0.011938
C	 -1.343852	 -1.221619	 -0.018179
N	 -0.058800	 -1.097635	 -0.261688
C	 -2.148159	 -0.124236	 0.219734
C	 0.449026	 0.119242	 -0.273393
H	 -3.196988	 -0.237571	 0.417076
N	 -1.655094	 1.094230	 0.209506
C	 -0.370318	 1.215445	 -0.035100
C	 1.924033	 0.265863	 -0.538106
H	 0.033214	 2.210441	 -0.046812
C	 2.704241	 -1.018729	 -0.254294
H	 2.054643	 0.543975	 -1.577027
H	 2.318340	 1.076184	 0.063656
H	 3.753589	 -0.884626	 -0.488432
H	 2.323593	 -1.835763	 -0.853078
H	 2.626268	 -1.300077	 0.789884

	symmetry c1
}
set optking {
	frozen_dihedral = ("
		12 9 5 3
	")
}

ee,wfn = optimize('scf', return_wfn=True)
oeprop( wfn, 'DIPOLE', 'QUADRUPOLE', 'MULLIKEN_CHARGES')
f=open( 'psi4out.xyz', 'w' )
f.write( "16  " )
f.write( str(ee) + "\n" )
f.write( MOL.save_string_xyz() )
f.close()
--------------------------------------------------------------------------

    Molecular point group: c1
  Charge       = 0
  Multiplicity = 1
  Basis Set: CC-PVTZ
  Basis Set:
  @DF-RHF Final Energy:  -340.87037732265185
    Total Energy =                       -340.8703773226520184
    Molecular point group: c1
  Basis Set: CC-PVTZ
  Basis Set:
  Basis Set: CC-PVTZ
  Basis Set:
  @DF-RHF Final Energy:  -340.84894045601453
    Total Energy =                       -340.8489404560147022
  Basis Set: CC-PVTZ
  Basis Set:
  Basis Set: CC-PVTZ
  Basis Set:
  @DF-RHF Final Energy:  -340.87084479162928
    Total Energy =                       -340.8708447916288833
  Basis Set: CC-PVTZ
  Basis Set:
  Basis Set: CC-PVTZ
  Basis Set:
  @DF-RHF Final Energy:  -340.87111901307105
    Total Energy =                       -340.8711190130709383
  Basis Set: CC-PVTZ
  Basis Set:
  Basis Set: CC-PVTZ
  Basis Set:
  @DF-RHF Final Energy:  -340.87113224084112
    Total Energy =                       -340.8711322408408932
  Basis Set: CC-PVTZ
  Basis Set:
  Basis Set: CC-PVTZ
  Basis Set:
  @DF-RHF Final Energy:  -340.87115027832817
    Total Energy =                       -340.8711502783282867
  Basis Set: CC-PVTZ
  Basis Set:
  Basis Set: CC-PVTZ
  Basis Set:
  @DF-RHF Final Energy:  -340.87115484775200
    Total Energy =                       -340.8711548477519955
  Basis Set: CC-PVTZ
  Basis Set:
  Charge       = 0
  Multiplicity = 1
  Basis Set: CC-PVTZ
  Basis Set:

    Orbital Energies (a.u.)
    -----------------------

    Doubly Occupied:

       1A    -15.580410     2A    -15.575091     3A    -11.280196
       4A    -11.271116     5A    -11.269037     6A    -11.266396
       7A    -11.233338     8A    -11.211387     9A     -1.315902
      10A     -1.223968    11A     -1.084903    12A     -1.015155
      13A     -0.911750    14A     -0.890965    15A     -0.825670
      16A     -0.720453    17A     -0.708905    18A     -0.658430
      19A     -0.627964    20A     -0.604108    21A     -0.571203
      22A     -0.561028    23A     -0.523449    24A     -0.504346
      25A     -0.501947    26A     -0.487544    27A     -0.434623
      28A     -0.397200    29A     -0.345862

  @DF-RHF Final Energy:  -340.87115527886192

   => Energetics <=

    Nuclear Repulsion Energy =            350.4084841376792383
    One-Electron Energy =               -1155.3545857188069022
    Two-Electron Energy =                 464.0749463022659143
    DFT Exchange-Correlation Energy =       0.0000000000000000
    Empirical Dispersion Energy =           0.0000000000000000
    PCM Polarization Energy =               0.0000000000000000
    EFP Energy =                            0.0000000000000000
    Total Energy =                       -340.8711552788617496
    Molecular point group: c1
  Basis Set: CC-PVTZ
  Basis Set:

  -Total Gradient:
     Atom            X                  Y                   Z
    ------   -----------------  -----------------  -----------------
       1        0.000009750768    -0.000006049001     0.000040914743
       2       -0.000068058601     0.000043109549    -0.000107204832
       3        0.000126760961    -0.000105070991     0.000426019714
       4        0.000003379320    -0.000054938984    -0.000017278004
       5       -0.000089421027     0.000210659066    -0.000427885920
       6        0.000000299484    -0.000013305303     0.000020398010
       7        0.000060140567     0.000001660591    -0.000026007313
       8       -0.000009003952     0.000035734971     0.000046351802
       9       -0.000047788571    -0.000600161909    -0.000140202215
      10        0.000004005400     0.000004571495    -0.000023452203
      11       -0.000037624963     0.000057908700    -0.000009903103
      12        0.000082990313     0.000416731753     0.000197145972
      13       -0.000016465390    -0.000020225477    -0.000014820722
      14       -0.000032641999     0.000000254213     0.000021046999
      15        0.000018883598     0.000037903569     0.000011262450
      16       -0.000005205906    -0.000008782246     0.000003614620

  **** Optimization is complete! (in 8 steps) ****
    Final optimized geometry and variables:
    Molecular point group: c1

    Geometry (in Angstrom), charge = 0, multiplicity = 1:

    H           -2.207265196109    -1.642116731654    -0.167043467073
    C           -1.577502855679    -0.784994327774    -0.021579576245
    N           -0.294164583556    -0.924836847282    -0.296832101859
    C           -2.095238717725     0.403397897564     0.436022494841
    C            0.486149620523     0.115046750339    -0.121144208306
    H           -3.139782898606     0.507734316475     0.657684345024
    N           -1.321124901928     1.456864619154     0.622258900494
    C           -0.050515149939     1.314365804345     0.349880201600
    C            1.956712878172     0.009206930591    -0.450182491386
    H            0.583403085224     2.167872953434     0.504780156933
    C            2.508727288507    -1.410444253573    -0.446169230214
    H            2.117969109136     0.460428731886    -1.425705479860
    H            2.509326368226     0.622062163993     0.253681666270
    H            3.569341887243    -1.394277232505    -0.666730415451
    H            2.014219319787    -2.025628853116    -1.183934978128
    H            2.370634863283    -1.880129899571     0.520159517922

  Mulliken Charges: (a.u.)
   Center  Symbol    Alpha    Beta     Spin     Total
       1     H     0.41462  0.41462  0.00000  0.17075
       2     C     3.04618  3.04618  0.00000 -0.09237
       3     N     3.59006  3.59006  0.00000 -0.18011
       4     C     3.04727  3.04727  0.00000 -0.09454
       5     C     2.94490  2.94490  0.00000  0.11019
       6     H     0.41367  0.41367  0.00000  0.17266
       7     N     3.58678  3.58678  0.00000 -0.17356
       8     C     3.07531  3.07531  0.00000 -0.15063
       9     C     3.07906  3.07906  0.00000 -0.15812
      10     H     0.41655  0.41655  0.00000  0.16691
      11     C     3.14418  3.14418  0.00000 -0.28836
      12     H     0.44635  0.44635  0.00000  0.10730
      13     H     0.44817  0.44817  0.00000  0.10365
      14     H     0.45021  0.45021  0.00000  0.09959
      15     H     0.44481  0.44481  0.00000  0.11037
      16     H     0.45187  0.45187  0.00000  0.09626

   Total alpha = 29.00000, Total beta = 29.00000, Total charge = -0.00000

*** Psi4 exiting successfully. Buy a developer a beer!
