                              Psi4 1.0.54 Driver

  ==> Input File <==

--------------------------------------------------------------------------
set {
	reference rhf
	basis cc-pvtz
}

set_num_threads( 4 )
memory 2 gb

molecule MOL {
0 1

O	 1.351299	 1.079498	 -0.661166
C	 1.121787	 0.124983	 0.000110
C	 -0.170912	 -0.649867	 -0.000147
O	 1.994783	 -0.396913	 0.846207
C	 -1.413045	 0.229353	 0.001137
H	 -0.152877	 -1.303435	 -0.866175
H	 -0.152278	 -1.305116	 0.864586
C	 -2.702562	 -0.586401	 0.000228
H	 -1.390744	 0.882001	 -0.864365
H	 -1.390549	 0.879837	 0.868264
C	 -3.953810	 0.284959	 -0.000782
H	 -2.717793	 -1.238567	 -0.869075
H	 -2.719108	 -1.238472	 0.869576
H	 -3.983727	 0.924403	 -0.876454
H	 -4.852989	 -0.320147	 -0.001515
H	 -3.985140	 0.924399	 0.874841
C	 3.255774	 0.232999	 0.948345
H	 3.766295	 0.220881	 -0.003206
H	 3.813111	 -0.333107	 1.676883
H	 3.145558	 1.256074	 1.276053

	symmetry c1
}
set optking {
	frozen_dihedral = ("
		1 2 3 6
	")
}

ee,wfn = optimize('scf', return_wfn=True)
oeprop( wfn, 'DIPOLE', 'QUADRUPOLE', 'MULLIKEN_CHARGES')
f=open( 'psi4out.xyz', 'w' )
f.write( "20  " )
f.write( str(ee) + "\n" )
f.write( MOL.save_string_xyz() )
f.close()
--------------------------------------------------------------------------

    Molecular point group: c1
  Charge       = 0
  Multiplicity = 1
  Basis Set: CC-PVTZ
  Basis Set:
  @DF-RHF Final Energy:  -384.08179253294600
    Total Energy =                       -384.0817925329458831
    Molecular point group: c1
  Basis Set: CC-PVTZ
  Basis Set:
  Basis Set: CC-PVTZ
  Basis Set:
  @DF-RHF Final Energy:  -384.08159816589006
    Total Energy =                       -384.0815981658900000
  Basis Set: CC-PVTZ
  Basis Set:
  Basis Set: CC-PVTZ
  Basis Set:
  @DF-RHF Final Energy:  -384.08175944692158
    Total Energy =                       -384.0817594469215237
  Basis Set: CC-PVTZ
  Basis Set:
  Basis Set: CC-PVTZ
  Basis Set:
  @DF-RHF Final Energy:  -384.08231027669058
    Total Energy =                       -384.0823102766905777
  Basis Set: CC-PVTZ
  Basis Set:
  Basis Set: CC-PVTZ
  Basis Set:
  @DF-RHF Final Energy:  -384.08231781454418
    Total Energy =                       -384.0823178145444672
  Basis Set: CC-PVTZ
  Basis Set:
  Basis Set: CC-PVTZ
  Basis Set:
  @DF-RHF Final Energy:  -384.08231909440542
    Total Energy =                       -384.0823190944054204
  Basis Set: CC-PVTZ
  Basis Set:
  Charge       = 0
  Multiplicity = 1
  Basis Set: CC-PVTZ
  Basis Set:

    Orbital Energies (a.u.)
    -----------------------

    Doubly Occupied:

       1A    -20.598378     2A    -20.532166     3A    -11.364589
       4A    -11.278668     5A    -11.233139     6A    -11.220556
       7A    -11.219207     8A    -11.209646     9A     -1.472804
      10A     -1.365151    11A     -1.090571    12A     -1.025142
      13A     -0.970431    14A     -0.887299    15A     -0.805078
      16A     -0.772128    17A     -0.698264    18A     -0.685360
      19A     -0.675880    20A     -0.647957    21A     -0.599049
      22A     -0.593525    23A     -0.577340    24A     -0.548695
      25A     -0.535235    26A     -0.524547    27A     -0.502614
      28A     -0.478395    29A     -0.477458    30A     -0.471706
      31A     -0.459574    32A     -0.437562

  @DF-RHF Final Energy:  -384.08231915675333

   => Energetics <=

    Nuclear Repulsion Energy =            381.8864906364104854
    One-Electron Energy =               -1280.0213931543482886
    Two-Electron Energy =                 514.0525833611845883
    DFT Exchange-Correlation Energy =       0.0000000000000000
    Empirical Dispersion Energy =           0.0000000000000000
    PCM Polarization Energy =               0.0000000000000000
    EFP Energy =                            0.0000000000000000
    Total Energy =                       -384.0823191567532149
    Molecular point group: c1
  Basis Set: CC-PVTZ
  Basis Set:

  -Total Gradient:
     Atom            X                  Y                   Z
    ------   -----------------  -----------------  -----------------
       1        0.000316891455    -0.000580027943    -0.000672147646
       2       -0.000519789771     0.000963980793     0.000890828456
       3        0.000610545080    -0.001029033117     0.000280089565
       4        0.000016882069     0.000007411421    -0.000003182722
       5       -0.000010479348     0.000008719424    -0.000007400200
       6       -0.000388866338     0.000633991838    -0.000480475855
       7        0.000000025916     0.000002780449    -0.000001951304
       8        0.000003271805     0.000002337478    -0.000003129838
       9        0.000001637273    -0.000000818412    -0.000001555644
      10       -0.000002019853     0.000001107079    -0.000001193544
      11        0.000001613979    -0.000002110897     0.000003993219
      12       -0.000002404487     0.000000039949    -0.000003227266
      13        0.000000298583    -0.000002722160    -0.000000974163
      14        0.000000886704    -0.000001370793    -0.000000811132
      15       -0.000000918058    -0.000000442618     0.000002563986
      16       -0.000000270938     0.000003153122     0.000001523304
      17       -0.000035997763    -0.000013962071    -0.000000581260
      18        0.000004657951    -0.000000449088    -0.000005742522
      19       -0.000001721773    -0.000001464748     0.000000358895
      20        0.000005757520     0.000008880297     0.000003015668

  **** Optimization is complete! (in 7 steps) ****
    Final optimized geometry and variables:
    Molecular point group: c1

    Geometry (in Angstrom), charge = 0, multiplicity = 1:

    O            1.345853488445     1.012239116102    -0.759475579950
    C            1.141548689744     0.060884468374    -0.084185115173
    C           -0.152835210134    -0.713485605063    -0.065546995901
    O            2.050812032605    -0.463995908816     0.718612274404
    C           -1.382675956505     0.188013788979    -0.136959446445
    H           -0.126605149444    -1.363168857111    -0.935942248882
    H           -0.176352065999    -1.348337240935     0.809119020518
    C           -2.684037276326    -0.605862977757    -0.196910472992
    H           -1.299802490636     0.830298761321    -1.004724698426
    H           -1.398126302818     0.842616160560     0.729910891295
    C           -3.919023545320     0.286359124743    -0.258065207186
    H           -2.667009010253    -1.257313353282    -1.066547017336
    H           -2.752737884160    -1.257041872715     0.670325759729
    H           -3.895362271972     0.926327284333    -1.133441446463
    H           -4.826802288434    -0.303955657493    -0.303323169107
    H           -3.983200428822     0.925775289036     0.615909977849
    C            3.324914416072     0.148162615961     0.741525646255
    H            3.779730810897     0.117650383502    -0.237445236382
    H            3.914272668078    -0.418278067887     1.444121056912
    H            3.247619066508     1.176302334591     1.062253328107

  Mulliken Charges: (a.u.)
   Center  Symbol    Alpha    Beta     Spin     Total
       1     O     4.20157  4.20157  0.00000 -0.40313
       2     C     2.81448  2.81448  0.00000  0.37105
       3     C     3.08672  3.08672  0.00000 -0.17344
       4     O     4.14350  4.14350  0.00000 -0.28701
       5     C     3.08829  3.08829  0.00000 -0.17658
       6     H     0.44553  0.44553  0.00000  0.10893
       7     H     0.43816  0.43816  0.00000  0.12368
       8     C     3.08764  3.08764  0.00000 -0.17528
       9     H     0.43947  0.43947  0.00000  0.12106
      10     H     0.45217  0.45217  0.00000  0.09565
      11     C     3.14909  3.14909  0.00000 -0.29817
      12     H     0.45397  0.45397  0.00000  0.09206
      13     H     0.45492  0.45492  0.00000  0.09016
      14     H     0.45320  0.45320  0.00000  0.09361
      15     H     0.44822  0.44822  0.00000  0.10356
      16     H     0.45449  0.45449  0.00000  0.09102
      17     C     3.03509  3.03509  0.00000 -0.07018
      18     H     0.45432  0.45432  0.00000  0.09136
      19     H     0.44503  0.44503  0.00000  0.10993
      20     H     0.45415  0.45415  0.00000  0.09170

   Total alpha = 32.00000, Total beta = 32.00000, Total charge = -0.00000

*** Psi4 exiting successfully. Buy a developer a beer!
