  ==> Input File <==

--------------------------------------------------------------------------
set {
	reference rhf
	basis 6-31G*
}

set_num_threads( 1 )
memory 2 gb

molecule MOL {
0 1

H	 -4.031818	 -0.453427	 -0.000094
C	 -2.967712	 -0.297022	 -0.000064
C	 -2.458620	 0.992929	 0.000032
C	 -2.109895	 -1.385637	 -0.000122
H	 -3.124998	 1.836319	 0.000077
C	 -1.090278	 1.193236	 0.000070
H	 -2.506361	 -2.384847	 -0.000198
C	 -0.739812	 -1.187531	 -0.000085
H	 -0.678594	 2.184290	 0.000146
C	 -0.226438	 0.104061	 0.000012
H	 -0.072310	 -2.027032	 -0.000131
C	 1.239129	 0.373821	 0.000060
O	 1.788009	 0.259758	 -1.200075
O	 1.862614	 0.662940	 0.972961
C	 3.181061	 0.499820	 -1.291975
H	 3.412532	 1.508020	 -0.980931
H	 3.435283	 0.360031	 -2.331053
H	 3.726879	 -0.198427	 -0.674355

	symmetry c1
}
set optking {
	frozen_dihedral = ("
		12 13 15 16,
		10 12 13 15
	")
}

ee = energy('scf')
oeprop('DIPOLE', 'QUADRUPOLE', 'MULLIKEN_CHARGES')
f=open( 'psi4out.xyz', 'w' )
f.write( "18  " )
f.write( str(ee) + "\n" )
f.write( MOL.save_string_xyz() )
f.close()
--------------------------------------------------------------------------

    Molecular point group: c1

    Geometry (in Angstrom), charge = 0, multiplicity = 1:

       Center              X                  Y                   Z               Mass
    ------------   -----------------  -----------------  -----------------  -----------------
           H         -4.005963944928    -0.593916823524     0.170099703415     1.007825032070
           C         -2.941857944928    -0.437511823524     0.170129703415    12.000000000000
           C         -2.432765944928     0.852439176476     0.170225703415    12.000000000000
           C         -2.084040944928    -1.526126823524     0.170071703415    12.000000000000
           H         -3.099143944928     1.695829176476     0.170270703415     1.007825032070
           C         -1.064423944928     1.052746176476     0.170263703415    12.000000000000
           H         -2.480506944928    -2.525336823524     0.169995703415     1.007825032070
           C         -0.713957944928    -1.328020823524     0.170108703415    12.000000000000
           H         -0.652739944928     2.043800176476     0.170339703415     1.007825032070
           C         -0.200583944928    -0.036428823524     0.170205703415    12.000000000000
           H         -0.046455944928    -2.167521823524     0.170062703415     1.007825032070
           C          1.264983055072     0.233331176476     0.170253703415    12.000000000000
           O          1.813863055072     0.119268176476    -1.029881296585    15.994914619560
           O          1.888468055072     0.522450176476     1.143154703415    15.994914619560
           C          3.206915055072     0.359330176476    -1.121781296585    12.000000000000
           H          3.438386055072     1.367530176476    -0.810737296585     1.007825032070
           H          3.461137055072     0.219541176476    -2.160859296585     1.007825032070
           H          3.752733055072    -0.338916823524    -0.504161296585     1.007825032070

  Charge       = 0
  Multiplicity = 1
  Basis Set: 6-31G*
  Basis Set:

    Orbital Energies (a.u.)
    -----------------------

    Doubly Occupied:

       1A    -20.609747     2A    -20.550222     3A    -11.380718
       4A    -11.283271     5A    -11.252152     6A    -11.245135
       7A    -11.243759     8A    -11.241173     9A    -11.240216
      10A    -11.239400    11A     -1.474811    12A     -1.366031
      13A     -1.166643    14A     -1.049376    15A     -1.026580
      16A     -0.979587    17A     -0.861360    18A     -0.838974
      19A     -0.780210    20A     -0.738085    21A     -0.686119
      22A     -0.680096    23A     -0.676006    24A     -0.631560
      25A     -0.629854    26A     -0.598449    27A     -0.591254
      28A     -0.546939    29A     -0.536304    30A     -0.517065
      31A     -0.508259    32A     -0.501745    33A     -0.458761
      34A     -0.445616    35A     -0.343514    36A     -0.341575

  @DF-RHF Final Energy:  -457.33813767878814

   => Energetics <=

    Nuclear Repulsion Energy =            491.5413927489993284
    One-Electron Energy =               -1597.2380999407550917
    Two-Electron Energy =                 648.3585695129683018
    DFT Exchange-Correlation Energy =       0.0000000000000000
    Empirical Dispersion Energy =           0.0000000000000000
    PCM Polarization Energy =               0.0000000000000000
    EFP Energy =                            0.0000000000000000
    Total Energy =                       -457.3381376787873478

  Mulliken Charges: (a.u.)
   Center  Symbol    Alpha    Beta     Spin     Total
       1     H     0.39662  0.39662  0.00000  0.20676
       2     C     3.09764  3.09764  0.00000 -0.19528
       3     C     3.09938  3.09938  0.00000 -0.19877
       4     C     3.10013  3.10013  0.00000 -0.20027
       5     H     0.39539  0.39539  0.00000  0.20921
       6     C     3.09843  3.09843  0.00000 -0.19686
       7     H     0.39543  0.39543  0.00000  0.20913
       8     C     3.09654  3.09654  0.00000 -0.19308
       9     H     0.39019  0.39019  0.00000  0.21962
      10     C     3.00821  3.00821  0.00000 -0.01643
      11     H     0.39141  0.39141  0.00000  0.21717
      12     C     2.64232  2.64232  0.00000  0.71536
      13     O     4.29577  4.29577  0.00000 -0.59154
      14     O     4.27577  4.27577  0.00000 -0.55155
      15     C     3.09375  3.09375  0.00000 -0.18749
      16     H     0.40814  0.40814  0.00000  0.18373
      17     H     0.40664  0.40664  0.00000  0.18673
      18     H     0.40822  0.40822  0.00000  0.18355

   Total alpha = 36.00000, Total beta = 36.00000, Total charge = -0.00000
