  ==> Input File <==

--------------------------------------------------------------------------
set {
	reference rhf
	basis 6-31G*
}

set_num_threads( 1 )
memory 2 gb

molecule MOL {
0 1

H	 -4.236417	 0.340452	 0.288925
O	 -3.517110	 -0.026191	 -0.205115
C	 -2.306886	 0.532354	 0.237577
C	 -1.177863	 -0.397191	 -0.171080
H	 -2.156308	 1.517575	 -0.201710
H	 -2.315015	 0.655684	 1.319734
C	 0.198102	 0.111031	 0.262842
H	 -1.208843	 -0.518759	 -1.250427
H	 -1.368741	 -1.376554	 0.258909
C	 1.331804	 -0.827780	 -0.158768
H	 0.361943	 1.100838	 -0.156218
H	 0.217265	 0.229072	 1.345532
C	 2.723619	 -0.410569	 0.329459
H	 1.342964	 -0.912588	 -1.244120
H	 1.116806	 -1.824343	 0.220779
C	 3.243875	 0.895854	 -0.272975
H	 3.424222	 -1.207124	 0.091250
H	 2.714788	 -0.329854	 1.414619
H	 3.251977	 0.848779	 -1.358681
H	 2.637085	 1.747371	 0.016682
H	 4.259473	 1.094070	 0.055697

	symmetry c1
}
set optking {
	frozen_dihedral = ("
		2 3 4 8,
		8 4 7 10,
		4 7 10 14,
		16 13 10 14
	")
}

ee = energy('scf')
oeprop('DIPOLE', 'QUADRUPOLE', 'MULLIKEN_CHARGES')
f=open( 'psi4out.xyz', 'w' )
f.write( "21  " )
f.write( str(ee) + "\n" )
f.write( MOL.save_string_xyz() )
f.close()
--------------------------------------------------------------------------

    Molecular point group: c1

    Geometry (in Angstrom), charge = 0, multiplicity = 1:

       Center              X                  Y                   Z               Mass
    ------------   -----------------  -----------------  -----------------  -----------------
           H         -4.236417582565     0.342403311544     0.286465737211     1.007825032070
           O         -3.517110582565    -0.024239688456    -0.207574262789    15.994914619560
           C         -2.306886582565     0.534305311544     0.235117737211    12.000000000000
           C         -1.177863582565    -0.395239688456    -0.173539262789    12.000000000000
           H         -2.156308582565     1.519526311544    -0.204169262789     1.007825032070
           H         -2.315015582565     0.657635311544     1.317274737211     1.007825032070
           C          0.198101417435     0.112982311544     0.260382737211    12.000000000000
           H         -1.208843582565    -0.516807688456    -1.252886262789     1.007825032070
           H         -1.368741582565    -1.374602688456     0.256449737211     1.007825032070
           C          1.331803417435    -0.825828688456    -0.161227262789    12.000000000000
           H          0.361942417435     1.102789311544    -0.158677262789     1.007825032070
           H          0.217264417435     0.231023311544     1.343072737211     1.007825032070
           C          2.723618417435    -0.408617688456     0.326999737211    12.000000000000
           H          1.342963417435    -0.910636688456    -1.246579262789     1.007825032070
           H          1.116805417435    -1.822391688456     0.218319737211     1.007825032070
           C          3.243874417435     0.897805311544    -0.275434262789    12.000000000000
           H          3.424221417435    -1.205172688456     0.088790737211     1.007825032070
           H          2.714787417435    -0.327902688456     1.412159737211     1.007825032070
           H          3.251976417435     0.850730311544    -1.361140262789     1.007825032070
           H          2.637084417435     1.749322311544     0.014222737211     1.007825032070
           H          4.259472417435     1.096021311544     0.053237737211     1.007825032070

  Charge       = 0
  Multiplicity = 1
  Basis Set: 6-31G*
  Basis Set:

    Orbital Energies (a.u.)
    -----------------------

    Doubly Occupied:

       1A    -20.551674     2A    -11.267129     3A    -11.215507
       4A    -11.215104     5A    -11.213524     6A    -11.210277
       7A    -11.208088     8A     -1.358718     9A     -1.086142
      10A     -1.033077    11A     -0.954317    12A     -0.875659
      13A     -0.807351    14A     -0.778950    15A     -0.694213
      16A     -0.659524    17A     -0.621143    18A     -0.608754
      19A     -0.585943    20A     -0.568069    21A     -0.538380
      22A     -0.520503    23A     -0.508323    24A     -0.489783
      25A     -0.477067    26A     -0.460426    27A     -0.455773
      28A     -0.448296    29A     -0.429458

  @DF-RHF Final Energy:  -310.21228528498023

   => Energetics <=

    Nuclear Repulsion Energy =            312.4640373894072809
    One-Electron Energy =               -1039.6703505136663352
    Two-Electron Energy =                 416.9940278392779192
    DFT Exchange-Correlation Energy =       0.0000000000000000
    Empirical Dispersion Energy =           0.0000000000000000
    PCM Polarization Energy =               0.0000000000000000
    EFP Energy =                            0.0000000000000000
    Total Energy =                       -310.2122852849811352

  Mulliken Charges: (a.u.)
   Center  Symbol    Alpha    Beta     Spin     Total
       1     H     0.28084  0.28084  0.00000  0.43831
       2     O     4.37201  4.37201  0.00000 -0.74403
       3     C     2.99025  2.99025  0.00000  0.01950
       4     C     3.15820  3.15820  0.00000 -0.31641
       5     H     0.43101  0.43101  0.00000  0.13799
       6     H     0.43368  0.43368  0.00000  0.13265
       7     C     3.16211  3.16211  0.00000 -0.32422
       8     H     0.41441  0.41441  0.00000  0.17117
       9     H     0.41611  0.41611  0.00000  0.16778
      10     C     3.15171  3.15171  0.00000 -0.30342
      11     H     0.42120  0.42120  0.00000  0.15761
      12     H     0.42465  0.42465  0.00000  0.15071
      13     C     3.15248  3.15248  0.00000 -0.30497
      14     H     0.42287  0.42287  0.00000  0.15425
      15     H     0.42119  0.42119  0.00000  0.15762
      16     C     3.24117  3.24117  0.00000 -0.48234
      17     H     0.42066  0.42066  0.00000  0.15868
      18     H     0.42369  0.42369  0.00000  0.15261
      19     H     0.42189  0.42189  0.00000  0.15622
      20     H     0.42058  0.42058  0.00000  0.15885
      21     H     0.41928  0.41928  0.00000  0.16143

   Total alpha = 29.00000, Total beta = 29.00000, Total charge = -0.00000
