  ==> Input File <==

--------------------------------------------------------------------------
set {
	reference rhf
	basis cc-pvtz
}

set_num_threads( 4 )
memory 2 gb

molecule MOL {
0 1

H	 3.273419	 0.176595	 -0.102789
N	 2.433987	 -0.362316	 -0.080024
C	 1.263552	 0.494993	 0.021953
H	 2.497638	 -0.973615	 0.707122
C	 -0.016533	 -0.325589	 -0.026925
H	 1.280915	 1.180773	 -0.818522
H	 1.263064	 1.106893	 0.925038
C	 -1.280353	 0.525521	 0.047747
H	 -0.016686	 -0.912532	 -0.939714
H	 -0.014099	 -1.037598	 0.796369
C	 -2.220904	 0.301833	 -1.131795
H	 -1.003763	 1.575541	 0.091579
H	 -1.808149	 0.311236	 0.973159
H	 -1.733155	 0.539935	 -2.071016
H	 -3.106050	 0.922382	 -1.051878
H	 -2.545483	 -0.732211	 -1.182600

	symmetry c1
}
set optking {
	frozen_dihedral = ("
		12 8 5 9
	")
}

ee = optimize('scf')
oeprop('DIPOLE', 'QUADRUPOLE', 'MULLIKEN_CHARGES')
f=open( 'psi4out.xyz', 'w' )
f.write( "16  " )
f.write( str(ee) + "\n" )
f.write( MOL.save_string_xyz() )
f.close()
--------------------------------------------------------------------------

    Molecular point group: c1
  Charge       = 0
  Multiplicity = 1
  Basis Set: CC-PVTZ
  Basis Set:
  @DF-RHF Final Energy:  -212.39489289381260
    Total Energy =                       -212.3948928938127665
    Molecular point group: c1
  Basis Set: CC-PVTZ
  Basis Set:
  Basis Set: CC-PVTZ
  Basis Set:
  @DF-RHF Final Energy:  -212.39511269569545
    Total Energy =                       -212.3951126956955591
  Basis Set: CC-PVTZ
  Basis Set:
  Basis Set: CC-PVTZ
  Basis Set:
  @DF-RHF Final Energy:  -212.39516646531797
    Total Energy =                       -212.3951664653181410
  Basis Set: CC-PVTZ
  Basis Set:
  Charge       = 0
  Multiplicity = 1
  Basis Set: CC-PVTZ
  Basis Set:

    Orbital Energies (a.u.)
    -----------------------

    Doubly Occupied:

       1A    -15.526627     2A    -11.238760     3A    -11.212780
       4A    -11.207659     5A    -11.205774     6A     -1.178592
       7A     -1.057846     8A     -0.959135     9A     -0.846362
      10A     -0.791708    11A     -0.663745    12A     -0.626158
      13A     -0.619900    14A     -0.581445    15A     -0.557175
      16A     -0.527908    17A     -0.501987    18A     -0.471584
      19A     -0.463599    20A     -0.455605    21A     -0.384163

  @DF-RHF Final Energy:  -212.39516689159441

   => Energetics <=

    Nuclear Repulsion Energy =            186.8916661507111883
    One-Electron Energy =                -656.4166371038340912
    Two-Electron Energy =                 257.1298040615286027
    DFT Exchange-Correlation Energy =       0.0000000000000000
    Empirical Dispersion Energy =           0.0000000000000000
    PCM Polarization Energy =               0.0000000000000000
    EFP Energy =                            0.0000000000000000
    Total Energy =                       -212.3951668915942719
    Molecular point group: c1
  Basis Set: CC-PVTZ
  Basis Set:

  -Total Gradient:
     Atom            X                  Y                   Z
    ------   -----------------  -----------------  -----------------
       1        0.000038350531    -0.000010910914    -0.000001340393
       2        0.000065476936    -0.000020136865    -0.000029946189
       3       -0.000041306290    -0.000005903857     0.000046185721
       4       -0.000001237802     0.000006922905     0.000004375033
       5        0.000514352429     0.000923134823    -0.000349706625
       6       -0.000008331868    -0.000009164365     0.000006302391
       7       -0.000008609387     0.000005689560    -0.000008236308
       8       -0.000120954415    -0.000148472429    -0.001082342821
       9       -0.000454201000    -0.000711144434     0.000463180545
      10        0.000015174172     0.000011892147    -0.000000820648
      11       -0.000024105760     0.000000266465    -0.000001435719
      12        0.000025230787    -0.000047110482     0.000947365697
      13       -0.000008595935    -0.000002294405    -0.000010560445
      14        0.000008032469     0.000001676467     0.000012573229
      15       -0.000007925775     0.000004495622     0.000003710295
      16        0.000008650905     0.000001059763     0.000000696236

  **** Optimization is complete! (in 4 steps) ****
    Final optimized geometry and variables:
    Molecular point group: c1

    Geometry (in Angstrom), charge = 0, multiplicity = 1:

    H            3.211861385417     0.054021829461     0.139488020691
    N            2.372661570094    -0.485617533231     0.154616835833
    C            1.200846545813     0.368170965129     0.256561882060
    H            2.433211068438    -1.103265330149     0.937075020498
    C           -0.079110345381    -0.453488255886     0.202203623471
    H            1.216415039398     1.057277026765    -0.581632874689
    H            1.194951734776     0.977677169033     1.161470160882
    C           -1.357262868699     0.404974262570     0.272173038321
    H           -0.068565258483    -1.044509366037    -0.706477444384
    H           -0.068221903904    -1.168334384211     1.020453117009
    C           -2.306434608883     0.180254676317    -0.900904656105
    H           -1.088620315596     1.456380165653     0.315285430607
    H           -1.886498395616     0.202998251729     1.197178449865
    H           -1.822916874681     0.414717236124    -1.843454655956
    H           -3.190789490248     0.801956784839    -0.816929820852
    H           -2.630720464985    -0.853941631337    -0.946998497480

  Mulliken Charges: (a.u.)
   Center  Symbol    Alpha    Beta     Spin     Total
       1     H     0.43021  0.43021  0.00000  0.13958
       2     N     3.69005  3.69005  0.00000 -0.38010
       3     C     3.02504  3.02504  0.00000 -0.05008
       4     H     0.43077  0.43077  0.00000  0.13847
       5     C     3.08671  3.08671  0.00000 -0.17343
       6     H     0.45688  0.45688  0.00000  0.08624
       7     H     0.46782  0.46782  0.00000  0.06436
       8     C     3.09377  3.09377  0.00000 -0.18753
       9     H     0.44932  0.44932  0.00000  0.10136
      10     H     0.45646  0.45646  0.00000  0.08708
      11     C     3.14620  3.14620  0.00000 -0.29240
      12     H     0.45597  0.45597  0.00000  0.08805
      13     H     0.45149  0.45149  0.00000  0.09703
      14     H     0.45468  0.45468  0.00000  0.09064
      15     H     0.45045  0.45045  0.00000  0.09910
      16     H     0.45419  0.45419  0.00000  0.09162

   Total alpha = 21.00000, Total beta = 21.00000, Total charge = -0.00000
