  ==> Input File <==

--------------------------------------------------------------------------
set {
	reference rhf
	basis cc-pvtz
}

set_num_threads( 4 )
memory 2 gb

molecule MOL {
0 1

H	 -2.171709	 0.882708	 0.500286
C	 -2.016894	 0.001719	 -0.114152
O	 -0.775228	 0.000056	 -0.739966
H	 -2.760846	 0.003757	 -0.898169
H	 -2.174774	 -0.879864	 0.498643
C	 -0.032886	 1.199533	 -0.837242
C	 1.238056	 0.786784	 -1.571564
C	 -0.787402	 2.250495	 -1.653835
C	 0.320321	 1.744052	 0.548160
H	 0.991566	 0.377278	 -2.542981
H	 1.763793	 0.025805	 -1.008877
H	 1.899039	 1.634048	 -1.710176
H	 -1.091957	 1.837716	 -2.608051
H	 -0.149566	 3.106171	 -1.840581
H	 -1.669780	 2.609970	 -1.139297
H	 0.795709	 0.974690	 1.144633
H	 1.006552	 2.577547	 0.457342
H	 -0.552776	 2.099461	 1.081034

	symmetry c1
}
set optking {
	frozen_dihedral = ("
		6 3 2 5
	")
}

ee = optimize('scf')
oeprop('DIPOLE', 'QUADRUPOLE', 'MULLIKEN_CHARGES')
f=open( 'psi4out.xyz', 'w' )
f.write( "18  " )
f.write( str(ee) + "\n" )
f.write( MOL.save_string_xyz() )
f.close()
--------------------------------------------------------------------------

    Molecular point group: c1
  Charge       = 0
  Multiplicity = 1
  Basis Set: CC-PVTZ
  Basis Set:
  @DF-RHF Final Energy:  -271.27349009493258
    Total Energy =                       -271.2734900949328676
    Molecular point group: c1
  Basis Set: CC-PVTZ
  Basis Set:
  Basis Set: CC-PVTZ
  Basis Set:
  @DF-RHF Final Energy:  -271.27455541536847
    Total Energy =                       -271.2745554153684679
  Basis Set: CC-PVTZ
  Basis Set:
  Basis Set: CC-PVTZ
  Basis Set:
  @DF-RHF Final Energy:  -271.27507313602223
    Total Energy =                       -271.2750731360218310
  Basis Set: CC-PVTZ
  Basis Set:
  Basis Set: CC-PVTZ
  Basis Set:
  @DF-RHF Final Energy:  -271.27510628566375
    Total Energy =                       -271.2751062856638669
  Basis Set: CC-PVTZ
  Basis Set:
  Basis Set: CC-PVTZ
  Basis Set:
  @DF-RHF Final Energy:  -271.27510830473528
    Total Energy =                       -271.2751083047348857
  Basis Set: CC-PVTZ
  Basis Set:
  Basis Set: CC-PVTZ
  Basis Set:
  @DF-RHF Final Energy:  -271.27511511895125
    Total Energy =                       -271.2751151189511347
  Basis Set: CC-PVTZ
  Basis Set:
  Charge       = 0
  Multiplicity = 1
  Basis Set: CC-PVTZ
  Basis Set:

    Orbital Energies (a.u.)
    -----------------------

    Doubly Occupied:

       1A    -20.538695     2A    -11.280624     3A    -11.258462
       4A    -11.207565     5A    -11.206585     6A    -11.201830
       7A     -1.371839     8A     -1.074180     9A     -0.946731
      10A     -0.940853    11A     -0.913416    12A     -0.753814
      13A     -0.656350    14A     -0.646312    15A     -0.640206
      16A     -0.591617    17A     -0.572422    18A     -0.552356
      19A     -0.538178    20A     -0.524875    21A     -0.515383
      22A     -0.490909    23A     -0.488408    24A     -0.439768
      25A     -0.405033

  @DF-RHF Final Energy:  -271.27511470562069

   => Energetics <=

    Nuclear Repulsion Energy =            272.5810809532616759
    One-Electron Energy =                -908.1995642210847564
    Two-Electron Energy =                 364.3433685622026132
    DFT Exchange-Correlation Energy =       0.0000000000000000
    Empirical Dispersion Energy =           0.0000000000000000
    PCM Polarization Energy =               0.0000000000000000
    EFP Energy =                            0.0000000000000000
    Total Energy =                       -271.2751147056204672
    Molecular point group: c1
  Basis Set: CC-PVTZ
  Basis Set:

  -Total Gradient:
     Atom            X                  Y                   Z
    ------   -----------------  -----------------  -----------------
       1        0.000017711803     0.000008907203    -0.000004019544
       2       -0.000501322257    -0.001328610254    -0.001129676874
       3       -0.000712140998     0.000600183731    -0.001662263191
       4       -0.000019373671    -0.000000684005    -0.000000048817
       5        0.000639979086     0.000982345292     0.001455356631
       6        0.000607018370    -0.000240810125     0.001378484596
       7        0.000025686613     0.000003070456    -0.000011041760
       8       -0.000019693165     0.000048183059     0.000019180528
       9       -0.000023999692    -0.000063200158    -0.000026286791
      10       -0.000005306803     0.000011569210    -0.000002058788
      11       -0.000000832641    -0.000009204069    -0.000013909998
      12        0.000013106310    -0.000006379713     0.000010292438
      13        0.000036965938    -0.000008568225     0.000004345912
      14       -0.000025438392     0.000015783237     0.000010294808
      15       -0.000032018997    -0.000006164306    -0.000005921071
      16       -0.000002097016     0.000000887894     0.000016922527
      17        0.000008339566    -0.000013909815    -0.000033711056
      18       -0.000006584057     0.000006600585    -0.000005939551

  **** Optimization is complete! (in 7 steps) ****
    Final optimized geometry and variables:
    Molecular point group: c1

    Geometry (in Angstrom), charge = 0, multiplicity = 1:

    H           -1.871832253055    -0.094901502324     1.173975035914
    C           -1.686209685926    -0.968749339351     0.562141481033
    O           -0.404169457909    -0.989824362708     0.015714539437
    H           -2.441137798902    -1.003058796516    -0.216718085846
    H           -1.797005853287    -1.838168213239     1.197218398914
    C            0.335777182030     0.208245813939    -0.108612399256
    C            1.597701416549    -0.209575443478    -0.855418619965
    C           -0.433582699711     1.247289976779    -0.926222749699
    C            0.709628324508     0.761086552606     1.268093676761
    H            1.340720394723    -0.620565167793    -1.823368736051
    H            2.127605458095    -0.970210128743    -0.296305613316
    H            2.259205296323     0.636053030588    -1.002249058234
    H           -0.711123714447     0.836193877020    -1.889370236097
    H            0.179755426243     2.124506681853    -1.094326906497
    H           -1.336006423255     1.571260957834    -0.422266268902
    H            1.217290278515     0.000887571246     1.848973044495
    H            1.372972966798     1.611620672722     1.163648144620
    H           -0.156997727297     1.092780775856     1.826020456895

  Mulliken Charges: (a.u.)
   Center  Symbol    Alpha    Beta     Spin     Total
       1     H     0.46899  0.46899  0.00000  0.06203
       2     C     3.04345  3.04345  0.00000 -0.08691
       3     O     4.19302  4.19302  0.00000 -0.38604
       4     H     0.45953  0.45953  0.00000  0.08093
       5     H     0.44796  0.44796  0.00000  0.10407
       6     C     2.87883  2.87883  0.00000  0.24233
       7     C     3.14274  3.14274  0.00000 -0.28547
       8     C     3.16172  3.16172  0.00000 -0.32343
       9     C     3.16036  3.16036  0.00000 -0.32071
      10     H     0.44935  0.44935  0.00000  0.10130
      11     H     0.44860  0.44860  0.00000  0.10280
      12     H     0.45923  0.45923  0.00000  0.08153
      13     H     0.44634  0.44634  0.00000  0.10732
      14     H     0.44747  0.44747  0.00000  0.10505
      15     H     0.44852  0.44852  0.00000  0.10295
      16     H     0.44643  0.44643  0.00000  0.10714
      17     H     0.44926  0.44926  0.00000  0.10149
      18     H     0.44819  0.44819  0.00000  0.10362

   Total alpha = 25.00000, Total beta = 25.00000, Total charge = -0.00000
