                              Psi4 1.0.54 Driver

  ==> Input File <==

--------------------------------------------------------------------------
set {
	reference rhf
	basis cc-pvtz
}

set_num_threads( 4 )
memory 2 gb

molecule MOL {
0 1

O	 1.625740	 -0.410362	 0.050578
C	 0.576499	 0.134701	 -0.003900
C	 -0.765656	 -0.550508	 -0.002152
O	 0.445031	 1.448557	 -0.084345
C	 -1.945526	 0.411052	 0.000603
H	 -0.794329	 -1.203792	 -0.868145
H	 -0.791555	 -1.205429	 0.862701
C	 -3.282915	 -0.321280	 0.002596
H	 -1.880300	 1.059126	 -0.864925
H	 -1.877207	 1.057892	 0.866807
H	 -3.388495	 -0.952755	 -0.873419
H	 -4.107811	 0.380864	 0.004116
H	 -3.385717	 -0.953283	 0.878571
C	 1.629671	 2.219520	 -0.100281
H	 2.198391	 2.062909	 0.804200
H	 1.313904	 3.247797	 -0.168301
H	 2.241812	 1.960139	 -0.951191

	symmetry c1
}
set optking {
	frozen_dihedral = ("
		1 2 3 6
	")
}

ee,wfn = optimize('scf', return_wfn=True)
oeprop( wfn, 'DIPOLE', 'QUADRUPOLE', 'MULLIKEN_CHARGES')
f=open( 'psi4out.xyz', 'w' )
f.write( "17  " )
f.write( str(ee) + "\n" )
f.write( MOL.save_string_xyz() )
f.close()
--------------------------------------------------------------------------

    Molecular point group: c1
  Charge       = 0
  Multiplicity = 1
  Basis Set: CC-PVTZ
  Basis Set:
  @DF-RHF Final Energy:  -345.03136692408975
    Total Energy =                       -345.0313669240896388
    Molecular point group: c1
  Basis Set: CC-PVTZ
  Basis Set:
  Basis Set: CC-PVTZ
  Basis Set:
  @DF-RHF Final Energy:  -345.03223762998090
    Total Energy =                       -345.0322376299803864
  Basis Set: CC-PVTZ
  Basis Set:
  Basis Set: CC-PVTZ
  Basis Set:
  @DF-RHF Final Energy:  -345.03272726054837
    Total Energy =                       -345.0327272605485405
  Basis Set: CC-PVTZ
  Basis Set:
  Basis Set: CC-PVTZ
  Basis Set:
  @DF-RHF Final Energy:  -345.03270368067302
    Total Energy =                       -345.0327036806728529
  Basis Set: CC-PVTZ
  Basis Set:
  Basis Set: CC-PVTZ
  Basis Set:
  @DF-RHF Final Energy:  -345.03281622425692
    Total Energy =                       -345.0328162242568624
  Basis Set: CC-PVTZ
  Basis Set:
  Charge       = 0
  Multiplicity = 1
  Basis Set: CC-PVTZ
  Basis Set:

    Orbital Energies (a.u.)
    -----------------------

    Doubly Occupied:

       1A    -20.599803     2A    -20.529602     3A    -11.365353
       4A    -11.279765     5A    -11.234587     6A    -11.224420
       7A    -11.215085     8A     -1.473768     9A     -1.364440
      10A     -1.084040    11A     -0.998433    12A     -0.944249
      13A     -0.832291    14A     -0.777261    15A     -0.698863
      16A     -0.687316    17A     -0.674273    18A     -0.639006
      19A     -0.597257    20A     -0.572875    21A     -0.560127
      22A     -0.530922    23A     -0.523470    24A     -0.519923
      25A     -0.490385    26A     -0.485360    27A     -0.455586
      28A     -0.433982

  @DF-RHF Final Energy:  -345.03281830230395

   => Energetics <=

    Nuclear Repulsion Energy =            314.8163786740780665
    One-Electron Energy =               -1094.1135074909420837
    Two-Electron Energy =                 434.2643105145601794
    DFT Exchange-Correlation Energy =       0.0000000000000000
    Empirical Dispersion Energy =           0.0000000000000000
    PCM Polarization Energy =               0.0000000000000000
    EFP Energy =                            0.0000000000000000
    Total Energy =                       -345.0328183023037809
    Molecular point group: c1
  Basis Set: CC-PVTZ
  Basis Set:

  -Total Gradient:
     Atom            X                  Y                   Z
    ------   -----------------  -----------------  -----------------
       1       -0.000063913641    -0.000020811597    -0.000163943296
       2        0.000134772901    -0.000246032022     0.000246682389
       3       -0.000070910838     0.000231787775    -0.000146403997
       4       -0.000039870274     0.000231321882    -0.000005974609
       5        0.000045034024    -0.000014826921    -0.000038250266
       6        0.000062777988    -0.000146052451     0.000097624473
       7        0.000003776849    -0.000032541094    -0.000004165909
       8       -0.000030146300    -0.000000079189     0.000004424320
       9       -0.000016902597     0.000014924586     0.000015272615
      10        0.000002021377     0.000001252279    -0.000012146537
      11        0.000002343144     0.000002853576     0.000003252347
      12       -0.000020156790    -0.000002814851     0.000001831778
      13        0.000001478016    -0.000002298582    -0.000002358268
      14       -0.000015998431    -0.000061791603     0.000009700077
      15        0.000013508866     0.000021272179    -0.000007096178
      16       -0.000020034115     0.000004300475    -0.000001169404
      17        0.000012219819     0.000019535557     0.000002720466

  **** Optimization is complete! (in 6 steps) ****
    Final optimized geometry and variables:
    Molecular point group: c1

    Geometry (in Angstrom), charge = 0, multiplicity = 1:

    O            1.807264750706    -0.862366303892     0.081544899509
    C            0.788403047751    -0.261613805182     0.015030571304
    C           -0.565244084669    -0.934182438828     0.024816301251
    O            0.731956660765     1.053369640853    -0.082503370789
    C           -1.794498538186    -0.032894227636     0.027114850902
    H           -0.573577696183    -1.591735411739    -0.838238241619
    H           -0.564405919238    -1.587605504103     0.889907155551
    C           -3.087776380965    -0.841113195374     0.048035174253
    H           -1.778521887902     0.608008781464    -0.846031623530
    H           -1.761718934153     0.624771014137     0.887893543595
    H           -3.162722308689    -1.486333247777    -0.820947911621
    H           -3.952301830952    -0.188182130862     0.050054713972
    H           -3.145593368275    -1.469247439814     0.930679543074
    C            1.959952906991     1.753906644280    -0.106428595073
    H            2.517473176712     1.575024442842     0.800690130307
    H            1.704407967428     2.797887276750    -0.188031308699
    H            2.556146348362     1.447382385291    -0.952785677859

  Mulliken Charges: (a.u.)
   Center  Symbol    Alpha    Beta     Spin     Total
       1     O     4.20497  4.20497  0.00000 -0.40995
       2     C     2.81219  2.81219  0.00000  0.37561
       3     C     3.08940  3.08940  0.00000 -0.17880
       4     O     4.14015  4.14015  0.00000 -0.28029
       5     C     3.07871  3.07871  0.00000 -0.15742
       6     H     0.43998  0.43998  0.00000  0.12003
       7     H     0.43848  0.43848  0.00000  0.12304
       8     C     3.15264  3.15264  0.00000 -0.30529
       9     H     0.44825  0.44825  0.00000  0.10349
      10     H     0.44907  0.44907  0.00000  0.10185
      11     H     0.45473  0.45473  0.00000  0.09054
      12     H     0.44604  0.44604  0.00000  0.10793
      13     H     0.45462  0.45462  0.00000  0.09077
      14     C     3.03716  3.03716  0.00000 -0.07432
      15     H     0.45326  0.45326  0.00000  0.09348
      16     H     0.44705  0.44705  0.00000  0.10591
      17     H     0.45330  0.45330  0.00000  0.09341

   Total alpha = 28.00000, Total beta = 28.00000, Total charge = -0.00000

*** Psi4 exiting successfully. Buy a developer a beer!
