  ==> Input File <==

--------------------------------------------------------------------------
set {
	reference rhf
	basis 6-31G*
}

set_num_threads( 4 )
memory 2 gb

molecule MOL {
0 1

H	 1.429806	 -2.019245	 -0.794410
C	 0.504294	 -1.491152	 -0.957505
O	 0.464886	 -0.454746	 -0.000158
H	 -0.325992	 -2.174754	 -0.825833
H	 0.492649	 -1.091727	 -1.964673
C	 -0.590998	 0.343045	 0.000118
O	 -1.699443	 -0.054298	 0.000227
H	 -0.340329	 1.404368	 0.000207

	symmetry c1
}
set optking {
	frozen_dihedral = ("
		2 3 6 7
	")
}

ee = optimize('scf')
oeprop('DIPOLE', 'QUADRUPOLE', 'MULLIKEN_CHARGES')
f=open( 'psi4out.xyz', 'w' )
f.write( "8  " )
f.write( str(ee) + "\n" )
f.write( MOL.save_string_xyz() )
f.close()
--------------------------------------------------------------------------

    Molecular point group: c1
  Charge       = 0
  Multiplicity = 1
  Basis Set: 6-31G*
  Basis Set:
  @DF-RHF Final Energy:  -227.77593244901072
    Total Energy =                       -227.7759324490108099
    Molecular point group: c1
  Basis Set: 6-31G*
  Basis Set:
  Basis Set: 6-31G*
  Basis Set:
  @DF-RHF Final Energy:  -227.76986840090450
    Total Energy =                       -227.7698684009044996
  Basis Set: 6-31G*
  Basis Set:
  Basis Set: 6-31G*
  Basis Set:
  @DF-RHF Final Energy:  -227.77660652634373
    Total Energy =                       -227.7766065263436985
  Basis Set: 6-31G*
  Basis Set:
  Basis Set: 6-31G*
  Basis Set:
  @DF-RHF Final Energy:  -227.77715018505427
    Total Energy =                       -227.7771501850542393
  Basis Set: 6-31G*
  Basis Set:
  Basis Set: 6-31G*
  Basis Set:
  @DF-RHF Final Energy:  -227.77715788475669
    Total Energy =                       -227.7771578847565479
  Basis Set: 6-31G*
  Basis Set:
  Basis Set: 6-31G*
  Basis Set:
  @DF-RHF Final Energy:  -227.77715939781280
    Total Energy =                       -227.7771593978128521
  Basis Set: 6-31G*
  Basis Set:
  Charge       = 0
  Multiplicity = 1
  Basis Set: 6-31G*
  Basis Set:

    Orbital Energies (a.u.)
    -----------------------

    Doubly Occupied:

       1A    -20.604940     2A    -20.566715     3A    -11.382182
       4A    -11.293446     5A     -1.472006     6A     -1.378327
       7A     -0.992842     8A     -0.824056     9A     -0.740335
      10A     -0.682898    11A     -0.671410    12A     -0.614536
      13A     -0.560808    14A     -0.521769    15A     -0.468247
      16A     -0.454601

  @DF-RHF Final Energy:  -227.77715952844164

   => Energetics <=

    Nuclear Repulsion Energy =            122.6354569484144719
    One-Electron Energy =                -554.3669989624247592
    Two-Electron Energy =                 203.9543824855686580
    DFT Exchange-Correlation Energy =       0.0000000000000000
    Empirical Dispersion Energy =           0.0000000000000000
    PCM Polarization Energy =               0.0000000000000000
    EFP Energy =                            0.0000000000000000
    Total Energy =                       -227.7771595284416435
    Molecular point group: c1
  Basis Set: 6-31G*
  Basis Set:

  -Total Gradient:
     Atom            X                  Y                   Z
    ------   -----------------  -----------------  -----------------
       1        0.000002586274     0.000006122293     0.000004980393
       2        0.003307161794     0.004829613163    -0.005586306374
       3       -0.004660008348    -0.007052848158     0.013762873856
       4       -0.000001062079     0.000005990399     0.000004089250
       5       -0.000001844746     0.000007016208     0.000005326956
       6        0.000843612960     0.001772348314    -0.018755210522
       7        0.000498622146     0.000426534989     0.010562652182
       8        0.000010931996     0.000005222791     0.000001594261

  **** Optimization is complete! (in 7 steps) ****
    Final optimized geometry and variables:
    Molecular point group: c1

    Geometry (in Angstrom), charge = 0, multiplicity = 1:

    H            1.753767521899    -1.615077327779    -0.510259472661
    C            0.841294996102    -1.075730069942    -0.708165497696
    O            0.808422180814     0.001101165828     0.215376905200
    H           -0.010951165191    -1.725416358116    -0.573071658638
    H            0.857183540415    -0.692854936671    -1.720914307139
    C           -0.280810726674     0.765044649787     0.233828408325
    O           -1.391692927220     0.371642121964     0.299193909512
    H           -0.016660058486     1.816920224470     0.285483655568

  Mulliken Charges: (a.u.)
   Center  Symbol    Alpha    Beta     Spin     Total
       1     H     0.40350  0.40350  0.00000  0.19300
       2     C     3.09613  3.09613  0.00000 -0.19227
       3     O     4.29330  4.29330  0.00000 -0.58661
       4     H     0.40187  0.40187  0.00000  0.19626
       5     H     0.41528  0.41528  0.00000  0.16943
       6     C     2.72947  2.72947  0.00000  0.54105
       7     O     4.24448  4.24448  0.00000 -0.48896
       8     H     0.41595  0.41595  0.00000  0.16809

   Total alpha = 16.00000, Total beta = 16.00000, Total charge =  0.00000
