  ==> Input File <==

--------------------------------------------------------------------------
set {
	reference rhf
	basis cc-pvtz
}

set_num_threads( 4 )
memory 2 gb

molecule MOL {
0 1

H	 1.857177	 -2.852937	 0.295153
C	 1.539407	 -1.937829	 -0.193092
C	 0.490689	 -1.227528	 0.651992
H	 1.130900	 -2.189816	 -1.163940
H	 2.420753	 -1.328676	 -0.350877
N	 0.000297	 0.000045	 0.046090
H	 -0.345002	 -1.900886	 0.783617
H	 0.886798	 -1.038030	 1.653550
C	 -1.359159	 0.315706	 0.454404
C	 0.911129	 1.116915	 0.239761
C	 -2.416729	 -0.286720	 -0.460525
H	 -1.478729	 1.390261	 0.442008
H	 -1.539692	 0.003361	 1.486761
C	 0.821773	 2.163375	 -0.862680
H	 1.922253	 0.734300	 0.256898
H	 0.749833	 1.588451	 1.213183
H	 -2.285276	 0.073129	 -1.473515
H	 -2.371743	 -1.368476	 -0.483209
H	 -3.408658	 -0.007405	 -0.121593
H	 1.048628	 1.716815	 -1.822903
H	 -0.163371	 2.608474	 -0.927131
H	 1.530943	 2.963346	 -0.678462

	symmetry c1
}
set optking {
	frozen_dihedral = ("
		3 6 9 11
	")
}

ee = optimize('scf')
oeprop('DIPOLE', 'QUADRUPOLE', 'MULLIKEN_CHARGES')
f=open( 'psi4out.xyz', 'w' )
f.write( "22  " )
f.write( str(ee) + "\n" )
f.write( MOL.save_string_xyz() )
f.close()
--------------------------------------------------------------------------

    Molecular point group: c1
  Charge       = 0
  Multiplicity = 1
  Basis Set: CC-PVTZ
  Basis Set:
  @DF-RHF Final Energy:  -290.47613373446978
    Total Energy =                       -290.4761337344699541
    Molecular point group: c1
  Basis Set: CC-PVTZ
  Basis Set:
  Basis Set: CC-PVTZ
  Basis Set:
  @DF-RHF Final Energy:  -290.47621655221315
    Total Energy =                       -290.4762165522130886
  Basis Set: CC-PVTZ
  Basis Set:
  Basis Set: CC-PVTZ
  Basis Set:
  @DF-RHF Final Energy:  -290.47622824835884
    Total Energy =                       -290.4762282483589502
  Basis Set: CC-PVTZ
  Basis Set:
  Basis Set: CC-PVTZ
  Basis Set:
  @DF-RHF Final Energy:  -290.47623700229462
    Total Energy =                       -290.4762370022946811
  Basis Set: CC-PVTZ
  Basis Set:
  Charge       = 0
  Multiplicity = 1
  Basis Set: CC-PVTZ
  Basis Set:

    Orbital Energies (a.u.)
    -----------------------

    Doubly Occupied:

       1A    -15.532964     2A    -11.239384     3A    -11.238652
       4A    -11.238287     5A    -11.203938     6A    -11.203853
       7A    -11.202770     8A     -1.225899     9A     -1.025066
      10A     -1.024032    11A     -0.956649    12A     -0.848579
      13A     -0.844004    14A     -0.774079    15A     -0.649742
      16A     -0.644530    17A     -0.619826    18A     -0.593645
      19A     -0.589570    20A     -0.551973    21A     -0.533677
      22A     -0.520616    23A     -0.517439    24A     -0.496680
      25A     -0.494001    26A     -0.487744    27A     -0.462938
      28A     -0.461119    29A     -0.344117

  @DF-RHF Final Energy:  -290.47623717361364

   => Energetics <=

    Nuclear Repulsion Energy =            337.8135310740262867
    One-Electron Energy =               -1061.5279909831228906
    Two-Electron Energy =                 433.2382227354831343
    DFT Exchange-Correlation Energy =       0.0000000000000000
    Empirical Dispersion Energy =           0.0000000000000000
    PCM Polarization Energy =               0.0000000000000000
    EFP Energy =                            0.0000000000000000
    Total Energy =                       -290.4762371736134696
    Molecular point group: c1
  Basis Set: CC-PVTZ
  Basis Set:

  -Total Gradient:
     Atom            X                  Y                   Z
    ------   -----------------  -----------------  -----------------
       1       -0.000006389279     0.000010184721    -0.000005501375
       2       -0.000007970705    -0.000018123273    -0.000010338300
       3        0.000707908458     0.000976876397     0.001455023299
       4        0.000004487188    -0.000005395350    -0.000009569243
       5       -0.000006489058    -0.000021736065     0.000002295561
       6       -0.000944099812    -0.000712170630    -0.002373317546
       7        0.000013494029     0.000021517223    -0.000006854648
       8       -0.000005742392    -0.000003110812     0.000016864231
       9        0.000237598009    -0.001720495888     0.001928871141
      10        0.000054216434    -0.000031734679    -0.000018311354
      11       -0.000003912015     0.001454439871    -0.001006737308
      12        0.000022071923     0.000024268704    -0.000000909235
      13       -0.000011353771    -0.000001199241     0.000007651622
      14       -0.000021973249    -0.000003676162     0.000015796772
      15       -0.000007999424     0.000030199671     0.000015219124
      16       -0.000016793621    -0.000000487655    -0.000014199785
      17        0.000004391935     0.000001425963     0.000005199608
      18       -0.000002689197     0.000010758154    -0.000000188248
      19        0.000005120046    -0.000007751268    -0.000012508067
      20        0.000002149103    -0.000003859239     0.000007304621
      21       -0.000012261274     0.000002889867     0.000000983166
      22       -0.000003763322    -0.000002820309     0.000003225964

  **** Optimization is complete! (in 5 steps) ****
    Final optimized geometry and variables:
    Molecular point group: c1

    Geometry (in Angstrom), charge = 0, multiplicity = 1:

    H            1.835778817923    -2.888754221411     0.338046598655
    C            1.546587954469    -1.963726543454    -0.149204571647
    C            0.480967017194    -1.250647580524     0.672100245532
    H            1.164817239396    -2.199168535328    -1.135011089990
    H            2.441698660632    -1.367005659378    -0.271918680448
    N            0.003247120983    -0.020933515014     0.060633993372
    H           -0.362232691573    -1.921510583984     0.776341831312
    H            0.851609052160    -1.067696896547     1.684739749863
    C           -1.354462077469     0.301828602209     0.479017413257
    C            0.926251616848     1.087252312397     0.245600406720
    C           -2.409119581353    -0.304768263553    -0.436086954236
    H           -1.477171775778     1.376599756414     0.469312474291
    H           -1.528000400575    -0.009368219642     1.510390078317
    C            0.807677359315     2.149681471109    -0.838364790904
    H            1.935166975768     0.699437027755     0.225577040403
    H            0.797198753241     1.545650787347     1.230047427920
    H           -2.289519097116     0.069729609545    -1.445034686004
    H           -2.332858769964    -1.385385383582    -0.472685229021
    H           -3.406378806916    -0.054179380821    -0.089465090928
    H            1.006052485128     1.716641586100    -1.811050127582
    H           -0.178925667212     2.595747884793    -0.867731091100
    H            1.522625674029     2.946507861529    -0.663280004753

  Mulliken Charges: (a.u.)
   Center  Symbol    Alpha    Beta     Spin     Total
       1     H     0.45287  0.45287  0.00000  0.09426
       2     C     3.14230  3.14230  0.00000 -0.28459
       3     C     3.04339  3.04339  0.00000 -0.08678
       4     H     0.45145  0.45145  0.00000  0.09709
       5     H     0.45626  0.45626  0.00000  0.08749
       6     N     3.62308  3.62308  0.00000 -0.24616
       7     H     0.45033  0.45033  0.00000  0.09935
       8     H     0.46299  0.46299  0.00000  0.07401
       9     C     3.05044  3.05044  0.00000 -0.10088
      10     C     3.04438  3.04438  0.00000 -0.08876
      11     C     3.13516  3.13516  0.00000 -0.27032
      12     H     0.44947  0.44947  0.00000  0.10107
      13     H     0.45867  0.45867  0.00000  0.08266
      14     C     3.14220  3.14220  0.00000 -0.28440
      15     H     0.44954  0.44954  0.00000  0.10093
      16     H     0.46337  0.46337  0.00000  0.07325
      17     H     0.45218  0.45218  0.00000  0.09563
      18     H     0.45653  0.45653  0.00000  0.08693
      19     H     0.45506  0.45506  0.00000  0.08988
      20     H     0.45159  0.45159  0.00000  0.09681
      21     H     0.45603  0.45603  0.00000  0.08793
      22     H     0.45270  0.45270  0.00000  0.09460

   Total alpha = 29.00000, Total beta = 29.00000, Total charge = -0.00000
