  ==> Input File <==

--------------------------------------------------------------------------
set {
	reference rhf
	basis 6-31G*
}

set_num_threads( 4 )
memory 2 gb

molecule MOL {
0 1

H	 -2.365416	 1.947962	 -2.212325
C	 -1.370878	 2.361422	 -2.003595
C	 -1.018946	 2.467779	 -0.541595
O	 -0.660056	 2.687829	 -2.897989
C	 -1.220012	 1.144545	 0.209990
H	 0.002486	 2.821047	 -0.460428
H	 -1.670130	 3.227112	 -0.110287
C	 -0.252658	 0.041456	 -0.226725
H	 -1.098515	 1.330888	 1.272910
H	 -2.246544	 0.806236	 0.077566
C	 1.180775	 0.282413	 0.250794
H	 -0.266029	 -0.034465	 -1.312038
H	 -0.597733	 -0.921000	 0.146291
C	 2.148627	 -0.814315	 -0.201312
H	 1.516199	 1.249228	 -0.115937
H	 1.192670	 0.346017	 1.338083
C	 3.580890	 -0.659131	 0.322722
H	 2.166869	 -0.852443	 -1.289387
H	 1.762857	 -1.776509	 0.128956
C	 4.324889	 0.564933	 -0.213704
H	 4.142010	 -1.551473	 0.056605
H	 3.564836	 -0.624694	 1.410140
H	 4.342616	 0.565491	 -1.300421
H	 3.866655	 1.493402	 0.110242
H	 5.353900	 0.572371	 0.132816

	symmetry c1
}
set optking {
	frozen_dihedral = ("
		3 5 8 12
	")
}

ee = optimize('scf')
oeprop('DIPOLE', 'QUADRUPOLE', 'MULLIKEN_CHARGES')
f=open( 'psi4out.xyz', 'w' )
f.write( "25  " )
f.write( str(ee) + "\n" )
f.write( MOL.save_string_xyz() )
f.close()
--------------------------------------------------------------------------

    Molecular point group: c1
  Charge       = 0
  Multiplicity = 1
  Basis Set: 6-31G*
  Basis Set:
  @DF-RHF Final Energy:  -387.12005945709683
    Total Energy =                       -387.1200594570967723
    Molecular point group: c1
  Basis Set: 6-31G*
  Basis Set:
  Basis Set: 6-31G*
  Basis Set:
  @DF-RHF Final Energy:  -387.12018811304131
    Total Energy =                       -387.1201881130413085
  Basis Set: 6-31G*
  Basis Set:
  Basis Set: 6-31G*
  Basis Set:
  @DF-RHF Final Energy:  -387.12027547829371
    Total Energy =                       -387.1202754782938200
  Basis Set: 6-31G*
  Basis Set:
  Basis Set: 6-31G*
  Basis Set:
  @DF-RHF Final Energy:  -387.12039164629300
    Total Energy =                       -387.1203916462931147
  Basis Set: 6-31G*
  Basis Set:
  @DF-RHF Final Energy:  -387.12043107913337
    Total Energy =                       -387.1204310791333683
  Basis Set: 6-31G*
  Basis Set:
  @DF-RHF Final Energy:  -387.12043953382704
    Total Energy =                       -387.1204395338276072
  Basis Set: 6-31G*
  Basis Set:
  Basis Set: 6-31G*
  Basis Set:
  @DF-RHF Final Energy:  -387.12044319696804
    Total Energy =                       -387.1204431969678126
  Basis Set: 6-31G*
  Basis Set:
  Basis Set: 6-31G*
  Basis Set:
  @DF-RHF Final Energy:  -387.12044500208259
    Total Energy =                       -387.1204450020821923
  Basis Set: 6-31G*
  Basis Set:
  Charge       = 0
  Multiplicity = 1
  Basis Set: 6-31G*
  Basis Set:

    Orbital Energies (a.u.)
    -----------------------

    Doubly Occupied:

       1A    -20.562543     2A    -11.326415     3A    -11.235629
       4A    -11.234425     5A    -11.223851     6A    -11.217556
       7A    -11.215996     8A    -11.215110     9A    -11.207544
      10A     -1.402368    11A     -1.103006    12A     -1.067330
      13A     -1.010134    14A     -0.942589    15A     -0.877235
      16A     -0.820835    17A     -0.786529    18A     -0.775358
      19A     -0.665248    20A     -0.655553    21A     -0.641691
      22A     -0.612884    23A     -0.611475    24A     -0.594266
      25A     -0.567858    26A     -0.547091    27A     -0.541466
      28A     -0.517746    29A     -0.516925    30A     -0.499107
      31A     -0.481490    32A     -0.476027    33A     -0.462261
      34A     -0.454297    35A     -0.442077    36A     -0.409810

  @DF-RHF Final Energy:  -387.12044533061629

   => Energetics <=

    Nuclear Repulsion Energy =            449.0659891629140361
    One-Electron Energy =               -1414.5294186178111886
    Two-Electron Energy =                 578.3429841242808607
    DFT Exchange-Correlation Energy =       0.0000000000000000
    Empirical Dispersion Energy =           0.0000000000000000
    PCM Polarization Energy =               0.0000000000000000
    EFP Energy =                            0.0000000000000000
    Total Energy =                       -387.1204453306162350
    Molecular point group: c1
  Basis Set: 6-31G*
  Basis Set:

  -Total Gradient:
     Atom            X                  Y                   Z
    ------   -----------------  -----------------  -----------------
       1       -0.000000522613    -0.000006698307    -0.000005318056
       2       -0.000023835683    -0.000005103563    -0.000021677812
       3       -0.000530931386    -0.000337479334    -0.000541410838
       4       -0.000009839114     0.000024085433     0.000018273105
       5        0.000938668120     0.000610954770     0.000791572986
       6        0.000014052333    -0.000014185765    -0.000006703320
       7        0.000016891516     0.000024646691     0.000006123570
       8       -0.001217679404    -0.001089572155    -0.000164304011
       9       -0.000019018301     0.000033587796     0.000009339288
      10        0.000002931438     0.000003151317    -0.000010726043
      11        0.000008275965    -0.000018339682    -0.000026547270
      12        0.000815107442     0.000775287433    -0.000066262015
      13        0.000032684226    -0.000018025982    -0.000011226984
      14       -0.000004521513     0.000002129804     0.000025961874
      15        0.000001650731     0.000016243755     0.000001109855
      16        0.000001447830     0.000000532437    -0.000008706503
      17        0.000008761179    -0.000014380300    -0.000008507792
      18       -0.000003497122     0.000007851306     0.000011639946
      19       -0.000013511657    -0.000000315595     0.000003769114
      20       -0.000014626546    -0.000000490047     0.000002910047
      21        0.000005004509     0.000000592844    -0.000002263676
      22        0.000004014028    -0.000002630649    -0.000001915527
      23        0.000000420592    -0.000002702182     0.000001910611
      24       -0.000012817385     0.000010196083    -0.000002547019
      25        0.000000890821     0.000000663891     0.000005506477

  **** Optimization is complete! (in 9 steps) ****
    Final optimized geometry and variables:
    Molecular point group: c1

    Geometry (in Angstrom), charge = 0, multiplicity = 1:

    H           -3.161510370178     1.033149395090    -1.612727962919
    C           -2.177040443801     1.465545206208    -1.395148419314
    C           -1.836987083672     1.574832341122     0.069262964582
    O           -1.467263687312     1.810947226983    -2.283556461534
    C           -1.979923380470     0.231285194391     0.801660520809
    H           -0.840020507138     1.987581172143     0.157975627610
    H           -2.530899749378     2.290549535723     0.508111037844
    C           -0.983608240911    -0.849690831128     0.360031514528
    H           -1.878840498508     0.403613176053     1.869220336477
    H           -2.993081192359    -0.136555411721     0.651642445381
    C            0.452926256883    -0.610164054598     0.834712435970
    H           -0.986894541108    -0.933630585851    -0.725138660599
    H           -1.324493416499    -1.808696727776     0.742091168562
    C            1.404239964986    -1.732406209990     0.410237804538
    H            0.811798840900     0.338742343703     0.448655903170
    H            0.460196743471    -0.525236253361     1.920643142491
    C            2.835560940674    -1.592302179631     0.941054788087
    H            1.429527521016    -1.789692652546    -0.676608674374
    H            0.999688827951    -2.681875708062     0.755305511114
    C            3.602619670064    -0.388219933366     0.391431774648
    H            3.383658966915    -2.497696231755     0.692299074778
    H            2.812647834151    -1.541453424421     2.027872385272
    H            3.629550470037    -0.405231131918    -0.694640747877
    H            3.156106938995     0.552501695022     0.695939108031
    H            4.628431424463    -0.390800147031     0.746982942163

  Mulliken Charges: (a.u.)
   Center  Symbol    Alpha    Beta     Spin     Total
       1     H     0.43225  0.43225  0.00000  0.13549
       2     C     2.83076  2.83076  0.00000  0.33848
       3     C     3.20924  3.20924  0.00000 -0.41848
       4     O     4.23830  4.23830  0.00000 -0.47660
       5     C     3.16826  3.16826  0.00000 -0.33651
       6     H     0.39855  0.39855  0.00000  0.20291
       7     H     0.40711  0.40711  0.00000  0.18577
       8     C     3.15737  3.15737  0.00000 -0.31473
       9     H     0.41262  0.41262  0.00000  0.17475
      10     H     0.41784  0.41784  0.00000  0.16432
      11     C     3.15561  3.15561  0.00000 -0.31123
      12     H     0.41759  0.41759  0.00000  0.16481
      13     H     0.41825  0.41825  0.00000  0.16351
      14     C     3.15308  3.15308  0.00000 -0.30615
      15     H     0.41634  0.41634  0.00000  0.16732
      16     H     0.42456  0.42456  0.00000  0.15087
      17     C     3.15259  3.15259  0.00000 -0.30518
      18     H     0.42123  0.42123  0.00000  0.15753
      19     H     0.42285  0.42285  0.00000  0.15429
      20     C     3.24143  3.24143  0.00000 -0.48287
      21     H     0.42055  0.42055  0.00000  0.15890
      22     H     0.42390  0.42390  0.00000  0.15220
      23     H     0.42018  0.42018  0.00000  0.15964
      24     H     0.42029  0.42029  0.00000  0.15941
      25     H     0.41923  0.41923  0.00000  0.16154

   Total alpha = 36.00000, Total beta = 36.00000, Total charge =  0.00000
