  ==> Input File <==

--------------------------------------------------------------------------
set {
	reference rhf
	basis cc-pvtz
}

set_num_threads( 4 )
memory 2 gb

molecule MOL {
0 1

H	 -0.939693	 0.000281	 1.681345
O	 -0.046262	 -0.000157	 1.387678
C	 -0.000837	 0.000006	 -0.025491
C	 1.367155	 -0.492941	 -0.493198
C	 -1.113753	 -0.891518	 -0.572984
C	 -0.220486	 1.449528	 -0.436378
H	 1.444811	 -0.469703	 -1.574042
H	 1.538616	 -1.515563	 -0.170839
H	 2.151545	 0.127232	 -0.077769
H	 -1.126947	 -0.882819	 -1.656745
H	 -0.976418	 -1.919646	 -0.251790
H	 -2.077215	 -0.552192	 -0.213731
H	 -0.202380	 1.552504	 -1.514968
H	 0.553410	 2.079395	 -0.016184
H	 -1.177294	 1.801379	 -0.071777

	symmetry c1
}
set optking {
	frozen_dihedral = ("
		4 3 2 1
	")
}

ee = optimize('scf')
oeprop('DIPOLE', 'QUADRUPOLE', 'MULLIKEN_CHARGES')
f=open( 'psi4out.xyz', 'w' )
f.write( "15  " )
f.write( str(ee) + "\n" )
f.write( MOL.save_string_xyz() )
f.close()
--------------------------------------------------------------------------

    Molecular point group: c1
  Charge       = 0
  Multiplicity = 1
  Basis Set: CC-PVTZ
  Basis Set:
  @DF-RHF Final Energy:  -232.24451249969709
    Total Energy =                       -232.2445124996971231
    Molecular point group: c1
  Basis Set: CC-PVTZ
  Basis Set:
  Basis Set: CC-PVTZ
  Basis Set:
  @DF-RHF Final Energy:  -232.24598362536875
    Total Energy =                       -232.2459836253686376
  Basis Set: CC-PVTZ
  Basis Set:
  Basis Set: CC-PVTZ
  Basis Set:
  @DF-RHF Final Energy:  -232.24628571592442
    Total Energy =                       -232.2462857159243867
  Basis Set: CC-PVTZ
  Basis Set:
  Charge       = 0
  Multiplicity = 1
  Basis Set: CC-PVTZ
  Basis Set:

    Orbital Energies (a.u.)
    -----------------------

    Doubly Occupied:

       1A    -20.541697     2A    -11.280837     3A    -11.212601
       4A    -11.206394     5A    -11.203685     6A     -1.364477
       7A     -1.065331     8A     -0.943703     9A     -0.939011
      10A     -0.778518    11A     -0.672433    12A     -0.624375
      13A     -0.622928    14A     -0.576162    15A     -0.557583
      16A     -0.533093    17A     -0.517062    18A     -0.511270
      19A     -0.504476    20A     -0.458408    21A     -0.428407

  @DF-RHF Final Energy:  -232.24628653996348

   => Energetics <=

    Nuclear Repulsion Energy =            200.6625952135174771
    One-Electron Energy =                -712.7328601572169191
    Two-Electron Energy =                 279.8239784037360209
    DFT Exchange-Correlation Energy =       0.0000000000000000
    Empirical Dispersion Energy =           0.0000000000000000
    PCM Polarization Energy =               0.0000000000000000
    EFP Energy =                            0.0000000000000000
    Total Energy =                       -232.2462865399633642
    Molecular point group: c1
  Basis Set: CC-PVTZ
  Basis Set:

  -Total Gradient:
     Atom            X                  Y                   Z
    ------   -----------------  -----------------  -----------------
       1       -0.000057717792    -0.001629671158    -0.000079854431
       2       -0.000025533509     0.001631863893    -0.000102170358
       3        0.000469642779     0.000872661151    -0.000115849685
       4       -0.000444573120    -0.001049253853     0.000166288311
       5        0.000030420938    -0.000008178202     0.000098604708
       6       -0.000038827348     0.000141344138    -0.000033780538
       7       -0.000024150324    -0.000014967293     0.000000262926
       8        0.000112095430    -0.000012842002     0.000034695972
       9       -0.000071008997     0.000023844752    -0.000005027676
      10       -0.000024937560     0.000088903274     0.000003759885
      11        0.000108451098     0.000010484902    -0.000031861158
      12       -0.000024562402    -0.000033739738     0.000013781122
      13       -0.000064425238    -0.000075840285     0.000054544333
      14        0.000074961144    -0.000041028158    -0.000012406394
      15       -0.000019835101     0.000096418581     0.000009012983

  **** Optimization is complete! (in 4 steps) ****
    Final optimized geometry and variables:
    Molecular point group: c1

    Geometry (in Angstrom), charge = 0, multiplicity = 1:

    H           -0.866487546811    -0.064002469284     1.721120964660
    O            0.012250484301    -0.062434577330     1.387713550699
    C           -0.000405863459     0.005544900912    -0.025318742340
    C            1.365967855946    -0.497880928825    -0.471013052039
    C           -1.106206098468    -0.893274878656    -0.573950159581
    C           -0.215561016646     1.454482630560    -0.457962366048
    H            1.459895635459    -0.460756002186    -1.550086864027
    H            1.515160375397    -1.519106412734    -0.144203584159
    H            2.148017850884     0.112544241049    -0.037044266347
    H           -1.121302763915    -0.877311240442    -1.657115680112
    H           -0.958448256935    -1.915666841836    -0.247992829134
    H           -2.080994592552    -0.562312051735    -0.226983308291
    H           -0.201948682782     1.549002202201    -1.537889240055
    H            0.561953982371     2.085559938345    -0.046313213868
    H           -1.171728179045     1.822886867785    -0.100969762004

  Mulliken Charges: (a.u.)
   Center  Symbol    Alpha    Beta     Spin     Total
       1     H     0.39480  0.39480  0.00000  0.21039
       2     O     4.21224  4.21224  0.00000 -0.42449
       3     C     2.87852  2.87852  0.00000  0.24296
       4     C     3.14221  3.14221  0.00000 -0.28443
       5     C     3.15427  3.15427  0.00000 -0.30855
       6     C     3.14628  3.14628  0.00000 -0.29256
       7     H     0.45899  0.45899  0.00000  0.08202
       8     H     0.44994  0.44994  0.00000  0.10013
       9     H     0.44743  0.44743  0.00000  0.10513
      10     H     0.45359  0.45359  0.00000  0.09282
      11     H     0.44567  0.44567  0.00000  0.10866
      12     H     0.45610  0.45610  0.00000  0.08780
      13     H     0.45717  0.45717  0.00000  0.08565
      14     H     0.44772  0.44772  0.00000  0.10457
      15     H     0.45504  0.45504  0.00000  0.08991

   Total alpha = 21.00000, Total beta = 21.00000, Total charge = -0.00000
