  ==> Input File <==

--------------------------------------------------------------------------
set {
	reference rhf
	basis 6-31G*
}

set_num_threads( 4 )
memory 2 gb

molecule MOL {
0 1

H	 2.591676	 2.013956	 0.335017
O	 3.341076	 1.666752	 -0.126416
C	 3.569581	 0.339145	 0.272707
C	 2.539767	 -0.640285	 -0.279495
H	 4.553106	 0.084646	 -0.100901
H	 3.608576	 0.269204	 1.359154
C	 1.115811	 -0.397273	 0.226630
H	 2.556196	 -0.582511	 -1.364741
H	 2.852081	 -1.648031	 -0.010655
C	 0.228240	 -1.640037	 0.114501
H	 0.670959	 0.418315	 -0.336653
H	 1.151428	 -0.076601	 1.267899
C	 -1.184551	 -1.476077	 0.686758
H	 0.160949	 -1.938829	 -0.930029
H	 0.716615	 -2.462079	 0.633575
C	 -2.074648	 -0.484974	 -0.068174
H	 -1.669748	 -2.449930	 0.683352
H	 -1.116609	 -1.176586	 1.731519
C	 -3.504358	 -0.434459	 0.474792
H	 -2.101192	 -0.757171	 -1.122363
H	 -1.646134	 0.513296	 -0.021966
C	 -4.393232	 0.558784	 -0.272896
H	 -3.946076	 -1.427022	 0.418282
H	 -3.479249	 -0.172125	 1.530460
H	 -4.465088	 0.304482	 -1.326647
H	 -5.399789	 0.569964	 0.133740
H	 -3.997851	 1.568384	 -0.204011

	symmetry c1
}
set optking {
	frozen_dihedral = ("
		10 7 4 8
	")
}

ee = optimize('scf')
oeprop('DIPOLE', 'QUADRUPOLE', 'MULLIKEN_CHARGES')
f=open( 'psi4out.xyz', 'w' )
f.write( "27  " )
f.write( str(ee) + "\n" )
f.write( MOL.save_string_xyz() )
f.close()
--------------------------------------------------------------------------

    Molecular point group: c1
  Charge       = 0
  Multiplicity = 1
  Basis Set: 6-31G*
  Basis Set:
  @DF-RHF Final Energy:  -388.28037310673636
    Total Energy =                       -388.2803731067363060
    Molecular point group: c1
  Basis Set: 6-31G*
  Basis Set:
  Basis Set: 6-31G*
  Basis Set:
  @DF-RHF Final Energy:  -388.28053186798581
    Total Energy =                       -388.2805318679858146
  Basis Set: 6-31G*
  Basis Set:
  Basis Set: 6-31G*
  Basis Set:
  @DF-RHF Final Energy:  -388.28056475595355
    Total Energy =                       -388.2805647559534918
  Basis Set: 6-31G*
  Basis Set:
  Basis Set: 6-31G*
  Basis Set:
  @DF-RHF Final Energy:  -388.28060966251303
    Total Energy =                       -388.2806096625130294
  Basis Set: 6-31G*
  Basis Set:
  Basis Set: 6-31G*
  Basis Set:
  @DF-RHF Final Energy:  -388.28061075120831
    Total Energy =                       -388.2806107512085418
  Basis Set: 6-31G*
  Basis Set:
  Basis Set: 6-31G*
  Basis Set:
  @DF-RHF Final Energy:  -388.28061448962637
    Total Energy =                       -388.2806144896267142
  Basis Set: 6-31G*
  Basis Set:
  Charge       = 0
  Multiplicity = 1
  Basis Set: 6-31G*
  Basis Set:

    Orbital Energies (a.u.)
    -----------------------

    Doubly Occupied:

       1A    -20.552060     2A    -11.266600     3A    -11.220404
       4A    -11.218073     5A    -11.216297     6A    -11.216102
       7A    -11.215388     8A    -11.214529     9A    -11.209457
      10A     -1.358876    11A     -1.095348    12A     -1.061454
      13A     -1.011629    14A     -0.948588    15A     -0.888154
      16A     -0.820658    17A     -0.801351    18A     -0.778976
      19A     -0.694521    20A     -0.649686    21A     -0.635337
      22A     -0.617163    23A     -0.602918    24A     -0.583812
      25A     -0.578150    26A     -0.553270    27A     -0.542314
      28A     -0.529210    29A     -0.506103    30A     -0.495608
      31A     -0.486348    32A     -0.475065    33A     -0.469278
      34A     -0.461384    35A     -0.450013    36A     -0.441873
      37A     -0.423013

  @DF-RHF Final Energy:  -388.28061471794535

   => Energetics <=

    Nuclear Repulsion Energy =            459.3050043878595261
    One-Electron Energy =               -1436.5932176146584425
    Two-Electron Energy =                 589.0075985088542438
    DFT Exchange-Correlation Energy =       0.0000000000000000
    Empirical Dispersion Energy =           0.0000000000000000
    PCM Polarization Energy =               0.0000000000000000
    EFP Energy =                            0.0000000000000000
    Total Energy =                       -388.2806147179446725
    Molecular point group: c1
  Basis Set: 6-31G*
  Basis Set:

  -Total Gradient:
     Atom            X                  Y                   Z
    ------   -----------------  -----------------  -----------------
       1        0.000005311789    -0.000011212746     0.000000885805
       2        0.000004426425    -0.000006818748    -0.000018150281
       3       -0.000018235969     0.000001287575     0.000002175347
       4       -0.000474460774    -0.004137876108     0.000482204534
       5       -0.000005202973     0.000000011421    -0.000001939349
       6       -0.000013951737    -0.000014097738    -0.000005477736
       7       -0.000838664919     0.001803337062    -0.002856667063
       8        0.000622794595     0.003135323271     0.000283369187
       9        0.000031702754    -0.000008727261    -0.000011258804
      10        0.000699685970    -0.000746294744     0.002103550549
      11       -0.000007190423     0.000006325454     0.000014827237
      12        0.000001953243    -0.000013010882    -0.000008060657
      13        0.000004757758    -0.000003356911    -0.000009986147
      14        0.000013238362     0.000003774079     0.000010511697
      15       -0.000024671929    -0.000015993095     0.000017113058
      16       -0.000003585943     0.000021186333     0.000005676085
      17       -0.000000687767    -0.000008686113    -0.000003773652
      18        0.000005993982    -0.000004446850    -0.000011037070
      19        0.000006987942     0.000014914502     0.000006802395
      20        0.000000715993     0.000007677361    -0.000007308730
      21       -0.000006160396    -0.000010669547     0.000012978127
      22       -0.000006931757    -0.000018836186    -0.000013191700
      23        0.000002108317    -0.000000892931     0.000010888418
      24        0.000000863011     0.000010248153    -0.000000869450
      25        0.000001182564     0.000005658700    -0.000005483255
      26       -0.000001852850    -0.000005431882    -0.000004836542
      27       -0.000000125269    -0.000003392179     0.000007057996

  **** Optimization is complete! (in 7 steps) ****
    Final optimized geometry and variables:
    Molecular point group: c1

    Geometry (in Angstrom), charge = 0, multiplicity = 1:

    H            2.524033555324     2.200904872836     0.269919195830
    O            3.285178189260     1.909218810952    -0.211164814582
    C            3.575325832942     0.577598326548     0.130006463020
    C            2.545436617358    -0.410454144114    -0.407136975332
    H            4.547046243094     0.368575699929    -0.298679684740
    H            3.667741621297     0.472500049931     1.210425257647
    C            1.134104478422    -0.181330356932     0.149967025317
    H            2.530430079138    -0.311227835222    -1.489072992536
    H            2.882091061303    -1.417676817260    -0.171166188674
    C            0.232780253048    -1.412637234568     0.018984756259
    H            0.685455986264     0.670994847546    -0.350645075341
    H            1.200416569305     0.078459937899     1.207639958102
    C           -1.181737447440    -1.238252955714     0.583583928645
    H            0.168366592999    -1.704388689574    -1.028144169760
    H            0.711168913397    -2.242001501112     0.534972225371
    C           -2.066219632108    -0.253781444822    -0.186527569901
    H           -1.669826340582    -2.210632982779     0.589155300205
    H           -1.117243872844    -0.927401403311     1.625339241823
    C           -3.495760014465    -0.187169926412     0.355197688876
    H           -2.094106945919    -0.542601336436    -1.236221416125
    H           -1.632514508821     0.742766789258    -0.156319309080
    C           -4.381077343037     0.793578725091    -0.412902827816
    H           -3.940959072100    -1.179139821563     0.319020130236
    H           -3.469861461363     0.096715389598     1.405263043401
    H           -4.453202002868     0.518256334669    -1.461330038590
    H           -5.387792415938     0.816064938460    -0.007152375742
    H           -3.982516594313     1.803077724211    -0.364195479787

  Mulliken Charges: (a.u.)
   Center  Symbol    Alpha    Beta     Spin     Total
       1     H     0.27964  0.27964  0.00000  0.44072
       2     O     4.37140  4.37140  0.00000 -0.74280
       3     C     2.99806  2.99806  0.00000  0.00389
       4     C     3.16095  3.16095  0.00000 -0.32190
       5     H     0.41494  0.41494  0.00000  0.17012
       6     H     0.43201  0.43201  0.00000  0.13598
       7     C     3.16666  3.16666  0.00000 -0.33332
       8     H     0.41415  0.41415  0.00000  0.17169
       9     H     0.42318  0.42318  0.00000  0.15364
      10     C     3.15256  3.15256  0.00000 -0.30513
      11     H     0.41704  0.41704  0.00000  0.16592
      12     H     0.42790  0.42790  0.00000  0.14420
      13     C     3.15389  3.15389  0.00000 -0.30778
      14     H     0.42188  0.42188  0.00000  0.15623
      15     H     0.42131  0.42131  0.00000  0.15737
      16     C     3.15231  3.15231  0.00000 -0.30463
      17     H     0.42113  0.42113  0.00000  0.15774
      18     H     0.42446  0.42446  0.00000  0.15107
      19     C     3.15124  3.15124  0.00000 -0.30248
      20     H     0.42364  0.42364  0.00000  0.15272
      21     H     0.42347  0.42347  0.00000  0.15305
      22     C     3.23920  3.23920  0.00000 -0.47840
      23     H     0.42290  0.42290  0.00000  0.15420
      24     H     0.42333  0.42333  0.00000  0.15335
      25     H     0.42148  0.42148  0.00000  0.15705
      26     H     0.41921  0.41921  0.00000  0.16158
      27     H     0.42205  0.42205  0.00000  0.15590

   Total alpha = 37.00000, Total beta = 37.00000, Total charge = -0.00000
