  ==> Input File <==

--------------------------------------------------------------------------
set {
	reference rhf
	basis 6-31G*
}

set_num_threads( 1 )
memory 2 gb

molecule MOL {
0 1

O	 -0.682937	 1.318834	 -0.186099
C	 -0.860635	 0.152188	 -0.042321
C	 -2.173363	 -0.477127	 0.338347
O	 0.083258	 -0.765189	 -0.202595
H	 -2.477673	 -1.180929	 -0.427595
H	 -2.923125	 0.290956	 0.455536
H	 -2.058825	 -1.029004	 1.264191
C	 0.714299	 -0.873560	 -1.476503
C	 1.845117	 0.127470	 -1.624275
H	 -0.026296	 -0.746094	 -2.251366
H	 1.087567	 -1.887037	 -1.508651
H	 2.353429	 -0.029854	 -2.570636
H	 1.467232	 1.141981	 -1.605890
H	 2.568246	 0.006805	 -0.824938

	symmetry c1
}
set optking {
	frozen_dihedral = ("
		10 8 4 2
	")
}

ee = energy('scf')
oeprop('DIPOLE', 'QUADRUPOLE', 'MULLIKEN_CHARGES')
f=open( 'psi4out.xyz', 'w' )
f.write( "14  " )
f.write( str(ee) + "\n" )
f.write( MOL.save_string_xyz() )
f.close()
--------------------------------------------------------------------------

    Molecular point group: c1

    Geometry (in Angstrom), charge = 0, multiplicity = 1:

       Center              X                  Y                   Z               Mass
    ------------   -----------------  -----------------  -----------------  -----------------
           O         -0.509218711939     1.403520864979     0.352238766602    15.994914619560
           C         -0.686916711939     0.236874864979     0.496016766602    12.000000000000
           C         -1.999644711939    -0.392440135021     0.876684766602    12.000000000000
           O          0.256976288061    -0.680502135021     0.335742766602    15.994914619560
           H         -2.303954711939    -1.096242135021     0.110742766602     1.007825032070
           H         -2.749406711939     0.375642864979     0.993873766602     1.007825032070
           H         -1.885106711939    -0.944317135021     1.802528766602     1.007825032070
           C          0.888017288061    -0.788873135021    -0.938165233398    12.000000000000
           C          2.018835288061     0.212156864979    -1.085937233398    12.000000000000
           H          0.147422288061    -0.661407135021    -1.713028233398     1.007825032070
           H          1.261285288061    -1.802350135021    -0.970313233398     1.007825032070
           H          2.527147288061     0.054832864979    -2.032298233398     1.007825032070
           H          1.640950288061     1.226667864979    -1.067552233398     1.007825032070
           H          2.741964288061     0.091491864979    -0.286600233398     1.007825032070

  Charge       = 0
  Multiplicity = 1
  Basis Set: 6-31G*
  Basis Set:

    Orbital Energies (a.u.)
    -----------------------

    Doubly Occupied:

       1A    -20.588028     2A    -20.552166     3A    -11.376918
       4A    -11.295266     5A    -11.233640     6A    -11.214335
       7A     -1.464001     8A     -1.365336     9A     -1.052276
      10A     -1.000289    11A     -0.883646    12A     -0.770275
      13A     -0.694936    14A     -0.682548    15A     -0.661869
      16A     -0.607510    17A     -0.587225    18A     -0.575434
      19A     -0.558816    20A     -0.535419    21A     -0.511617
      22A     -0.490189    23A     -0.449779    24A     -0.435581

  @DF-RHF Final Energy:  -305.85991473532067

   => Energetics <=

    Nuclear Repulsion Energy =            248.7646435757099823
    One-Electron Energy =                -910.0751068721640422
    Two-Electron Energy =                 355.4505485611331892
    DFT Exchange-Correlation Energy =       0.0000000000000000
    Empirical Dispersion Energy =           0.0000000000000000
    PCM Polarization Energy =               0.0000000000000000
    EFP Energy =                            0.0000000000000000
    Total Energy =                       -305.8599147353208423

  Mulliken Charges: (a.u.)
   Center  Symbol    Alpha    Beta     Spin     Total
       1     O     4.26606  4.26606  0.00000 -0.53211
       2     C     2.62609  2.62609  0.00000  0.74782
       3     C     3.28178  3.28178  0.00000 -0.56357
       4     O     4.31111  4.31111  0.00000 -0.62223
       5     H     0.40540  0.40540  0.00000  0.18920
       6     H     0.39921  0.39921  0.00000  0.20157
       7     H     0.39882  0.39882  0.00000  0.20235
       8     C     3.00618  3.00618  0.00000 -0.01235
       9     C     3.25034  3.25034  0.00000 -0.50069
      10     H     0.41793  0.41793  0.00000  0.16413
      11     H     0.40686  0.40686  0.00000  0.18628
      12     H     0.42295  0.42295  0.00000  0.15410
      13     H     0.39563  0.39563  0.00000  0.20874
      14     H     0.41163  0.41163  0.00000  0.17675

   Total alpha = 24.00000, Total beta = 24.00000, Total charge =  0.00000
