  ==> Input File <==

--------------------------------------------------------------------------
set {
	reference rhf
	basis 6-31G*
}

set_num_threads( 4 )
memory 2 gb

molecule MOL {
0 1

H	 -1.748661	 -2.220942	 -0.005015
C	 -1.343207	 -1.225221	 -0.013879
N	 -0.055091	 -1.100174	 -0.261126
C	 -2.150779	 -0.125890	 0.222726
C	 0.449969	 0.122615	 -0.277109
H	 -3.200618	 -0.238980	 0.422496
N	 -1.660212	 1.097703	 0.209594
C	 -0.371804	 1.219904	 -0.038265
C	 1.928147	 0.267347	 -0.541394
H	 0.029131	 2.217482	 -0.051283
C	 2.775543	 -0.629721	 0.367011
H	 2.115364	 0.010199	 -1.578548
H	 2.219543	 1.304705	 -0.410431
H	 3.829771	 -0.521771	 0.132602
H	 2.502610	 -1.670297	 0.235904
H	 2.635504	 -0.371863	 1.412099

	symmetry c1
}
set optking {
	frozen_dihedral = ("
		12 9 5 3
	")
}

ee = optimize('scf')
oeprop('DIPOLE', 'QUADRUPOLE', 'MULLIKEN_CHARGES')
f=open( 'psi4out.xyz', 'w' )
f.write( "16  " )
f.write( str(ee) + "\n" )
f.write( MOL.save_string_xyz() )
f.close()
--------------------------------------------------------------------------

    Molecular point group: c1
  Charge       = 0
  Multiplicity = 1
  Basis Set: 6-31G*
  Basis Set:
  @DF-RHF Final Energy:  -340.75801345253336
    Total Energy =                       -340.7580134525331914
    Molecular point group: c1
  Basis Set: 6-31G*
  Basis Set:
  Basis Set: 6-31G*
  Basis Set:
  @DF-RHF Final Energy:  -340.75808756106107
    Total Energy =                       -340.7580875610609610
  Basis Set: 6-31G*
  Basis Set:
  Basis Set: 6-31G*
  Basis Set:
  @DF-RHF Final Energy:  -340.75810013303612
    Total Energy =                       -340.7581001330360095
  Basis Set: 6-31G*
  Basis Set:
  Basis Set: 6-31G*
  Basis Set:
  @DF-RHF Final Energy:  -340.75812046176128
    Total Energy =                       -340.7581204617613366
  Basis Set: 6-31G*
  Basis Set:
  Charge       = 0
  Multiplicity = 1
  Basis Set: 6-31G*
  Basis Set:

    Orbital Energies (a.u.)
    -----------------------

    Doubly Occupied:

       1A    -15.586897     2A    -15.582328     3A    -11.281583
       4A    -11.276715     5A    -11.272252     6A    -11.271986
       7A    -11.233427     8A    -11.215013     9A     -1.313604
      10A     -1.222205    11A     -1.083936    12A     -1.013457
      13A     -0.907118    14A     -0.891222    15A     -0.826499
      16A     -0.717136    17A     -0.708503    18A     -0.658928
      19A     -0.617928    20A     -0.602217    21A     -0.574866
      22A     -0.560172    23A     -0.521875    24A     -0.504487
      25A     -0.499678    26A     -0.486290    27A     -0.428969
      28A     -0.394802    29A     -0.345287

  @DF-RHF Final Energy:  -340.75812098946164

   => Energetics <=

    Nuclear Repulsion Energy =            349.7724330018951377
    One-Electron Energy =               -1153.8623441977351831
    Two-Electron Energy =                 463.3317902063780593
    DFT Exchange-Correlation Energy =       0.0000000000000000
    Empirical Dispersion Energy =           0.0000000000000000
    PCM Polarization Energy =               0.0000000000000000
    EFP Energy =                            0.0000000000000000
    Total Energy =                       -340.7581209894619860
    Molecular point group: c1
  Basis Set: 6-31G*
  Basis Set:

  -Total Gradient:
     Atom            X                  Y                   Z
    ------   -----------------  -----------------  -----------------
       1        0.000023265347    -0.000006898760     0.000116448202
       2        0.000065305652    -0.000038590483    -0.000256941913
       3        0.000163407779    -0.000130850894     0.000744081451
       4       -0.000003979948     0.000105232680    -0.000005830115
       5       -0.000130700410     0.000267419387    -0.000998931394
       6        0.000004675468    -0.000005245207     0.000022849458
       7       -0.000074715664    -0.000047143283     0.000027989407
       8        0.000142959551     0.000015135863     0.000097608574
       9        0.000124243470    -0.000983427083     0.000480697838
      10       -0.000029919106     0.000009819191    -0.000101073595
      11       -0.000098174330     0.000082494777     0.000028405655
      12       -0.000162376647     0.000800818159    -0.000180461683
      13        0.000016940149     0.000033752111     0.000045233139
      14       -0.000024075582    -0.000014494249    -0.000030759967
      15       -0.000033787560    -0.000082283793    -0.000003955540
      16        0.000016931829    -0.000005738415     0.000014640483

  **** Optimization is complete! (in 5 steps) ****
    Final optimized geometry and variables:
    Molecular point group: c1

    Geometry (in Angstrom), charge = 0, multiplicity = 1:

    H           -1.766283158008    -2.159687890912     0.025991598746
    C           -1.355192971537    -1.166198659930     0.017022414747
    N           -0.063109726040    -1.049984964957    -0.213702514288
    C           -2.158299789506    -0.061788696250     0.242844102861
    C            0.450931484557     0.168587598453    -0.225510657133
    H           -3.211067374246    -0.167557965395     0.431060208839
    N           -1.658534504040     1.158224719071     0.236982861289
    C           -0.366497411694     1.271300880525     0.005863359571
    C            1.928900716953     0.313562739674    -0.499631771040
    H            0.041703478518     2.265989533555     0.001882167602
    C            2.799882983961    -0.567615906419     0.398159852820
    H            2.109635744110     0.063998479832    -1.541809857870
    H            2.210655648199     1.355165819615    -0.380148349841
    H            3.848035303210    -0.443227888004     0.146186261062
    H            2.540825367841    -1.611896588613     0.279118027816
    H            2.672019898030    -0.304807390756     1.443580031611

  Mulliken Charges: (a.u.)
   Center  Symbol    Alpha    Beta     Spin     Total
       1     H     0.39385  0.39385  0.00000  0.21230
       2     C     2.98959  2.98959  0.00000  0.02082
       3     N     3.75479  3.75479  0.00000 -0.50959
       4     C     2.99809  2.99809  0.00000  0.00383
       5     C     2.87209  2.87209  0.00000  0.25581
       6     H     0.39422  0.39422  0.00000  0.21157
       7     N     3.72863  3.72863  0.00000 -0.45727
       8     C     3.00145  3.00145  0.00000 -0.00291
       9     C     3.16916  3.16916  0.00000 -0.33832
      10     H     0.39502  0.39502  0.00000  0.20997
      11     C     3.24187  3.24187  0.00000 -0.48373
      12     H     0.40583  0.40583  0.00000  0.18834
      13     H     0.41463  0.41463  0.00000  0.17075
      14     H     0.41813  0.41813  0.00000  0.16374
      15     H     0.40404  0.40404  0.00000  0.19191
      16     H     0.41861  0.41861  0.00000  0.16277

   Total alpha = 29.00000, Total beta = 29.00000, Total charge =  0.00000
