  ==> Input File <==

--------------------------------------------------------------------------
set {
	reference rhf
	basis 6-31G*
}

set_num_threads( 1 )
memory 2 gb

molecule MOL {
0 1

H	 2.302506	 1.085596	 -4.955887
C	 2.679573	 1.274335	 -3.955527
C	 1.535925	 1.420210	 -2.952549
H	 3.330628	 0.447970	 -3.686099
H	 3.286308	 2.174949	 -3.995098
C	 2.033116	 1.694271	 -1.531456
H	 0.936928	 0.515348	 -2.958028
H	 0.882596	 2.232245	 -3.267910
C	 0.909925	 1.863058	 -0.508119
H	 2.682821	 0.887329	 -1.211501
H	 2.632645	 2.601795	 -1.533674
C	 0.169600	 0.576866	 -0.172154
H	 1.319490	 2.238493	 0.428404
H	 0.193822	 2.612812	 -0.837119
C	 -1.181045	 0.701995	 0.511084
O	 0.635318	 -0.495341	 -0.416867
C	 -2.285934	 -0.139295	 -0.145128
H	 -1.449051	 1.751551	 0.493206
H	 -1.071135	 0.403303	 1.551943
C	 -3.651768	 0.085446	 0.506485
H	 -2.346596	 0.110469	 -1.202272
H	 -2.034737	 -1.195320	 -0.088721
C	 -4.759797	 -0.746382	 -0.137905
H	 -3.908762	 1.140117	 0.445781
H	 -3.588286	 -0.154158	 1.565709
H	 -4.868882	 -0.505166	 -1.191300
H	 -4.548009	 -1.809175	 -0.062213
H	 -5.715422	 -0.564821	 0.343442

	symmetry c1
}
set optking {
	frozen_dihedral = ("
		10 6 3 2,
		12 15 17 21
	")
}

ee = energy('scf')
oeprop('DIPOLE', 'QUADRUPOLE', 'MULLIKEN_CHARGES')
f=open( 'psi4out.xyz', 'w' )
f.write( "28  " )
f.write( str(ee) + "\n" )
f.write( MOL.save_string_xyz() )
f.close()
--------------------------------------------------------------------------

    Molecular point group: c1

    Geometry (in Angstrom), charge = 0, multiplicity = 1:

       Center              X                  Y                   Z               Mass
    ------------   -----------------  -----------------  -----------------  -----------------
           H          2.700011516492     0.474027267196    -4.058082847719     1.007825032070
           C          3.077078516492     0.662766267196    -3.057722847719    12.000000000000
           C          1.933430516492     0.808641267196    -2.054744847719    12.000000000000
           H          3.728133516492    -0.163598732804    -2.788294847719     1.007825032070
           H          3.683813516492     1.563380267196    -3.097293847719     1.007825032070
           C          2.430621516492     1.082702267196    -0.633651847719    12.000000000000
           H          1.334433516492    -0.096220732804    -2.060223847719     1.007825032070
           H          1.280101516492     1.620676267196    -2.370105847719     1.007825032070
           C          1.307430516492     1.251489267196     0.389685152281    12.000000000000
           H          3.080326516492     0.275760267196    -0.313696847719     1.007825032070
           H          3.030150516492     1.990226267196    -0.635869847719     1.007825032070
           C          0.567105516492    -0.034702732804     0.725650152281    12.000000000000
           H          1.716995516492     1.626924267196     1.326208152281     1.007825032070
           H          0.591327516492     2.001243267196     0.060685152281     1.007825032070
           C         -0.783539483508     0.090426267196     1.408888152281    12.000000000000
           O          1.032823516492    -1.106909732804     0.480937152281    15.994914619560
           C         -1.888428483508    -0.750863732804     0.752676152281    12.000000000000
           H         -1.051545483508     1.139982267196     1.391010152281     1.007825032070
           H         -0.673629483508    -0.208265732804     2.449747152281     1.007825032070
           C         -3.254262483508    -0.526122732804     1.404289152281    12.000000000000
           H         -1.949090483508    -0.501099732804    -0.304467847719     1.007825032070
           H         -1.637231483508    -1.806888732804     0.809083152281     1.007825032070
           C         -4.362291483508    -1.357950732804     0.759899152281    12.000000000000
           H         -3.511256483508     0.528548267196     1.343585152281     1.007825032070
           H         -3.190780483508    -0.765726732804     2.463513152281     1.007825032070
           H         -4.471376483508    -1.116734732804    -0.293495847719     1.007825032070
           H         -4.150503483508    -2.420743732804     0.835591152281     1.007825032070
           H         -5.317916483508    -1.176389732804     1.241246152281     1.007825032070

  Charge       = 0
  Multiplicity = 1
  Basis Set: 6-31G*
  Basis Set:

    Orbital Energies (a.u.)
    -----------------------

    Doubly Occupied:

       1A    -20.547271     2A    -11.322755     3A    -11.230814
       4A    -11.229525     5A    -11.224485     6A    -11.221527
       7A    -11.216621     8A    -11.212752     9A    -11.212392
      10A    -11.206032    11A     -1.393276    12A     -1.089408
      13A     -1.077759    14A     -1.021678    15A     -0.990994
      16A     -0.910107    17A     -0.867489    18A     -0.806184
      19A     -0.794764    20A     -0.723581    21A     -0.667546
      22A     -0.655339    23A     -0.623258    24A     -0.618619
      25A     -0.609731    26A     -0.586556    27A     -0.576226
      28A     -0.575375    29A     -0.536889    30A     -0.532148
      31A     -0.518242    32A     -0.508548    33A     -0.498564
      34A     -0.478559    35A     -0.477145    36A     -0.471419
      37A     -0.467676    38A     -0.464650    39A     -0.456619
      40A     -0.392439

  @DF-RHF Final Energy:  -426.16866706187841

   => Energetics <=

    Nuclear Repulsion Energy =            532.6438804607222437
    One-Electron Energy =               -1633.5951585022030486
    Two-Electron Energy =                 674.7826109796023957
    DFT Exchange-Correlation Energy =       0.0000000000000000
    Empirical Dispersion Energy =           0.0000000000000000
    PCM Polarization Energy =               0.0000000000000000
    EFP Energy =                            0.0000000000000000
    Total Energy =                       -426.1686670618782955

  Mulliken Charges: (a.u.)
   Center  Symbol    Alpha    Beta     Spin     Total
       1     H     0.41937  0.41937  0.00000  0.16126
       2     C     3.24010  3.24010  0.00000 -0.48021
       3     C     3.15636  3.15636  0.00000 -0.31272
       4     H     0.41823  0.41823  0.00000  0.16354
       5     H     0.42352  0.42352  0.00000  0.15297
       6     C     3.14972  3.14972  0.00000 -0.29945
       7     H     0.41062  0.41062  0.00000  0.17877
       8     H     0.42769  0.42769  0.00000  0.14463
       9     C     3.21232  3.21232  0.00000 -0.42465
      10     H     0.40646  0.40646  0.00000  0.18709
      11     H     0.42177  0.42177  0.00000  0.15646
      12     C     2.73315  2.73315  0.00000  0.53369
      13     H     0.40355  0.40355  0.00000  0.19290
      14     H     0.41223  0.41223  0.00000  0.17554
      15     C     3.20050  3.20050  0.00000 -0.40100
      16     O     4.26939  4.26939  0.00000 -0.53878
      17     C     3.15355  3.15355  0.00000 -0.30709
      18     H     0.41663  0.41663  0.00000  0.16675
      19     H     0.40276  0.40276  0.00000  0.19448
      20     C     3.15289  3.15289  0.00000 -0.30578
      21     H     0.42012  0.42012  0.00000  0.15976
      22     H     0.40589  0.40589  0.00000  0.18822
      23     C     3.23989  3.23989  0.00000 -0.47978
      24     H     0.42327  0.42327  0.00000  0.15346
      25     H     0.42171  0.42171  0.00000  0.15657
      26     H     0.42074  0.42074  0.00000  0.15852
      27     H     0.41926  0.41926  0.00000  0.16147
      28     H     0.41830  0.41830  0.00000  0.16341

   Total alpha = 40.00000, Total beta = 40.00000, Total charge = -0.00000
