  ==> Input File <==

--------------------------------------------------------------------------
set {
	reference rhf
	basis 6-31G*
}

set_num_threads( 4 )
memory 2 gb

molecule MOL {
0 1

H	 -2.365627	 -1.312883	 -0.379134
C	 -1.358347	 -1.274295	 0.019669
C	 -0.681945	 0.000119	 -0.470601
H	 -0.826096	 -2.155117	 -0.321105
H	 -1.409554	 -1.292283	 1.100109
C	 -1.357790	 1.274691	 0.020220
N	 0.739525	 -0.000142	 0.006128
H	 -0.594190	 0.000341	 -1.545128
H	 -2.364980	 1.313977	 -0.378631
H	 -0.825080	 2.155361	 -0.320114
H	 -1.409060	 1.292170	 1.100671
O	 1.261188	 1.057106	 0.181271
O	 1.258929	 -1.060943	 0.180259

	symmetry c1
}
set optking {
	frozen_dihedral = ("
		12 7 3 8
	")
}

ee = optimize('scf')
oeprop('DIPOLE', 'QUADRUPOLE', 'MULLIKEN_CHARGES')
f=open( 'psi4out.xyz', 'w' )
f.write( "13  " )
f.write( str(ee) + "\n" )
f.write( MOL.save_string_xyz() )
f.close()
--------------------------------------------------------------------------

    Molecular point group: c1
  Charge       = 0
  Multiplicity = 1
  Basis Set: 6-31G*
  Basis Set:
  @DF-RHF Final Energy:  -321.73600787534258
    Total Energy =                       -321.7360078753425228
    Molecular point group: c1
  Basis Set: 6-31G*
  Basis Set:
  Basis Set: 6-31G*
  Basis Set:
  @DF-RHF Final Energy:  -321.73335991401586
    Total Energy =                       -321.7333599140158640
  Basis Set: 6-31G*
  Basis Set:
  Basis Set: 6-31G*
  Basis Set:
  @DF-RHF Final Energy:  -321.73466769036031
    Total Energy =                       -321.7346676903601974
  Basis Set: 6-31G*
  Basis Set:
  Basis Set: 6-31G*
  Basis Set:
  @DF-RHF Final Energy:  -321.73699010344427
    Total Energy =                       -321.7369901034443842
  Basis Set: 6-31G*
  Basis Set:
  Basis Set: 6-31G*
  Basis Set:
  @DF-RHF Final Energy:  -321.73701675021721
    Total Energy =                       -321.7370167502170943
  Basis Set: 6-31G*
  Basis Set:
  Basis Set: 6-31G*
  Basis Set:
  @DF-RHF Final Energy:  -321.73702273380866
    Total Energy =                       -321.7370227338085442
  Basis Set: 6-31G*
  Basis Set:
  Charge       = 0
  Multiplicity = 1
  Basis Set: 6-31G*
  Basis Set:

    Orbital Energies (a.u.)
    -----------------------

    Doubly Occupied:

       1A    -20.599669     2A    -20.599258     3A    -15.844700
       4A    -11.308855     5A    -11.241375     6A    -11.241109
       7A     -1.629557     8A     -1.414294     9A     -1.141034
      10A     -0.967707    11A     -0.959212    12A     -0.812653
      13A     -0.762912    14A     -0.725068    15A     -0.719647
      16A     -0.638702    17A     -0.596610    18A     -0.585241
      19A     -0.571214    20A     -0.522183    21A     -0.521804
      22A     -0.479807    23A     -0.471831    24A     -0.447628

  @DF-RHF Final Energy:  -321.73702340605712

   => Energetics <=

    Nuclear Repulsion Energy =            256.6592295610925021
    One-Electron Energy =                -947.1883679932805080
    Two-Electron Energy =                 368.7921150261306593
    DFT Exchange-Correlation Energy =       0.0000000000000000
    Empirical Dispersion Energy =           0.0000000000000000
    PCM Polarization Energy =               0.0000000000000000
    EFP Energy =                            0.0000000000000000
    Total Energy =                       -321.7370234060573466
    Molecular point group: c1
  Basis Set: 6-31G*
  Basis Set:

  -Total Gradient:
     Atom            X                  Y                   Z
    ------   -----------------  -----------------  -----------------
       1       -0.000009861369    -0.000003130272     0.000011771880
       2       -0.000020128787    -0.000025830225    -0.000046623622
       3        0.000017019664    -0.000177858213     0.000009560664
       4       -0.000017076950     0.000002796878     0.000004070729
       5        0.000010287162     0.000019762851    -0.000001656216
       6        0.000036278897    -0.000007651288    -0.000007965643
       7        0.000017735709     0.000038136697     0.000103901627
       8       -0.000002541464     0.000107497670    -0.000001568274
       9        0.000005839782     0.000001367263     0.000002045258
      10        0.000006604460     0.000023266964     0.000008582272
      11       -0.000004949335     0.000007612561     0.000000207626
      12       -0.000033057588     0.000056918215    -0.000092103758
      13       -0.000006150189    -0.000042889103     0.000009777457

  **** Optimization is complete! (in 7 steps) ****
    Final optimized geometry and variables:
    Molecular point group: c1

    Geometry (in Angstrom), charge = 0, multiplicity = 1:

    H           -2.401763860937    -1.258368044753    -0.365107037516
    C           -1.386072204440    -1.271118051417     0.013480596003
    C           -0.684821773024     0.000707137195    -0.443311622592
    H           -0.889245692767    -2.155659032946    -0.354836102481
    H           -1.427340344889    -1.322580700094     1.095572463127
    C           -1.384671272796     1.274445665002     0.009317857736
    N            0.750093527057    -0.000786873352     0.023920406359
    H           -0.579492228335    -0.000824583202    -1.522217208468
    H           -2.399596466859     1.261856514636    -0.371441672119
    H           -0.886300947789     2.157609846020    -0.360485933644
    H           -1.427749560816     1.329609142241     1.091037624872
    O            1.278449165568     1.054353092506     0.194112607706
    O            1.288178924384    -1.057424857165     0.150049198873

  Mulliken Charges: (a.u.)
   Center  Symbol    Alpha    Beta     Spin     Total
       1     H     0.41114  0.41114  0.00000  0.17773
       2     C     3.24482  3.24482  0.00000 -0.48964
       3     C     3.02904  3.02904  0.00000 -0.05809
       4     H     0.39295  0.39295  0.00000  0.21410
       5     H     0.40741  0.40741  0.00000  0.18518
       6     C     3.24436  3.24436  0.00000 -0.48871
       7     N     3.21606  3.21606  0.00000  0.56787
       8     H     0.38474  0.38474  0.00000  0.23053
       9     H     0.41138  0.41138  0.00000  0.17724
      10     H     0.39344  0.39344  0.00000  0.21312
      11     H     0.40723  0.40723  0.00000  0.18554
      12     O     4.22865  4.22865  0.00000 -0.45730
      13     O     4.22879  4.22879  0.00000 -0.45757

   Total alpha = 24.00000, Total beta = 24.00000, Total charge =  0.00000
