  ==> Input File <==

--------------------------------------------------------------------------
set {
	reference rhf
	basis 6-31G*
}

set_num_threads( 4 )
memory 2 gb

molecule MOL {
0 1

O	 0.749854	 1.307668	 -0.000040
C	 0.576249	 0.131685	 -0.000108
C	 -0.766779	 -0.556801	 -0.000461
O	 1.568443	 -0.749345	 -0.000005
C	 -1.945214	 0.412366	 0.000161
H	 -0.796911	 -1.211249	 -0.867467
H	 -0.796854	 -1.212390	 0.865687
C	 -1.512928	 1.841255	 -0.325375
H	 -2.431207	 0.384417	 0.969507
H	 -2.685041	 0.076758	 -0.718586
H	 -0.794054	 2.212234	 0.399917
H	 -2.364274	 2.513992	 -0.319374
H	 -1.051752	 1.901375	 -1.307299
C	 2.886820	 -0.232538	 0.000322
H	 3.059106	 0.369571	 -0.880203
H	 3.540187	 -1.091012	 0.000050
H	 3.059019	 0.368956	 0.881266

	symmetry c1
}
set optking {
	frozen_dihedral = ("
		9 5 3 6
	")
}

ee = optimize('scf')
oeprop('DIPOLE', 'QUADRUPOLE', 'MULLIKEN_CHARGES')
f=open( 'psi4out.xyz', 'w' )
f.write( "17  " )
f.write( str(ee) + "\n" )
f.write( MOL.save_string_xyz() )
f.close()
--------------------------------------------------------------------------

    Molecular point group: c1
  Charge       = 0
  Multiplicity = 1
  Basis Set: 6-31G*
  Basis Set:
  @DF-RHF Final Energy:  -344.87026584726232
    Total Energy =                       -344.8702658472622034
    Molecular point group: c1
  Basis Set: 6-31G*
  Basis Set:
  Basis Set: 6-31G*
  Basis Set:
  @DF-RHF Final Energy:  -344.88960461633695
    Total Energy =                       -344.8896046163367828
  Basis Set: 6-31G*
  Basis Set:
  Basis Set: 6-31G*
  Basis Set:
  @DF-RHF Final Energy:  -344.89369790646703
    Total Energy =                       -344.8936979064670822
  Basis Set: 6-31G*
  Basis Set:
  Basis Set: 6-31G*
  Basis Set:
  @DF-RHF Final Energy:  -344.88991462596243
    Total Energy =                       -344.8899146259626605
  Basis Set: 6-31G*
  Basis Set:
  @DF-RHF Final Energy:  -344.89578264716255
    Total Energy =                       -344.8957826471626049
  @DF-RHF Final Energy:  -344.89624334868614
    Total Energy =                       -344.8962433486858572
  @DF-RHF Final Energy:  -344.89683027687289
    Total Energy =                       -344.8968302768727767
  @DF-RHF Final Energy:  -344.89731406455473
    Total Energy =                       -344.8973140645550757
  @DF-RHF Final Energy:  -344.89760225377967
    Total Energy =                       -344.8976022537796098
  @DF-RHF Final Energy:  -344.89772844818475
    Total Energy =                       -344.8977284481849210
  @DF-RHF Final Energy:  -344.89778369255959
    Total Energy =                       -344.8977836925596421
  @DF-RHF Final Energy:  -344.89784856645440
    Total Energy =                       -344.8978485664543427
  @DF-RHF Final Energy:  -344.89801163405906
    Total Energy =                       -344.8980116340587756
  @DF-RHF Final Energy:  -344.89801392638549
    Total Energy =                       -344.8980139263854880
  @DF-RHF Final Energy:  -344.89720855802324
    Total Energy =                       -344.8972085580231806
  @DF-RHF Final Energy:  -344.89821785414659
    Total Energy =                       -344.8982178541466510
  Basis Set: 6-31G*
  Basis Set:
  @DF-RHF Final Energy:  -344.89827243640991
    Total Energy =                       -344.8982724364099681
  Basis Set: 6-31G*
  Basis Set:
  Basis Set: 6-31G*
  Basis Set:
  @DF-RHF Final Energy:  -344.89829265738268
    Total Energy =                       -344.8982926573826830
  Basis Set: 6-31G*
  Basis Set:
  Basis Set: 6-31G*
  Basis Set:
  @DF-RHF Final Energy:  -344.89829511861166
    Total Energy =                       -344.8982951186117134
  Basis Set: 6-31G*
  Basis Set:
  Charge       = 0
  Multiplicity = 1
  Basis Set: 6-31G*
  Basis Set:

    Orbital Energies (a.u.)
    -----------------------

    Doubly Occupied:

       1A    -20.605539     2A    -20.542763     3A    -11.371633
       4A    -11.280807     5A    -11.233988     6A    -11.232928
       7A    -11.214844     8A     -1.469418     9A     -1.361400
      10A     -1.078505    11A     -0.997145    12A     -0.944004
      13A     -0.835725    14A     -0.768877    15A     -0.690476
      16A     -0.678961    17A     -0.673101    18A     -0.630808
      19A     -0.607795    20A     -0.579149    21A     -0.553342
      22A     -0.539748    23A     -0.527209    24A     -0.502150
      25A     -0.484662    26A     -0.477349    27A     -0.454182
      28A     -0.432687

  @DF-RHF Final Energy:  -344.89829541117473

   => Energetics <=

    Nuclear Repulsion Energy =            322.2168341911412313
    One-Electron Energy =               -1108.6918707223385354
    Two-Electron Energy =                 441.5767411200225752
    DFT Exchange-Correlation Energy =       0.0000000000000000
    Empirical Dispersion Energy =           0.0000000000000000
    PCM Polarization Energy =               0.0000000000000000
    EFP Energy =                            0.0000000000000000
    Total Energy =                       -344.8982954111746722
    Molecular point group: c1
  Basis Set: 6-31G*
  Basis Set:

  -Total Gradient:
     Atom            X                  Y                   Z
    ------   -----------------  -----------------  -----------------
       1        0.000025971192     0.000008072826    -0.000026216586
       2       -0.000036075566     0.000019603779     0.000079351333
       3        0.002982420882     0.001402861841    -0.002867786894
       4        0.000004026549     0.000035463472    -0.000033326524
       5        0.002421692078     0.002954306203     0.001702674333
       6       -0.002863044058    -0.001647978306     0.002097865633
       7        0.000007582772     0.000005641933     0.000005834173
       8       -0.000016820861    -0.000001061453    -0.000015764925
       9       -0.002530291425    -0.002747417301    -0.000970704582
      10       -0.000002467608     0.000004568053    -0.000003098059
      11        0.000008916347     0.000005168923     0.000012471752
      12        0.000005315557     0.000000780320     0.000000392649
      13        0.000000857190    -0.000002943841     0.000002603903
      14       -0.000007659960    -0.000069265342     0.000026964477
      15       -0.000014429305     0.000010765812     0.000000322556
      16        0.000002111807     0.000010335714    -0.000004032634
      17        0.000011894408     0.000011097366    -0.000007550607

  **** Optimization is complete! (in 20 steps) ****
    Final optimized geometry and variables:
    Molecular point group: c1

    Geometry (in Angstrom), charge = 0, multiplicity = 1:

    O            0.692553732638     0.203374118879     1.444022786257
    C            0.296353682638    -0.361179011868     0.474602763314
    C           -1.117489777155    -0.854214810160     0.290872110623
    O            1.060244960833    -0.612590644030    -0.579822939716
    C           -2.109278809844     0.236613295743    -0.206285187523
    H           -1.123468233940    -1.703103581837    -0.379821379976
    H           -1.440912160413    -1.211483337021     1.260510449579
    C           -1.483993051477     1.473589228717    -0.852130256261
    H           -2.746935172619     0.532342131853     0.619023146126
    H           -2.772350827930    -0.231372964812    -0.926904762430
    H           -0.861282725724     2.017548747723    -0.150101469167
    H           -2.262220822117     2.147885122223    -1.194203211001
    H           -0.874763593076     1.207195709745    -1.709758434913
    C            2.402885033393    -0.165885331183    -0.520051268978
    H            2.440843774658     0.908209582095    -0.408727107087
    H            2.854179694054    -0.461672141334    -1.454260201015
    H            2.919581657942    -0.627420284908     0.308918817027

  Mulliken Charges: (a.u.)
   Center  Symbol    Alpha    Beta     Spin     Total
       1     O     4.28505  4.28505  0.00000 -0.57010
       2     C     2.61828  2.61828  0.00000  0.76344
       3     C     3.19958  3.19958  0.00000 -0.39916
       4     O     4.30182  4.30182  0.00000 -0.60364
       5     C     3.15431  3.15431  0.00000 -0.30862
       6     H     0.40186  0.40186  0.00000  0.19629
       7     H     0.39862  0.39862  0.00000  0.20276
       8     C     3.25670  3.25670  0.00000 -0.51340
       9     H     0.41133  0.41133  0.00000  0.17733
      10     H     0.41508  0.41508  0.00000  0.16984
      11     H     0.40940  0.40940  0.00000  0.18119
      12     H     0.41501  0.41501  0.00000  0.16998
      13     H     0.41388  0.41388  0.00000  0.17225
      14     C     3.09312  3.09312  0.00000 -0.18624
      15     H     0.40905  0.40905  0.00000  0.18190
      16     H     0.40867  0.40867  0.00000  0.18265
      17     H     0.40824  0.40824  0.00000  0.18353

   Total alpha = 28.00000, Total beta = 28.00000, Total charge = -0.00000
