  ==> Input File <==

--------------------------------------------------------------------------
set {
	reference rhf
	basis 6-31G*
}

set_num_threads( 1 )
memory 2 gb

molecule MOL {
0 1

O	 -0.682937	 1.318834	 -0.186099
C	 -0.860635	 0.152188	 -0.042321
C	 -2.173363	 -0.477127	 0.338347
O	 0.083258	 -0.765189	 -0.202595
H	 -2.477673	 -1.180929	 -0.427595
H	 -2.923125	 0.290956	 0.455536
H	 -2.058825	 -1.029004	 1.264191
C	 0.129700	 -1.857503	 0.712550
C	 -0.829399	 -2.962211	 0.309567
H	 -0.083367	 -1.496414	 1.707215
H	 1.153648	 -2.200300	 0.673578
H	 -0.716633	 -3.808928	 0.979704
H	 -1.855536	 -2.620788	 0.362861
H	 -0.622159	 -3.297485	 -0.700907

	symmetry c1
}
set optking {
	frozen_dihedral = ("
		10 8 4 2
	")
}

ee = energy('scf')
oeprop('DIPOLE', 'QUADRUPOLE', 'MULLIKEN_CHARGES')
f=open( 'psi4out.xyz', 'w' )
f.write( "14  " )
f.write( str(ee) + "\n" )
f.write( MOL.save_string_xyz() )
f.close()
--------------------------------------------------------------------------

    Molecular point group: c1

    Geometry (in Angstrom), charge = 0, multiplicity = 1:

       Center              X                  Y                   Z               Mass
    ------------   -----------------  -----------------  -----------------  -----------------
           O          0.044525504966     2.094999774287    -0.344515224142    15.994914619560
           C         -0.133172495034     0.928353774287    -0.200737224142    12.000000000000
           C         -1.445900495034     0.299038774287     0.179930775858    12.000000000000
           O          0.810720504966     0.010976774287    -0.361011224142    15.994914619560
           H         -1.750210495034    -0.404763225713    -0.586011224142     1.007825032070
           H         -2.195662495034     1.067121774287     0.297119775858     1.007825032070
           H         -1.331362495034    -0.252838225713     1.105774775858     1.007825032070
           C          0.857162504966    -1.081337225713     0.554133775858    12.000000000000
           C         -0.101936495034    -2.186045225713     0.151150775858    12.000000000000
           H          0.644095504966    -0.720248225713     1.548798775858     1.007825032070
           H          1.881110504966    -1.424134225713     0.515161775858     1.007825032070
           H          0.010829504966    -3.032762225713     0.821287775858     1.007825032070
           H         -1.128073495034    -1.844622225713     0.204444775858     1.007825032070
           H          0.105303504966    -2.521319225713    -0.859323224142     1.007825032070

  Charge       = 0
  Multiplicity = 1
  Basis Set: 6-31G*
  Basis Set:

    Orbital Energies (a.u.)
    -----------------------

    Doubly Occupied:

       1A    -20.597250     2A    -20.548889     3A    -11.377869
       4A    -11.304440     5A    -11.236867     6A    -11.230635
       7A     -1.464808     8A     -1.369396     9A     -1.053957
      10A     -1.026125    11A     -0.894741    12A     -0.779548
      13A     -0.707672    14A     -0.693132    15A     -0.661063
      16A     -0.627311    17A     -0.595751    18A     -0.589034
      19A     -0.569576    20A     -0.538155    21A     -0.518699
      22A     -0.491535    23A     -0.452332    24A     -0.437049

  @DF-RHF Final Energy:  -305.83715615777862

   => Energetics <=

    Nuclear Repulsion Energy =            252.6511591279847835
    One-Electron Energy =                -917.4449238789868559
    Two-Electron Energy =                 358.9566085932235637
    DFT Exchange-Correlation Energy =       0.0000000000000000
    Empirical Dispersion Energy =           0.0000000000000000
    PCM Polarization Energy =               0.0000000000000000
    EFP Energy =                            0.0000000000000000
    Total Energy =                       -305.8371561577785087

  Mulliken Charges: (a.u.)
   Center  Symbol    Alpha    Beta     Spin     Total
       1     O     4.26356  4.26356  0.00000 -0.52712
       2     C     2.60962  2.60962  0.00000  0.78075
       3     C     3.31987  3.31987  0.00000 -0.63974
       4     O     4.30210  4.30210  0.00000 -0.60419
       5     H     0.39477  0.39477  0.00000  0.21046
       6     H     0.39132  0.39132  0.00000  0.21736
       7     H     0.40250  0.40250  0.00000  0.19501
       8     C     3.02019  3.02019  0.00000 -0.04038
       9     C     3.25525  3.25525  0.00000 -0.51050
      10     H     0.41255  0.41255  0.00000  0.17489
      11     H     0.39649  0.39649  0.00000  0.20702
      12     H     0.41513  0.41513  0.00000  0.16975
      13     H     0.41013  0.41013  0.00000  0.17973
      14     H     0.40652  0.40652  0.00000  0.18695

   Total alpha = 24.00000, Total beta = 24.00000, Total charge =  0.00000
