  ==> Input File <==

--------------------------------------------------------------------------
set {
	reference rhf
	basis 6-31G*
}

set_num_threads( 1 )
memory 2 gb

molecule MOL {
0 1

O	 -0.291628	 1.323815	 -0.000732
C	 -0.449655	 0.146360	 0.000961
C	 -1.783294	 -0.549321	 -0.000296
O	 0.550821	 -0.724572	 0.000672
H	 -1.863538	 -1.185371	 -0.874187
H	 -2.574672	 0.185258	 -0.002793
H	 -1.866414	 -1.182381	 0.875436
C	 0.317750	 -1.969954	 0.633905
H	 0.083379	 -1.826420	 1.678809
H	 1.233887	 -2.529862	 0.529293
H	 -0.497724	 -2.492356	 0.154906

	symmetry c1
}
set optking {
	frozen_dihedral = ("
		2 4 8 9
	")
}

ee = energy('scf')
oeprop('DIPOLE', 'QUADRUPOLE', 'MULLIKEN_CHARGES')
f=open( 'psi4out.xyz', 'w' )
f.write( "11  " )
f.write( str(ee) + "\n" )
f.write( MOL.save_string_xyz() )
f.close()
--------------------------------------------------------------------------

    Molecular point group: c1

    Geometry (in Angstrom), charge = 0, multiplicity = 1:

       Center              X                  Y                   Z               Mass
    ------------   -----------------  -----------------  -----------------  -----------------
           O          0.037460072505     1.701896549347    -0.135716570012    15.994914619560
           C         -0.120566927495     0.524441549347    -0.134023570012    12.000000000000
           C         -1.454205927495    -0.171239450653    -0.135280570012    12.000000000000
           O          0.879909072505    -0.346490450653    -0.134312570012    15.994914619560
           H         -1.534449927495    -0.807289450653    -1.009171570012     1.007825032070
           H         -2.245583927495     0.563339549347    -0.137777570012     1.007825032070
           H         -1.537325927495    -0.804299450653     0.740451429988     1.007825032070
           C          0.646838072505    -1.591872450653     0.498920429988    12.000000000000
           H          0.412467072505    -1.448338450653     1.543824429988     1.007825032070
           H          1.562975072505    -2.151780450653     0.394308429988     1.007825032070
           H         -0.168635927495    -2.114274450653     0.019921429988     1.007825032070

  Charge       = 0
  Multiplicity = 1
  Basis Set: 6-31G*
  Basis Set:

    Orbital Energies (a.u.)
    -----------------------

    Doubly Occupied:

       1A    -20.605293     2A    -20.548226     3A    -11.379012
       4A    -11.299849     5A    -11.240726     6A     -1.469432
       7A     -1.371346     8A     -1.025467     9A     -0.989255
      10A     -0.785015    11A     -0.700277    12A     -0.692649
      13A     -0.684175    14A     -0.614245    15A     -0.590802
      16A     -0.568911    17A     -0.553865    18A     -0.515046
      19A     -0.455811    20A     -0.437262

  @DF-RHF Final Energy:  -266.81182747020767

   => Energetics <=

    Nuclear Repulsion Energy =            184.8668952686472835
    One-Electron Energy =                -730.3040301438466031
    Two-Electron Energy =                 278.6253074049915313
    DFT Exchange-Correlation Energy =       0.0000000000000000
    Empirical Dispersion Energy =           0.0000000000000000
    PCM Polarization Energy =               0.0000000000000000
    EFP Energy =                            0.0000000000000000
    Total Energy =                       -266.8118274702077315

  Mulliken Charges: (a.u.)
   Center  Symbol    Alpha    Beta     Spin     Total
       1     O     4.26507  4.26507  0.00000 -0.53014
       2     C     2.61164  2.61164  0.00000  0.77671
       3     C     3.31611  3.31611  0.00000 -0.63221
       4     O     4.29292  4.29292  0.00000 -0.58584
       5     H     0.39797  0.39797  0.00000  0.20405
       6     H     0.38989  0.38989  0.00000  0.22022
       7     H     0.40267  0.40267  0.00000  0.19466
       8     C     3.10387  3.10387  0.00000 -0.20775
       9     H     0.41096  0.41096  0.00000  0.17808
      10     H     0.39632  0.39632  0.00000  0.20736
      11     H     0.41258  0.41258  0.00000  0.17485

   Total alpha = 20.00000, Total beta = 20.00000, Total charge = -0.00000
