  ==> Input File <==

--------------------------------------------------------------------------
set {
	reference rhf
	basis cc-pvtz
}

set_num_threads( 4 )
memory 2 gb

molecule MOL {
0 1

H	 -2.362939	 -1.309000	 -0.383250
C	 -1.359344	 -1.272457	 0.020748
C	 -0.684082	 0.000127	 -0.464918
H	 -0.825835	 -2.151141	 -0.318537
H	 -1.416276	 -1.292399	 1.099455
C	 -1.359089	 1.272668	 0.021259
N	 0.742439	 -0.000109	 0.007333
H	 -0.596914	 0.000345	 -1.538146
H	 -2.362696	 1.309620	 -0.382686
H	 -0.825392	 2.151374	 -0.317674
H	 -1.415983	 1.292181	 1.099973
O	 0.972684	 -0.526514	 1.043446
O	 1.547929	 0.525983	 -0.685994

	symmetry c1
}
set optking {
	frozen_dihedral = ("
		12 7 3 8
	")
}

ee = optimize('scf')
oeprop('DIPOLE', 'QUADRUPOLE', 'MULLIKEN_CHARGES')
f=open( 'psi4out.xyz', 'w' )
f.write( "13  " )
f.write( str(ee) + "\n" )
f.write( MOL.save_string_xyz() )
f.close()
--------------------------------------------------------------------------

    Molecular point group: c1
  Charge       = 0
  Multiplicity = 1
  Basis Set: CC-PVTZ
  Basis Set:
  @DF-RHF Final Energy:  -321.86367959772565
    Total Energy =                       -321.8636795977258771
    Molecular point group: c1
  Basis Set: CC-PVTZ
  Basis Set:
  Basis Set: CC-PVTZ
  Basis Set:
  @DF-RHF Final Energy:  -321.86116825525875
    Total Energy =                       -321.8611682552588036
  Basis Set: CC-PVTZ
  Basis Set:
  Basis Set: CC-PVTZ
  Basis Set:
  @DF-RHF Final Energy:  -321.86201667061852
    Total Energy =                       -321.8620166706184023
  Basis Set: CC-PVTZ
  Basis Set:
  Basis Set: CC-PVTZ
  Basis Set:
  @DF-RHF Final Energy:  -321.86406386175975
    Total Energy =                       -321.8640638617596323
  Basis Set: CC-PVTZ
  Basis Set:
  Basis Set: CC-PVTZ
  Basis Set:
  @DF-RHF Final Energy:  -321.86416848544405
    Total Energy =                       -321.8641684854441110
  Basis Set: CC-PVTZ
  Basis Set:
  Basis Set: CC-PVTZ
  Basis Set:
  @DF-RHF Final Energy:  -321.86418065528454
    Total Energy =                       -321.8641806552844855
  Basis Set: CC-PVTZ
  Basis Set:
  Charge       = 0
  Multiplicity = 1
  Basis Set: CC-PVTZ
  Basis Set:

    Orbital Energies (a.u.)
    -----------------------

    Doubly Occupied:

       1A    -20.589833     2A    -20.587750     3A    -15.832866
       4A    -11.304759     5A    -11.245358     6A    -11.239178
       7A     -1.633987     8A     -1.418241     9A     -1.142237
      10A     -0.972964    11A     -0.957351    12A     -0.816211
      13A     -0.755438    14A     -0.731662    15A     -0.726132
      16A     -0.648248    17A     -0.594279    18A     -0.587648
      19A     -0.571375    20A     -0.529533    21A     -0.521977
      22A     -0.485049    23A     -0.470754    24A     -0.451825

  @DF-RHF Final Energy:  -321.86418149151910

   => Energetics <=

    Nuclear Repulsion Energy =            257.3845728858847792
    One-Electron Energy =                -948.8682046849785365
    Two-Electron Energy =                 369.6194503075743114
    DFT Exchange-Correlation Energy =       0.0000000000000000
    Empirical Dispersion Energy =           0.0000000000000000
    PCM Polarization Energy =               0.0000000000000000
    EFP Energy =                            0.0000000000000000
    Total Energy =                       -321.8641814915193891
    Molecular point group: c1
  Basis Set: CC-PVTZ
  Basis Set:

  -Total Gradient:
     Atom            X                  Y                   Z
    ------   -----------------  -----------------  -----------------
       1        0.000014401617     0.000008139379     0.000001398492
       2        0.000009198004    -0.000004472929     0.000021034613
       3        0.000017565196     0.000673034453    -0.000176469441
       4       -0.000000807717    -0.000002765428    -0.000001101510
       5       -0.000008090648    -0.000010550990     0.000015324971
       6        0.000015219492    -0.000000162889     0.000000550208
       7       -0.000158721765     0.000819697094     0.000534995834
       8        0.000027772755    -0.000775467867    -0.000004596230
       9        0.000010218067    -0.000012001825    -0.000001884899
      10        0.000007554327     0.000008945678    -0.000000304748
      11        0.000003097474    -0.000009728391    -0.000001204721
      12        0.000099331860    -0.000714397493    -0.000342716900
      13       -0.000036738659     0.000019731208    -0.000045025669

  **** Optimization is complete! (in 7 steps) ****
    Final optimized geometry and variables:
    Molecular point group: c1

    Geometry (in Angstrom), charge = 0, multiplicity = 1:

    H           -2.370868368385    -1.317080001901    -0.423351029635
    C           -1.381037984186    -1.290287750111     0.015413772260
    C           -0.684022624377    -0.030538366214    -0.460074007954
    H           -0.846646599268    -2.177341391510    -0.296858909841
    H           -1.475652110106    -1.307585057652     1.090801780442
    C           -1.345085992500     1.254357590680     0.022639935039
    N            0.745093578689     0.000848133212     0.008900340431
    H           -0.595015478439    -0.022665616867    -1.534204916583
    H           -2.359461799022     1.289893586549    -0.352328079593
    H           -0.813883276390     2.123247451095    -0.339668429906
    H           -1.378027073972     1.284231831249     1.104184955403
    O            1.009666468532    -0.519979121448     1.039308604393
    O            1.516430680946     0.577124856620    -0.683138148397

  Mulliken Charges: (a.u.)
   Center  Symbol    Alpha    Beta     Spin     Total
       1     H     0.45014  0.45014  0.00000  0.09972
       2     C     3.14391  3.14391  0.00000 -0.28782
       3     C     3.00769  3.00769  0.00000 -0.01537
       4     H     0.44058  0.44058  0.00000  0.11883
       5     H     0.43914  0.43914  0.00000  0.12172
       6     C     3.14295  3.14295  0.00000 -0.28589
       7     N     3.27415  3.27415  0.00000  0.45169
       8     H     0.42607  0.42607  0.00000  0.14785
       9     H     0.44845  0.44845  0.00000  0.10310
      10     H     0.43601  0.43601  0.00000  0.12798
      11     H     0.44303  0.44303  0.00000  0.11393
      12     O     4.17383  4.17383  0.00000 -0.34765
      13     O     4.17404  4.17404  0.00000 -0.34809

   Total alpha = 24.00000, Total beta = 24.00000, Total charge =  0.00000
