                              Psi4 1.0.54 Driver

  ==> Input File <==

--------------------------------------------------------------------------
set {
	reference rhf
	basis cc-pvtz
}

set_num_threads( 4 )
memory 2 gb

molecule MOL {
0 1

H	 -3.034039	 -0.667848	 0.004703
O	 -2.240597	 -1.171748	 0.000934
C	 -1.159675	 -0.364500	 0.000370
C	 -0.442992	 -0.086330	 1.146407
C	 -0.782564	 0.190513	 -1.212809
H	 -0.734750	 -0.513913	 2.088271
C	 0.653981	 0.754089	 1.065328
H	 -1.362326	 -0.044089	 -2.084459
C	 0.312996	 1.026464	 -1.292259
H	 1.212290	 0.975266	 1.955352
C	 1.033597	 1.308730	 -0.135952
C	 0.737318	 1.611149	 -2.615792
H	 1.885346	 1.960626	 -0.180860
H	 0.999707	 2.656773	 -2.512617
H	 -0.050244	 1.531063	 -3.352730
H	 1.608106	 1.091724	 -3.001239

	symmetry c1
}
set optking {
	frozen_dihedral = ("
		5 3 2 1
	")
}

ee,wfn = optimize('scf', return_wfn=True)
oeprop( wfn, 'DIPOLE', 'QUADRUPOLE', 'MULLIKEN_CHARGES')
f=open( 'psi4out.xyz', 'w' )
f.write( "16  " )
f.write( str(ee) + "\n" )
f.write( MOL.save_string_xyz() )
f.close()
--------------------------------------------------------------------------

    Molecular point group: c1
  Charge       = 0
  Multiplicity = 1
  Basis Set: CC-PVTZ
  Basis Set:
  @DF-RHF Final Energy:  -344.71526432451810
    Total Energy =                       -344.7152643245180457
    Molecular point group: c1
  Basis Set: CC-PVTZ
  Basis Set:
  Basis Set: CC-PVTZ
  Basis Set:
  @DF-RHF Final Energy:  -344.71626039895511
    Total Energy =                       -344.7162603989550576
  Basis Set: CC-PVTZ
  Basis Set:
  Basis Set: CC-PVTZ
  Basis Set:
  @DF-RHF Final Energy:  -344.71632397715018
    Total Energy =                       -344.7163239771500685
  Basis Set: CC-PVTZ
  Basis Set:
  Basis Set: CC-PVTZ
  Basis Set:
  @DF-RHF Final Energy:  -344.71632987752082
    Total Energy =                       -344.7163298775208773
  Basis Set: CC-PVTZ
  Basis Set:
  Basis Set: CC-PVTZ
  Basis Set:
  @DF-RHF Final Energy:  -344.71633108492438
    Total Energy =                       -344.7163310849247182
  Basis Set: CC-PVTZ
  Basis Set:
  Charge       = 0
  Multiplicity = 1
  Basis Set: CC-PVTZ
  Basis Set:

    Orbital Energies (a.u.)
    -----------------------

    Doubly Occupied:

       1A    -20.569278     2A    -11.286524     3A    -11.240639
       4A    -11.230819     5A    -11.221178     6A    -11.219328
       7A    -11.218966     8A    -11.218602     9A     -1.396032
      10A     -1.155049    11A     -1.047040    12A     -1.007220
      13A     -0.939527    14A     -0.833382    15A     -0.808015
      16A     -0.722897    17A     -0.679994    18A     -0.658236
      19A     -0.621613    20A     -0.593565    21A     -0.578509
      22A     -0.570366    23A     -0.553229    24A     -0.515893
      25A     -0.505316    26A     -0.485003    27A     -0.466911
      28A     -0.334118    29A     -0.322347

  @DF-RHF Final Energy:  -344.71633143521643

   => Energetics <=

    Nuclear Repulsion Energy =            345.8280454935496095
    One-Electron Energy =               -1153.0895677462638105
    Two-Electron Energy =                 462.5451908174975415
    DFT Exchange-Correlation Energy =       0.0000000000000000
    Empirical Dispersion Energy =           0.0000000000000000
    PCM Polarization Energy =               0.0000000000000000
    EFP Energy =                            0.0000000000000000
    Total Energy =                       -344.7163314352167163
    Molecular point group: c1
  Basis Set: CC-PVTZ
  Basis Set:

  -Total Gradient:
     Atom            X                  Y                   Z
    ------   -----------------  -----------------  -----------------
       1        0.000019759281     0.000040646447     0.000907689021
       2        0.000134596113    -0.000345071978    -0.001190745381
       3       -0.000541222294     0.000816805618     0.000443502375
       4        0.000007582192     0.000011290358     0.000003209322
       5        0.000368115496    -0.000499821221    -0.000157479024
       6       -0.000008034029    -0.000007201382    -0.000001133425
       7       -0.000015092876    -0.000006134034    -0.000014749852
       8        0.000014395824     0.000002482321     0.000016106689
       9        0.000016440919    -0.000015894283    -0.000013940498
      10       -0.000000706416     0.000000875320     0.000000648831
      11        0.000008644578    -0.000012566650     0.000010963571
      12        0.000001500816     0.000003029984     0.000005872702
      13       -0.000004159728     0.000002067522    -0.000008624738
      14       -0.000008277258     0.000007550143     0.000000245454
      15        0.000001388856    -0.000004101721    -0.000010314030
      16        0.000005068523     0.000006043555     0.000008748983

  **** Optimization is complete! (in 6 steps) ****
    Final optimized geometry and variables:
    Molecular point group: c1

    Geometry (in Angstrom), charge = 0, multiplicity = 1:

    H           -2.755279469692    -1.106503364817     0.446344126616
    O           -1.946425428294    -1.587361737689     0.448936503544
    C           -0.880428850201    -0.732395649459     0.394358406603
    C           -0.164408487458    -0.465336776292     1.540965081227
    C           -0.496412690056    -0.184592096028    -0.816719307313
    H           -0.468031725544    -0.908563098154     2.468931141904
    C            0.937481395984     0.367294565462     1.465022186586
    H           -1.063499437207    -0.427250635364    -1.695575096235
    C            0.603559524903     0.651128778043    -0.897415945574
    H            1.500370399673     0.583031896295     2.353354502073
    C            1.317243599326     0.924427494166     0.261851489011
    C            1.037842573751     1.231809628417    -2.219934936043
    H            2.173746399033     1.571094081575     0.220347089318
    H            1.308264305350     2.275511210990    -2.117282928620
    H            0.251655979807     1.158732931849    -2.959409003813
    H            1.904839782746     0.705492642249    -2.604512389308

  Mulliken Charges: (a.u.)
   Center  Symbol    Alpha    Beta     Spin     Total
       1     H     0.38857  0.38857  0.00000  0.22287
       2     O     4.19202  4.19202  0.00000 -0.38403
       3     C     2.85700  2.85700  0.00000  0.28601
       4     C     3.12245  3.12245  0.00000 -0.24490
       5     C     3.14639  3.14639  0.00000 -0.29278
       6     H     0.41698  0.41698  0.00000  0.16605
       7     C     3.05987  3.05987  0.00000 -0.11975
       8     H     0.42137  0.42137  0.00000  0.15727
       9     C     2.94629  2.94629  0.00000  0.10743
      10     H     0.42222  0.42222  0.00000  0.15557
      11     C     3.10786  3.10786  0.00000 -0.21572
      12     C     3.14625  3.14625  0.00000 -0.29251
      13     H     0.42697  0.42697  0.00000  0.14607
      14     H     0.44822  0.44822  0.00000  0.10357
      15     H     0.45120  0.45120  0.00000  0.09760
      16     H     0.44636  0.44636  0.00000  0.10727

   Total alpha = 29.00000, Total beta = 29.00000, Total charge = -0.00000

*** Psi4 exiting successfully. Buy a developer a beer!
