  ==> Input File <==

--------------------------------------------------------------------------
set {
	reference rhf
	basis 6-31G*
}

set_num_threads( 1 )
memory 2 gb

molecule MOL {
0 1

O	 -2.042549	 -1.228399	 -0.269030
C	 -1.653912	 -0.146171	 0.050137
C	 -0.332303	 0.024011	 0.778412
C	 -2.438579	 1.106236	 -0.272369
C	 0.845713	 -0.001731	 -0.208243
H	 -0.323783	 0.953829	 1.340327
H	 -0.235459	 -0.796807	 1.480410
C	 0.925690	 1.263975	 -1.063009
H	 0.760959	 -0.869568	 -0.859977
H	 1.766147	 -0.124141	 0.354748
C	 2.101525	 1.244971	 -2.038846
H	 -0.002622	 1.385470	 -1.616996
H	 1.009826	 2.130729	 -0.411682
H	 2.027660	 0.407392	 -2.726637
H	 3.046749	 1.157053	 -1.511337
H	 2.135041	 2.155274	 -2.628974
H	 -3.277823	 0.863061	 -0.908988
H	 -1.806773	 1.843019	 -0.759671
H	 -2.802853	 1.554979	 0.648059

	symmetry c1
}
set optking {
	frozen_dihedral = ("
		11 8 5 9,
		5 3 2 4
	")
}

ee = energy('scf')
oeprop('DIPOLE', 'QUADRUPOLE', 'MULLIKEN_CHARGES')
f=open( 'psi4out.xyz', 'w' )
f.write( "19  " )
f.write( str(ee) + "\n" )
f.write( MOL.save_string_xyz() )
f.close()
--------------------------------------------------------------------------

    Molecular point group: c1

    Geometry (in Angstrom), charge = 0, multiplicity = 1:

       Center              X                  Y                   Z               Mass
    ------------   -----------------  -----------------  -----------------  -----------------
           O         -1.673099674208    -1.558016869748     0.180673812961    15.994914619560
           C         -1.284462674208    -0.475788869748     0.499840812961    12.000000000000
           C          0.037146325792    -0.305606869748     1.228115812961    12.000000000000
           C         -2.069129674208     0.776618130252     0.177334812961    12.000000000000
           C          1.215162325792    -0.331348869748     0.241460812961    12.000000000000
           H          0.045666325792     0.624211130252     1.790030812961     1.007825032070
           H          0.133990325792    -1.126424869748     1.930113812961     1.007825032070
           C          1.295139325792     0.934357130252    -0.613305187039    12.000000000000
           H          1.130408325792    -1.199185869748    -0.410273187039     1.007825032070
           H          2.135596325792    -0.453758869748     0.804451812961     1.007825032070
           C          2.470974325792     0.915353130252    -1.589142187039    12.000000000000
           H          0.366827325792     1.055852130252    -1.167292187039     1.007825032070
           H          1.379275325792     1.801111130252     0.038021812961     1.007825032070
           H          2.397109325792     0.077774130252    -2.276933187039     1.007825032070
           H          3.416198325792     0.827435130252    -1.061633187039     1.007825032070
           H          2.504490325792     1.825656130252    -2.179270187039     1.007825032070
           H         -2.908373674208     0.533443130252    -0.459284187039     1.007825032070
           H         -1.437323674208     1.513401130252    -0.309967187039     1.007825032070
           H         -2.433403674208     1.225361130252     1.097762812961     1.007825032070

  Charge       = 0
  Multiplicity = 1
  Basis Set: 6-31G*
  Basis Set:

    Orbital Energies (a.u.)
    -----------------------

    Doubly Occupied:

       1A    -20.547761     2A    -11.324329     3A    -11.230205
       4A    -11.229221     5A    -11.226901     6A    -11.226691
       7A    -11.216144     8A     -1.393434     9A     -1.094182
      10A     -1.026415    11A     -0.985971    12A     -0.890732
      13A     -0.811183    14A     -0.732202    15A     -0.665980
      16A     -0.638909    17A     -0.624839    18A     -0.611192
      19A     -0.583420    20A     -0.573211    21A     -0.564863
      22A     -0.529913    23A     -0.520520    24A     -0.506658
      25A     -0.479385    26A     -0.475536    27A     -0.460228
      28A     -0.397922

  @DF-RHF Final Energy:  -309.06130781072625

   => Energetics <=

    Nuclear Repulsion Energy =            309.1066096670318757
    One-Electron Energy =               -1031.1997672568304552
    Two-Electron Energy =                 413.0318497790720471
    DFT Exchange-Correlation Energy =       0.0000000000000000
    Empirical Dispersion Energy =           0.0000000000000000
    PCM Polarization Energy =               0.0000000000000000
    EFP Energy =                            0.0000000000000000
    Total Energy =                       -309.0613078107265324

  Mulliken Charges: (a.u.)
   Center  Symbol    Alpha    Beta     Spin     Total
       1     O     4.26250  4.26250  0.00000 -0.52500
       2     C     2.73860  2.73860  0.00000  0.52280
       3     C     3.20125  3.20125  0.00000 -0.40250
       4     C     3.29059  3.29059  0.00000 -0.58118
       5     C     3.16106  3.16106  0.00000 -0.32213
       6     H     0.41655  0.41655  0.00000  0.16690
       7     H     0.39904  0.39904  0.00000  0.20192
       8     C     3.15803  3.15803  0.00000 -0.31606
       9     H     0.40695  0.40695  0.00000  0.18611
      10     H     0.41464  0.41464  0.00000  0.17073
      11     C     3.23931  3.23931  0.00000 -0.47861
      12     H     0.42107  0.42107  0.00000  0.15786
      13     H     0.42219  0.42219  0.00000  0.15562
      14     H     0.41828  0.41828  0.00000  0.16343
      15     H     0.42018  0.42018  0.00000  0.15964
      16     H     0.41776  0.41776  0.00000  0.16448
      17     H     0.39767  0.39767  0.00000  0.20465
      18     H     0.40721  0.40721  0.00000  0.18559
      19     H     0.40711  0.40711  0.00000  0.18577

   Total alpha = 28.00000, Total beta = 28.00000, Total charge = -0.00000
