                              Psi4 1.0.54 Driver

  ==> Input File <==

--------------------------------------------------------------------------
set {
	reference rhf
	basis cc-pvtz
}

set_num_threads( 4 )
memory 2 gb

molecule MOL {
0 1

H	 -2.597248	 -0.502057	 -0.074880
N	 -1.852049	 0.161449	 -0.071570
C	 -0.561518	 -0.500001	 0.035203
H	 -2.004766	 0.772272	 0.703613
C	 0.575007	 0.507855	 -0.048829
H	 -0.478211	 -1.200747	 -0.788953
H	 -0.456313	 -1.081810	 0.952179
C	 1.951628	 -0.141977	 0.035104
H	 0.478132	 1.061649	 -0.975978
H	 0.467554	 1.231897	 0.755502
H	 2.101428	 -0.848136	 -0.774946
H	 2.738138	 0.600800	 -0.026523
H	 2.078817	 -0.679786	 0.968827

	symmetry c1
}
ee,wfn = energy('scf', return_wfn=True)
oeprop( wfn, 'DIPOLE', 'QUADRUPOLE', 'MULLIKEN_CHARGES')
oeprop( wfn, 'GRID_ESP')
f=open( 'psi4out.xyz', 'w' )
f.write( "13  " )
f.write( str(ee) + "\n" )
f.write( MOL.save_string_xyz() )
f.close()
--------------------------------------------------------------------------

    Molecular point group: c1

    Geometry (in Angstrom), charge = 0, multiplicity = 1:

       Center              X                  Y                   Z               Mass
    ------------   -----------------  -----------------  -----------------  -----------------
           H         -2.597125589734    -0.502062653397    -0.074882682218     1.007825032070
           N         -1.851926589734     0.161443346603    -0.071572682218    14.003074004780
           C         -0.561395589734    -0.500006653397     0.035200317782    12.000000000000
           H         -2.004643589734     0.772266346603     0.703610317782     1.007825032070
           C          0.575129410266     0.507849346603    -0.048831682218    12.000000000000
           H         -0.478088589734    -1.200752653397    -0.788955682218     1.007825032070
           H         -0.456190589734    -1.081815653397     0.952176317782     1.007825032070
           C          1.951750410266    -0.141982653397     0.035101317782    12.000000000000
           H          0.478254410266     1.061643346603    -0.975980682218     1.007825032070
           H          0.467676410266     1.231891346603     0.755499317782     1.007825032070
           H          2.101550410266    -0.848141653397    -0.774948682218     1.007825032070
           H          2.738260410266     0.600794346603    -0.026525682218     1.007825032070
           H          2.078939410266    -0.679791653397     0.968824317782     1.007825032070

  Charge       = 0
  Multiplicity = 1
  Basis Set: CC-PVTZ
  Basis Set:

    Orbital Energies (a.u.)
    -----------------------

    Doubly Occupied:

       1A    -15.526745     2A    -11.238340     3A    -11.210449
       4A    -11.207088     5A     -1.178507     6A     -1.036400
       7A     -0.899373     8A     -0.800228     9A     -0.663152
      10A     -0.631050    11A     -0.604224    12A     -0.566149
      13A     -0.531549    14A     -0.492662    15A     -0.477607
      16A     -0.469035    17A     -0.384434

  @DF-RHF Final Energy:  -173.35260948162673

   => Energetics <=

    Nuclear Repulsion Energy =            131.9867660485458316
    One-Electron Energy =                -494.8455296615471752
    Two-Electron Energy =                 189.5061541313745863
    DFT Exchange-Correlation Energy =       0.0000000000000000
    Empirical Dispersion Energy =           0.0000000000000000
    PCM Polarization Energy =               0.0000000000000000
    EFP Energy =                            0.0000000000000000
    Total Energy =                       -173.3526094816267289

  Mulliken Charges: (a.u.)
   Center  Symbol    Alpha    Beta     Spin     Total
       1     H     0.42983  0.42983  0.00000  0.14034
       2     N     3.68980  3.68980  0.00000 -0.37960
       3     C     3.02211  3.02211  0.00000 -0.04422
       4     H     0.43085  0.43085  0.00000  0.13831
       5     C     3.07802  3.07802  0.00000 -0.15603
       6     H     0.45761  0.45761  0.00000  0.08477
       7     H     0.46981  0.46981  0.00000  0.06039
       8     C     3.15276  3.15276  0.00000 -0.30552
       9     H     0.44920  0.44920  0.00000  0.10159
      10     H     0.46023  0.46023  0.00000  0.07955
      11     H     0.45505  0.45505  0.00000  0.08990
      12     H     0.44778  0.44778  0.00000  0.10445
      13     H     0.45695  0.45695  0.00000  0.08609

   Total alpha = 17.00000, Total beta = 17.00000, Total charge =  0.00000

*** Psi4 exiting successfully. Buy a developer a beer!
