  ==> Input File <==

--------------------------------------------------------------------------
set {
	reference rhf
	basis cc-pvtz
}

set_num_threads( 4 )
memory 2 gb

molecule MOL {
0 1

H	 -3.162190	 0.493205	 -0.000107
C	 -2.363908	 -0.234727	 0.000005
O	 -1.158738	 0.454634	 -0.000087
H	 -2.464314	 -0.863616	 -0.882153
H	 -2.464327	 -0.863359	 0.882345
C	 -0.039473	 -0.340737	 -0.234494
C	 1.203169	 0.526204	 -0.209074
H	 -0.130376	 -0.838874	 -1.200017
H	 0.030722	 -1.120375	 0.524374
C	 2.476651	 -0.273985	 -0.458660
H	 1.097521	 1.303376	 -0.957919
H	 1.257359	 1.024062	 0.752775
H	 2.453778	 -0.761462	 -1.427644
H	 3.347779	 0.369137	 -0.435199
H	 2.614841	 -1.042434	 0.294638

	symmetry c1
}
set optking {
	frozen_dihedral = ("
		6 3 2 4
	")
}

ee = optimize('scf')
oeprop('DIPOLE', 'QUADRUPOLE', 'MULLIKEN_CHARGES')
f=open( 'psi4out.xyz', 'w' )
f.write( "15  " )
f.write( str(ee) + "\n" )
f.write( MOL.save_string_xyz() )
f.close()
--------------------------------------------------------------------------

    Molecular point group: c1
  Charge       = 0
  Multiplicity = 1
  Basis Set: CC-PVTZ
  Basis Set:
  @DF-RHF Final Energy:  -232.22794210030850
    Total Energy =                       -232.2279421003083257
    Molecular point group: c1
  Basis Set: CC-PVTZ
  Basis Set:
  Basis Set: CC-PVTZ
  Basis Set:
  @DF-RHF Final Energy:  -232.22795418334613
    Total Energy =                       -232.2279541833460712
  Basis Set: CC-PVTZ
  Basis Set:
  Charge       = 0
  Multiplicity = 1
  Basis Set: CC-PVTZ
  Basis Set:

    Orbital Energies (a.u.)
    -----------------------

    Doubly Occupied:

       1A    -20.547341     2A    -11.264500     3A    -11.261802
       4A    -11.212771     5A    -11.210742     6A     -1.381574
       7A     -1.058455     8A     -0.956143     9A     -0.877423
      10A     -0.809599    11A     -0.676809    12A     -0.655986
      13A     -0.632476    14A     -0.608252    15A     -0.565344
      16A     -0.540929    17A     -0.503706    18A     -0.490772
      19A     -0.478396    20A     -0.462947    21A     -0.416217

  @DF-RHF Final Energy:  -232.22795645652343

   => Energetics <=

    Nuclear Repulsion Energy =            189.9874319620942629
    One-Electron Energy =                -691.2064071392629785
    Two-Electron Energy =                 268.9910187206453429
    DFT Exchange-Correlation Energy =       0.0000000000000000
    Empirical Dispersion Energy =           0.0000000000000000
    PCM Polarization Energy =               0.0000000000000000
    EFP Energy =                            0.0000000000000000
    Total Energy =                       -232.2279564565233727
    Molecular point group: c1
  Basis Set: CC-PVTZ
  Basis Set:

  -Total Gradient:
     Atom            X                  Y                   Z
    ------   -----------------  -----------------  -----------------
       1       -0.000006386644     0.000030212232     0.000007469678
       2       -0.000851086180     0.001429379561    -0.001426407673
       3        0.000375602674    -0.000510205948     0.001855340318
       4        0.000626844142    -0.001112947659     0.000755698325
       5       -0.000005210885     0.000008090288    -0.000032863343
       6       -0.000096032424     0.000126936837    -0.001199364184
       7       -0.000026673637     0.000020281355     0.000019433899
       8       -0.000008109244     0.000003613407     0.000006237996
       9        0.000002144893     0.000003476840     0.000006230542
      10       -0.000015388222    -0.000012351779     0.000012271824
      11       -0.000003923221     0.000002172549    -0.000002313299
      12        0.000011256911     0.000009598574     0.000002837591
      13       -0.000000267940    -0.000001187808    -0.000004220308
      14       -0.000004670726     0.000006094883     0.000000100289
      15        0.000001900501    -0.000003163332    -0.000000451656

  **** Optimization is complete! (in 3 steps) ****
    Final optimized geometry and variables:
    Molecular point group: c1

    Geometry (in Angstrom), charge = 0, multiplicity = 1:

    H           -3.156882607665     0.478609581296     0.185840307174
    C           -2.356933972133    -0.247474261900     0.181288976060
    O           -1.150703411319     0.440582185189     0.171999428708
    H           -2.460678612398    -0.885221917188    -0.693791527279
    H           -2.448687468047    -0.874842345680     1.065818292830
    C           -0.030889357912    -0.355648215026    -0.056313842185
    C            1.211894406575     0.511037418618    -0.026700186223
    H           -0.118998640422    -0.854183786049    -1.021646294892
    H            0.037509979923    -1.135086964269     0.703325842699
    C            2.485624409704    -0.289078100240    -0.275672149196
    H            1.107615552686     1.289630329501    -0.774380381953
    H            1.264818974968     1.007241061794     0.936116614701
    H            2.464316640674    -0.774473807685    -1.245794365955
    H            3.357045587136     0.353665506162    -0.249254963002
    H            2.622118993275    -1.059252230074     0.476248812925

  Mulliken Charges: (a.u.)
   Center  Symbol    Alpha    Beta     Spin     Total
       1     H     0.44722  0.44722  0.00000  0.10556
       2     C     3.03318  3.03318  0.00000 -0.06637
       3     O     4.17185  4.17185  0.00000 -0.34370
       4     H     0.47378  0.47378  0.00000  0.05243
       5     H     0.46999  0.46999  0.00000  0.06003
       6     C     2.95612  2.95612  0.00000  0.08775
       7     C     3.08034  3.08034  0.00000 -0.16067
       8     H     0.47485  0.47485  0.00000  0.05031
       9     H     0.47671  0.47671  0.00000  0.04657
      10     C     3.15581  3.15581  0.00000 -0.31162
      11     H     0.45115  0.45115  0.00000  0.09770
      12     H     0.45103  0.45103  0.00000  0.09793
      13     H     0.45588  0.45588  0.00000  0.08825
      14     H     0.44626  0.44626  0.00000  0.10748
      15     H     0.45582  0.45582  0.00000  0.08836

   Total alpha = 21.00000, Total beta = 21.00000, Total charge =  0.00000
