  ==> Input File <==

--------------------------------------------------------------------------
set {
	reference rhf
	basis 6-31G*
}

set_num_threads( 4 )
memory 2 gb

molecule MOL {
0 1

O	 1.573402	 0.027760	 0.911254
C	 0.861134	 0.272526	 -0.014869
C	 -0.623889	 -0.118271	 -0.003699
C	 1.428086	 0.978900	 -1.233724
C	 -0.895332	 -1.256461	 -1.002431
C	 -1.473649	 1.103340	 -0.370799
C	 -0.983900	 -0.581483	 1.422328
H	 -0.615301	 -0.972064	 -2.012700
H	 -1.954261	 -1.493213	 -1.010207
H	 -0.360539	 -2.164946	 -0.747760
H	 -1.227476	 1.468527	 -1.361691
H	 -2.526716	 0.838935	 -0.358521
H	 -1.314819	 1.915855	 0.325860
H	 -2.039679	 -0.828001	 1.472951
H	 -0.427637	 -1.464071	 1.720694
H	 -0.789023	 0.202493	 2.147048
H	 1.159374	 2.030611	 -1.199702
H	 2.506110	 0.898605	 -1.210607
H	 1.050036	 0.576046	 -2.165393

	symmetry c1
}
set optking {
	frozen_dihedral = ("
		1 2 3 5
	")
}

ee = optimize('scf')
oeprop('DIPOLE', 'QUADRUPOLE', 'MULLIKEN_CHARGES')
f=open( 'psi4out.xyz', 'w' )
f.write( "19  " )
f.write( str(ee) + "\n" )
f.write( MOL.save_string_xyz() )
f.close()
--------------------------------------------------------------------------

    Molecular point group: c1
  Charge       = 0
  Multiplicity = 1
  Basis Set: 6-31G*
  Basis Set:
  @DF-RHF Final Energy:  -309.06227146591857
    Total Energy =                       -309.0622714659184567
    Molecular point group: c1
  Basis Set: 6-31G*
  Basis Set:
  Basis Set: 6-31G*
  Basis Set:
  @DF-RHF Final Energy:  -309.06182382286670
    Total Energy =                       -309.0618238228664723
  Basis Set: 6-31G*
  Basis Set:
  Basis Set: 6-31G*
  Basis Set:
  @DF-RHF Final Energy:  -309.06090892079504
    Total Energy =                       -309.0609089207947591
  Basis Set: 6-31G*
  Basis Set:
  Basis Set: 6-31G*
  Basis Set:
  @DF-RHF Final Energy:  -309.06296414262340
    Total Energy =                       -309.0629641426236276
  Basis Set: 6-31G*
  Basis Set:
  Basis Set: 6-31G*
  Basis Set:
  @DF-RHF Final Energy:  -309.06286362298852
    Total Energy =                       -309.0628636229886297
  Basis Set: 6-31G*
  Basis Set:
  Basis Set: 6-31G*
  Basis Set:
  @DF-RHF Final Energy:  -309.06307331589892
    Total Energy =                       -309.0630733158988619
  Basis Set: 6-31G*
  Basis Set:
  Basis Set: 6-31G*
  Basis Set:
  @DF-RHF Final Energy:  -309.06307662104052
    Total Energy =                       -309.0630766210407501
  Basis Set: 6-31G*
  Basis Set:
  Charge       = 0
  Multiplicity = 1
  Basis Set: 6-31G*
  Basis Set:

    Orbital Energies (a.u.)
    -----------------------

    Doubly Occupied:

       1A    -20.548303     2A    -11.322740     3A    -11.246470
       4A    -11.226659     5A    -11.224710     6A    -11.224482
       7A    -11.208019     8A     -1.394597     9A     -1.109747
      10A     -1.001704    11A     -0.947008    12A     -0.934691
      13A     -0.835295    14A     -0.703542    15A     -0.664449
      16A     -0.631561    17A     -0.619464    18A     -0.598351
      19A     -0.592448    20A     -0.564646    21A     -0.546224
      22A     -0.544054    23A     -0.523538    24A     -0.513029
      25A     -0.498207    26A     -0.471353    27A     -0.466730
      28A     -0.392746

  @DF-RHF Final Energy:  -309.06307733747337

   => Energetics <=

    Nuclear Repulsion Energy =            326.2692822242908051
    One-Electron Energy =               -1065.5551889312710045
    Two-Electron Energy =                 430.2228293695067123
    DFT Exchange-Correlation Energy =       0.0000000000000000
    Empirical Dispersion Energy =           0.0000000000000000
    PCM Polarization Energy =               0.0000000000000000
    EFP Energy =                            0.0000000000000000
    Total Energy =                       -309.0630773374734872
    Molecular point group: c1
  Basis Set: 6-31G*
  Basis Set:

  -Total Gradient:
     Atom            X                  Y                   Z
    ------   -----------------  -----------------  -----------------
       1       -0.000120524071     0.000473630132     0.000240430283
       2        0.000143512310    -0.000596997007    -0.000426421861
       3        0.000014972763    -0.000129993839     0.000445221818
       4       -0.000004853471     0.000024908628     0.000031665231
       5       -0.000050943161     0.000248062768    -0.000273300439
       6        0.000013289044     0.000007890012     0.000023798002
       7        0.000011499989     0.000002046414    -0.000002042052
       8        0.000005759279     0.000012383531     0.000001619177
       9        0.000006017059     0.000001452399     0.000002920072
      10       -0.000004336635    -0.000014078823    -0.000009136905
      11        0.000012546582    -0.000003795451    -0.000014571597
      12        0.000007537289    -0.000008270080     0.000005719057
      13       -0.000000231117     0.000010809588    -0.000003597800
      14        0.000000079914    -0.000000446864    -0.000001627728
      15       -0.000001943114    -0.000002627950     0.000002064314
      16        0.000002364705     0.000002497658    -0.000003842201
      17       -0.000013740136    -0.000002735639    -0.000013135454
      18       -0.000007426829    -0.000009834290     0.000004973900
      19       -0.000013580400    -0.000014901187    -0.000010735816

  **** Optimization is complete! (in 8 steps) ****
    Final optimized geometry and variables:
    Molecular point group: c1

    Geometry (in Angstrom), charge = 0, multiplicity = 1:

    O            1.598113487625    -0.056782353985     0.947648425218
    C            0.880806535087     0.196043846478     0.027524976051
    C           -0.610647136268    -0.167320029058     0.053166417735
    C            1.445712356479     0.909113484587    -1.188897964778
    C           -0.857229759890    -1.307924840641    -0.954245878188
    C           -1.459926858137     1.056579822913    -0.333911494209
    C           -0.994959860525    -0.638401140997     1.459683695533
    H           -0.643542417343    -1.010350104759    -1.975113208433
    H           -1.897996822952    -1.612985015653    -0.914518583323
    H           -0.247864337500    -2.175212747090    -0.719972287860
    H           -1.260521953041     1.391917429455    -1.345969737739
    H           -2.514009992808     0.805802376591    -0.274960406056
    H           -1.281912784722     1.890201369197     0.339331468937
    H           -2.047661717692    -0.903601232454     1.486131547929
    H           -0.415635162571    -1.503190255687     1.756252726192
    H           -0.821550588636     0.138988919251     2.194758478114
    H            1.232517146776     1.971309240904    -1.110549000711
    H            2.518801639495     0.777019327434    -1.200615465139
    H            1.022368677038     0.558664852228    -2.121752489023

  Mulliken Charges: (a.u.)
   Center  Symbol    Alpha    Beta     Spin     Total
       1     O     4.26385  4.26385  0.00000 -0.52771
       2     C     2.72523  2.72523  0.00000  0.54953
       3     C     3.07059  3.07059  0.00000 -0.14119
       4     C     3.28861  3.28861  0.00000 -0.57721
       5     C     3.24116  3.24116  0.00000 -0.48233
       6     C     3.24189  3.24189  0.00000 -0.48379
       7     C     3.22572  3.22572  0.00000 -0.45144
       8     H     0.41835  0.41835  0.00000  0.16329
       9     H     0.41290  0.41290  0.00000  0.17420
      10     H     0.41078  0.41078  0.00000  0.17844
      11     H     0.41704  0.41704  0.00000  0.16591
      12     H     0.41326  0.41326  0.00000  0.17349
      13     H     0.41438  0.41438  0.00000  0.17124
      14     H     0.42390  0.42390  0.00000  0.15220
      15     H     0.40831  0.40831  0.00000  0.18337
      16     H     0.41375  0.41375  0.00000  0.17250
      17     H     0.40344  0.40344  0.00000  0.19312
      18     H     0.39609  0.39609  0.00000  0.20783
      19     H     0.41074  0.41074  0.00000  0.17853

   Total alpha = 28.00000, Total beta = 28.00000, Total charge = -0.00000
