                              Psi4 1.0.54 Driver

  ==> Input File <==

--------------------------------------------------------------------------
set {
	reference rhf
	basis cc-pvtz
}

set_num_threads( 4 )
memory 2 gb

molecule MOL {
0 1

O	 -2.817697	 1.304178	 0.001046
C	 -2.664672	 0.129869	 0.003507
C	 -3.797908	 -0.860100	 -0.001145
O	 -1.481217	 -0.452708	 0.001092
H	 -4.408836	 -0.679689	 -0.875387
H	 -3.443486	 -1.878443	 -0.002770
H	 -4.412123	 -0.683688	 0.871605
C	 -0.332055	 0.384012	 -0.000250
C	 0.892252	 -0.506059	 -0.000295
H	 -0.360822	 1.020205	 -0.874146
H	 -0.359817	 1.021310	 0.872861
C	 1.873292	 -0.133742	 1.107541
H	 1.379907	 -0.433572	 -0.967046
H	 0.577071	 -1.538057	 0.115055
C	 3.116447	 -1.018784	 1.127401
H	 2.175654	 0.903968	 0.990438
H	 1.373692	 -0.198266	 2.070978
C	 4.096500	 -0.647820	 2.235051
H	 3.617531	 -0.953782	 0.165764
H	 2.815559	 -2.056007	 1.244537
H	 4.442526	 0.374472	 2.125366
H	 4.966301	 -1.294171	 2.221550
H	 3.634228	 -0.735982	 3.212490

	symmetry c1
}
set optking {
	frozen_dihedral = ("
		13 9 8 10
	")
}

ee,wfn = optimize('scf', return_wfn=True)
oeprop( wfn, 'DIPOLE', 'QUADRUPOLE', 'MULLIKEN_CHARGES')
f=open( 'psi4out.xyz', 'w' )
f.write( "23  " )
f.write( str(ee) + "\n" )
f.write( MOL.save_string_xyz() )
f.close()
--------------------------------------------------------------------------

    Molecular point group: c1
  Charge       = 0
  Multiplicity = 1
  Basis Set: CC-PVTZ
  Basis Set:
  @DF-RHF Final Energy:  -423.12888801700154
    Total Energy =                       -423.1288880170012590
    Molecular point group: c1
  Basis Set: CC-PVTZ
  Basis Set:
  Basis Set: CC-PVTZ
  Basis Set:
  @DF-RHF Final Energy:  -423.12899941589393
    Total Energy =                       -423.1289994158938725
  Basis Set: CC-PVTZ
  Basis Set:
  Basis Set: CC-PVTZ
  Basis Set:
  @DF-RHF Final Energy:  -423.12916319141959
    Total Energy =                       -423.1291631914200480
  Basis Set: CC-PVTZ
  Basis Set:
  Basis Set: CC-PVTZ
  Basis Set:
  @DF-RHF Final Energy:  -423.12930051449678
    Total Energy =                       -423.1293005144967765
  Basis Set: CC-PVTZ
  Basis Set:
  Charge       = 0
  Multiplicity = 1
  Basis Set: CC-PVTZ
  Basis Set:

    Orbital Energies (a.u.)
    -----------------------

    Doubly Occupied:

       1A    -20.595578     2A    -20.529272     3A    -11.365958
       4A    -11.279921     5A    -11.230626     6A    -11.222184
       7A    -11.220368     8A    -11.218676     9A    -11.210634
      10A     -1.470458    11A     -1.363366    12A     -1.093121
      13A     -1.041907    14A     -1.003278    15A     -0.931504
      16A     -0.843205    17A     -0.801370    18A     -0.779849
      19A     -0.691428    20A     -0.685375    21A     -0.669912
      22A     -0.647085    23A     -0.608493    24A     -0.584819
      25A     -0.583274    26A     -0.571259    27A     -0.559373
      28A     -0.536429    29A     -0.526560    30A     -0.503388
      31A     -0.497919    32A     -0.475340    33A     -0.471337
      34A     -0.466503    35A     -0.449010    36A     -0.438675

  @DF-RHF Final Energy:  -423.12930119078436

   => Energetics <=

    Nuclear Repulsion Energy =            451.4136173692344869
    One-Electron Energy =               -1470.7509295253032633
    Two-Electron Energy =                 596.2080109652844158
    DFT Exchange-Correlation Energy =       0.0000000000000000
    Empirical Dispersion Energy =           0.0000000000000000
    PCM Polarization Energy =               0.0000000000000000
    EFP Energy =                            0.0000000000000000
    Total Energy =                       -423.1293011907843038
    Molecular point group: c1
  Basis Set: CC-PVTZ
  Basis Set:

  -Total Gradient:
     Atom            X                  Y                   Z
    ------   -----------------  -----------------  -----------------
       1        0.000014437353     0.000008427564    -0.000014267088
       2       -0.000074095249    -0.000020191050     0.000023103600
       3        0.000003087394     0.000003040474    -0.000003343150
       4        0.000128423257     0.000104574980    -0.000020995689
       5        0.000003988924     0.000001374422     0.000005948429
       6        0.000002389702     0.000003886567     0.000001025915
       7        0.000003302518    -0.000000067342    -0.000006704844
       8        0.001422724837     0.002027753213     0.001507117883
       9       -0.001577232231    -0.002248356317    -0.001062915308
      10       -0.001039580305    -0.001452494593    -0.001020749777
      11        0.000013863366     0.000032498429     0.000007586087
      12       -0.000013962777     0.000016269846    -0.000063493665
      13        0.001116966288     0.001552097072     0.000649632287
      14        0.000000776383    -0.000011566188    -0.000030881693
      15       -0.000011459983    -0.000021169588     0.000034896665
      16        0.000019000268     0.000014366517    -0.000016693222
      17       -0.000029468480     0.000029039810     0.000012428407
      18       -0.000009003160    -0.000017529940    -0.000005689807
      19        0.000002464378     0.000008158258    -0.000005470602
      20        0.000010190472    -0.000035566831    -0.000000532895
      21       -0.000000461550     0.000015787354    -0.000005128799
      22        0.000019828792    -0.000007687725     0.000003744286
      23       -0.000006180192    -0.000002644929     0.000011382984

  **** Optimization is complete! (in 5 steps) ****
    Final optimized geometry and variables:
    Molecular point group: c1

    Geometry (in Angstrom), charge = 0, multiplicity = 1:

    O           -2.683929330130     1.505040218856    -0.526270026812
    C           -2.538864861361     0.329520163617    -0.514002102138
    C           -3.679757784214    -0.651999198348    -0.526643729719
    O           -1.360290935091    -0.261410708822    -0.487389740999
    H           -4.275421903816    -0.475366856326    -1.412173283865
    H           -3.333549366451    -1.673125122657    -0.512958721031
    H           -4.306213687596    -0.462327846590     0.334617868078
    C           -0.203567820104     0.571090161486    -0.476409243555
    C            1.035644518812    -0.325231524131    -0.464374818176
    H           -0.238618305341     1.201275207056    -1.352426564986
    H           -0.247976104481     1.207822390196     0.395203637586
    C            2.033507884187     0.053243905765     0.628578963140
    H            1.534390389579    -0.268911279557    -1.425796608445
    H            0.718468721061    -1.351472796498    -0.329855942704
    C            3.284899244697    -0.818971504870     0.626279714451
    H            2.323265295582     1.094895392047     0.509933049033
    H            1.545531504477    -0.018014162540     1.597519435108
    C            4.276238797385    -0.446001876992     1.723351410762
    H            3.773251874256    -0.743261771148    -0.341400296399
    H            2.995621684522    -1.860149541735     0.740165258226
    H            4.610250850933     0.580675920011     1.616521837283
    H            5.152434682654    -1.083228663267     1.693377393998
    H            3.828149253406    -0.545952444823     2.706298033674

  Mulliken Charges: (a.u.)
   Center  Symbol    Alpha    Beta     Spin     Total
       1     O     4.20278  4.20278  0.00000 -0.40557
       2     C     2.81062  2.81062  0.00000  0.37877
       3     C     3.13896  3.13896  0.00000 -0.27791
       4     O     4.14639  4.14639  0.00000 -0.29277
       5     H     0.44213  0.44213  0.00000  0.11575
       6     H     0.44221  0.44221  0.00000  0.11558
       7     H     0.44230  0.44230  0.00000  0.11541
       8     C     2.98466  2.98466  0.00000  0.03068
       9     C     3.09105  3.09105  0.00000 -0.18209
      10     H     0.45094  0.45094  0.00000  0.09813
      11     H     0.45309  0.45309  0.00000  0.09381
      12     C     3.09527  3.09527  0.00000 -0.19054
      13     H     0.45021  0.45021  0.00000  0.09959
      14     H     0.44484  0.44484  0.00000  0.11033
      15     C     3.08611  3.08611  0.00000 -0.17222
      16     H     0.45245  0.45245  0.00000  0.09511
      17     H     0.45203  0.45203  0.00000  0.09593
      18     C     3.14940  3.14940  0.00000 -0.29880
      19     H     0.45388  0.45388  0.00000  0.09225
      20     H     0.45358  0.45358  0.00000  0.09284
      21     H     0.45467  0.45467  0.00000  0.09066
      22     H     0.44789  0.44789  0.00000  0.10421
      23     H     0.45456  0.45456  0.00000  0.09089

   Total alpha = 36.00000, Total beta = 36.00000, Total charge = -0.00000

*** Psi4 exiting successfully. Buy a developer a beer!
