                              Psi4 1.0.54 Driver

  ==> Input File <==

--------------------------------------------------------------------------
set {
	reference rhf
	basis cc-pvtz
}

set_num_threads( 4 )
memory 2 gb

molecule MOL {
0 1

H	 2.614283	 2.028610	 0.296620
O	 3.358864	 1.662087	 -0.142800
C	 3.565468	 0.338079	 0.273842
C	 2.533667	 -0.637565	 -0.272227
H	 4.548038	 0.064914	 -0.086598
H	 3.593945	 0.282242	 1.360360
C	 1.104011	 -0.361095	 0.187661
H	 2.579358	 -0.617355	 -1.356967
H	 2.823834	 -1.638717	 0.037443
C	 0.101624	 -1.379538	 -0.353479
H	 0.812390	 0.635311	 -0.127196
H	 1.067881	 -0.368662	 1.275744
C	 -1.335987	 -1.194110	 0.135547
H	 0.117153	 -1.352805	 -1.440342
H	 0.434422	 -2.374585	 -0.071350
C	 -2.029144	 0.073753	 -0.360233
H	 -1.918413	 -2.053706	 -0.184456
H	 -1.349486	 -1.209460	 1.223084
C	 -3.490384	 0.163725	 0.072310
H	 -1.975088	 0.109820	 -1.446164
H	 -1.502869	 0.952571	 -0.000074
C	 -4.184413	 1.430202	 -0.417845
H	 -4.027553	 -0.706192	 -0.295484
H	 -3.546754	 0.119298	 1.156705
H	 -4.173292	 1.488261	 -1.501239
H	 -5.219132	 1.461050	 -0.096112
H	 -3.693145	 2.319065	 -0.035836

	symmetry c1
}
set optking {
	frozen_dihedral = ("
		8 4 3 2
	")
}

ee,wfn = optimize('scf', return_wfn=True)
oeprop( wfn, 'DIPOLE', 'QUADRUPOLE', 'MULLIKEN_CHARGES')
f=open( 'psi4out.xyz', 'w' )
f.write( "27  " )
f.write( str(ee) + "\n" )
f.write( MOL.save_string_xyz() )
f.close()
--------------------------------------------------------------------------

    Molecular point group: c1
  Charge       = 0
  Multiplicity = 1
  Basis Set: CC-PVTZ
  Basis Set:
  @DF-RHF Final Energy:  -388.42775333474572
    Total Energy =                       -388.4277533347465123
    Molecular point group: c1
  Basis Set: CC-PVTZ
  Basis Set:
  Basis Set: CC-PVTZ
  Basis Set:
  @DF-RHF Final Energy:  -388.42775444756910
    Total Energy =                       -388.4277544475689865
  Basis Set: CC-PVTZ
  Basis Set:
  Basis Set: CC-PVTZ
  Basis Set:
  @DF-RHF Final Energy:  -388.42776155175881
    Total Energy =                       -388.4277615517582944
  Basis Set: CC-PVTZ
  Basis Set:
  Charge       = 0
  Multiplicity = 1
  Basis Set: CC-PVTZ
  Basis Set:

    Orbital Energies (a.u.)
    -----------------------

    Doubly Occupied:

       1A    -20.545335     2A    -11.265040     3A    -11.216705
       4A    -11.214685     5A    -11.213840     6A    -11.213304
       7A    -11.213210     8A    -11.211797     9A    -11.207197
      10A     -1.363290    11A     -1.096182    12A     -1.062537
      13A     -1.012506    14A     -0.949487    15A     -0.888744
      16A     -0.820449    17A     -0.801711    18A     -0.778299
      19A     -0.696403    20A     -0.652413    21A     -0.639254
      22A     -0.616368    23A     -0.601866    24A     -0.583759
      25A     -0.580853    26A     -0.553663    27A     -0.541648
      28A     -0.532336    29A     -0.505782    30A     -0.494702
      31A     -0.485381    32A     -0.474403    33A     -0.469690
      34A     -0.461401    35A     -0.452276    36A     -0.442740
      37A     -0.425665

  @DF-RHF Final Energy:  -388.42776168210418

   => Energetics <=

    Nuclear Repulsion Energy =            460.3080664402786510
    One-Electron Energy =               -1438.9018086665168994
    Two-Electron Energy =                 590.1659805441338449
    DFT Exchange-Correlation Energy =       0.0000000000000000
    Empirical Dispersion Energy =           0.0000000000000000
    PCM Polarization Energy =               0.0000000000000000
    EFP Energy =                            0.0000000000000000
    Total Energy =                       -388.4277616821043466
    Molecular point group: c1
  Basis Set: CC-PVTZ
  Basis Set:

  -Total Gradient:
     Atom            X                  Y                   Z
    ------   -----------------  -----------------  -----------------
       1        0.000010292237    -0.000014503264     0.000001879999
       2       -0.000278603970     0.000105107042     0.000370635104
       3        0.000457758612    -0.000225668693    -0.000505499781
       4       -0.000606918783     0.000583857368     0.000153262516
       5       -0.000019304815     0.000009548377    -0.000005817492
       6        0.000005313917    -0.000013466508    -0.000003698265
       7       -0.000006925434     0.000033024025    -0.000023989672
       8        0.000412604498    -0.000460634460     0.000027139307
       9        0.000012649513    -0.000014467193    -0.000010388297
      10        0.000010450451     0.000002586770    -0.000004134763
      11        0.000000219391    -0.000010846244     0.000002127958
      12        0.000007222616    -0.000002375143    -0.000010119920
      13        0.000006058180     0.000000435285     0.000014837244
      14       -0.000002720537     0.000006381761     0.000003700063
      15        0.000003521079     0.000003513715    -0.000004863045
      16       -0.000004975067    -0.000001359456    -0.000008937504
      17        0.000005616287     0.000000475648     0.000001670547
      18       -0.000003704026    -0.000000136775     0.000002467205
      19        0.000001282755     0.000000515997     0.000001784694
      20       -0.000001059184     0.000000758954    -0.000002069619
      21       -0.000011055915    -0.000004703724    -0.000002803068
      22        0.000000926033     0.000002355186     0.000002262191
      23        0.000002097011     0.000002282642    -0.000000876316
      24       -0.000001527513    -0.000001276880     0.000000599808
      25        0.000000503690    -0.000000720817     0.000001866417
      26        0.000001118287    -0.000000124934    -0.000000082634
      27       -0.000000839313    -0.000000558677    -0.000000952679

  **** Optimization is complete! (in 4 steps) ****
    Final optimized geometry and variables:
    Molecular point group: c1

    Geometry (in Angstrom), charge = 0, multiplicity = 1:

    H            2.632932352950     1.974438699140     0.397815649103
    O            3.377249463501     1.601913582809    -0.036594642842
    C            3.566589045850     0.274699081421     0.377662693970
    C            2.530315816489    -0.690296356652    -0.178839256039
    H            4.549955757129    -0.008238103594     0.027299071795
    H            3.582809446224     0.216655184776     1.464323104629
    C            1.100299327734    -0.408391314567     0.275436398794
    H            2.582994221978    -0.670044501176    -1.263245044707
    H            2.814084664719    -1.694127933424     0.128683355959
    C            0.098238193574    -1.430600818705    -0.259076507404
    H            0.810593655195     0.585459840644    -0.048288711275
    H            1.061882629745    -0.407459987911     1.363526633438
    C           -1.339001512060    -1.243746256892     0.230481501202
    H            0.112609405896    -1.409700911282    -1.346049185348
    H            0.432201492735    -2.423750461903     0.028065162631
    C           -2.032949388610     0.022195256068    -0.268982693962
    H           -1.921548086182    -2.104432066137    -0.086180184347
    H           -1.351711482611    -1.255539003930     1.318041853583
    C           -3.493410566142     0.113952477137     0.165571242329
    H           -1.980703055995     0.053978811882    -1.355076990115
    H           -1.506090917969     0.902399792954     0.086760797739
    C           -4.187894088726     1.379040312018    -0.327346576045
    H           -4.031397092356    -0.756938462024    -0.198629273250
    H           -3.548054227555     0.072918057696     1.250148626323
    H           -4.179025468549     1.433442284869    -1.410912998178
    H           -5.221883045187     1.411469665048    -0.003566458630
    H           -3.695412382429     2.268937023021     0.050575380927

  Mulliken Charges: (a.u.)
   Center  Symbol    Alpha    Beta     Spin     Total
       1     H     0.39203  0.39203  0.00000  0.21594
       2     O     4.20563  4.20563  0.00000 -0.41125
       3     C     2.98041  2.98041  0.00000  0.03918
       4     C     3.08849  3.08849  0.00000 -0.17698
       5     H     0.44863  0.44863  0.00000  0.10273
       6     H     0.46955  0.46955  0.00000  0.06090
       7     C     3.10372  3.10372  0.00000 -0.20745
       8     H     0.45094  0.45094  0.00000  0.09811
       9     H     0.45541  0.45541  0.00000  0.08918
      10     C     3.09863  3.09863  0.00000 -0.19727
      11     H     0.45464  0.45464  0.00000  0.09071
      12     H     0.45377  0.45377  0.00000  0.09246
      13     C     3.09808  3.09808  0.00000 -0.19616
      14     H     0.45167  0.45167  0.00000  0.09665
      15     H     0.44805  0.44805  0.00000  0.10390
      16     C     3.08789  3.08789  0.00000 -0.17577
      17     H     0.44798  0.44798  0.00000  0.10404
      18     H     0.45392  0.45392  0.00000  0.09217
      19     C     3.08407  3.08407  0.00000 -0.16814
      20     H     0.45408  0.45408  0.00000  0.09185
      21     H     0.45539  0.45539  0.00000  0.08922
      22     C     3.14959  3.14959  0.00000 -0.29918
      23     H     0.45377  0.45377  0.00000  0.09246
      24     H     0.45474  0.45474  0.00000  0.09052
      25     H     0.45484  0.45484  0.00000  0.09032
      26     H     0.44832  0.44832  0.00000  0.10337
      27     H     0.45576  0.45576  0.00000  0.08849

   Total alpha = 37.00000, Total beta = 37.00000, Total charge = -0.00000

*** Psi4 exiting successfully. Buy a developer a beer!
