  ==> Input File <==

--------------------------------------------------------------------------
set {
	reference rhf
	basis 6-31G*
}

set_num_threads( 1 )
memory 2 gb

molecule MOL {
0 1

O	 -2.821601	 1.309235	 -0.001213
C	 -2.668563	 0.129746	 -0.000350
C	 -3.801572	 -0.864014	 -0.000442
O	 -1.481751	 -0.454642	 0.000584
H	 -4.417280	 -0.689587	 -0.874708
H	 -3.443784	 -1.883046	 -0.000565
H	 -4.417179	 -0.689832	 0.873954
C	 -0.334255	 0.388708	 0.000906
C	 0.891947	 -0.504646	 0.000751
H	 -0.365390	 1.025305	 -0.873475
H	 -0.365484	 1.024911	 0.875569
C	 2.191998	 0.301789	 0.000897
H	 0.855148	 -1.151283	 -0.871571
H	 0.855132	 -1.151660	 0.872805
C	 3.441114	 -0.581407	 0.000108
H	 2.215074	 0.954890	 -0.869742
H	 2.215465	 0.953923	 0.872248
C	 3.729209	 -1.206084	 1.364530
H	 4.298368	 0.009072	 -0.315368
H	 3.323570	 -1.369220	 -0.740570
H	 3.885146	 -0.441974	 2.120727
H	 4.619820	 -1.825763	 1.332196
H	 2.903198	 -1.830877	 1.692171

	symmetry c1
}
set optking {
	frozen_dihedral = ("
		13 9 8 10,
		2 4 8 10,
		16 12 9 13,
		1 2 4 8
	")
}

ee = energy('scf')
oeprop('DIPOLE', 'QUADRUPOLE', 'MULLIKEN_CHARGES')
f=open( 'psi4out.xyz', 'w' )
f.write( "23  " )
f.write( str(ee) + "\n" )
f.write( MOL.save_string_xyz() )
f.close()
--------------------------------------------------------------------------

    Molecular point group: c1

    Geometry (in Angstrom), charge = 0, multiplicity = 1:

       Center              X                  Y                   Z               Mass
    ------------   -----------------  -----------------  -----------------  -----------------
           O         -2.704949857251     1.474356309086    -0.158880495070    15.994914619560
           C         -2.551911857251     0.294867309086    -0.158017495070    12.000000000000
           C         -3.684920857251    -0.698892690914    -0.158109495070    12.000000000000
           O         -1.365099857251    -0.289520690914    -0.157083495070    15.994914619560
           H         -4.300628857251    -0.524465690914    -1.032375495070     1.007825032070
           H         -3.327132857251    -1.717924690914    -0.158232495070     1.007825032070
           H         -4.300527857251    -0.524710690914     0.716286504930     1.007825032070
           C         -0.217603857251     0.553829309086    -0.156761495070    12.000000000000
           C          1.008598142749    -0.339524690914    -0.156916495070    12.000000000000
           H         -0.248738857251     1.190426309086    -1.031142495070     1.007825032070
           H         -0.248832857251     1.190032309086     0.717901504930     1.007825032070
           C          2.308649142749     0.466910309086    -0.156770495070    12.000000000000
           H          0.971799142749    -0.986161690914    -1.029238495070     1.007825032070
           H          0.971783142749    -0.986538690914     0.715137504930     1.007825032070
           C          3.557765142749    -0.416285690914    -0.157559495070    12.000000000000
           H          2.331725142749     1.120011309086    -1.027409495070     1.007825032070
           H          2.332116142749     1.119044309086     0.714580504930     1.007825032070
           C          3.845860142749    -1.040962690914     1.206862504930    12.000000000000
           H          4.415019142749     0.174193309086    -0.473035495070     1.007825032070
           H          3.440221142749    -1.204098690914    -0.898237495070     1.007825032070
           H          4.001797142749    -0.276852690914     1.963059504930     1.007825032070
           H          4.736471142749    -1.660641690914     1.174528504930     1.007825032070
           H          3.019849142749    -1.665755690914     1.534503504930     1.007825032070

  Charge       = 0
  Multiplicity = 1
  Basis Set: 6-31G*
  Basis Set:

    Orbital Energies (a.u.)
    -----------------------

    Doubly Occupied:

       1A    -20.602979     2A    -20.540574     3A    -11.374083
       4A    -11.281419     5A    -11.232427     6A    -11.224131
       7A    -11.223498     8A    -11.221401     9A    -11.212909
      10A     -1.467964    11A     -1.360744    12A     -1.095344
      13A     -1.041547    14A     -1.001894    15A     -0.930689
      16A     -0.851502    17A     -0.795309    18A     -0.772543
      19A     -0.691269    20A     -0.685344    21A     -0.669898
      22A     -0.634214    23A     -0.618943    24A     -0.598392
      25A     -0.577469    26A     -0.571491    27A     -0.546265
      28A     -0.536205    29A     -0.526344    30A     -0.507051
      31A     -0.498100    32A     -0.474628    33A     -0.466763
      34A     -0.464718    35A     -0.451134    36A     -0.435324

  @DF-RHF Final Energy:  -422.97740790973313

   => Energetics <=

    Nuclear Repulsion Energy =            454.2660168077707681
    One-Electron Energy =               -1476.1181688920098622
    Two-Electron Energy =                 598.8747441745049400
    DFT Exchange-Correlation Energy =       0.0000000000000000
    Empirical Dispersion Energy =           0.0000000000000000
    PCM Polarization Energy =               0.0000000000000000
    EFP Energy =                            0.0000000000000000
    Total Energy =                       -422.9774079097342110

  Mulliken Charges: (a.u.)
   Center  Symbol    Alpha    Beta     Spin     Total
       1     O     4.28390  4.28390  0.00000 -0.56779
       2     C     2.61535  2.61535  0.00000  0.76930
       3     C     3.28773  3.28773  0.00000 -0.57547
       4     O     4.31268  4.31268  0.00000 -0.62536
       5     H     0.39749  0.39749  0.00000  0.20502
       6     H     0.39989  0.39989  0.00000  0.20021
       7     H     0.39750  0.39750  0.00000  0.20500
       8     C     2.99526  2.99526  0.00000  0.00949
       9     C     3.16665  3.16665  0.00000 -0.33331
      10     H     0.41064  0.41064  0.00000  0.17872
      11     H     0.41070  0.41070  0.00000  0.17860
      12     C     3.16229  3.16229  0.00000 -0.32457
      13     H     0.41416  0.41416  0.00000  0.17168
      14     H     0.41298  0.41298  0.00000  0.17404
      15     C     3.15353  3.15353  0.00000 -0.30707
      16     H     0.41860  0.41860  0.00000  0.16279
      17     H     0.42060  0.42060  0.00000  0.15880
      18     C     3.24165  3.24165  0.00000 -0.48330
      19     H     0.41841  0.41841  0.00000  0.16317
      20     H     0.42127  0.42127  0.00000  0.15746
      21     H     0.42074  0.42074  0.00000  0.15852
      22     H     0.41772  0.41772  0.00000  0.16455
      23     H     0.42024  0.42024  0.00000  0.15952

   Total alpha = 36.00000, Total beta = 36.00000, Total charge =  0.00000
