  ==> Input File <==

--------------------------------------------------------------------------
set {
	reference rhf
	basis cc-pvtz
}

set_num_threads( 4 )
memory 2 gb

molecule MOL {
0 1

O	 -0.694481	 1.313155	 -0.204815
C	 -0.862519	 0.151932	 -0.046791
C	 -2.171428	 -0.477048	 0.339095
O	 0.085519	 -0.757083	 -0.192238
H	 -2.467997	 -1.191667	 -0.417688
H	 -2.923379	 0.287970	 0.444097
H	 -2.053854	 -1.015120	 1.270901
C	 0.276399	 -1.348525	 -1.472176
C	 1.177592	 -0.505175	 -2.349963
H	 -0.683924	 -1.505493	 -1.937961
H	 0.728148	 -2.307237	 -1.265910
H	 1.353491	 -1.018113	 -3.288795
H	 0.721822	 0.451437	 -2.565718
H	 2.133724	 -0.338712	 -1.868614

	symmetry c1
}
set optking {
	frozen_dihedral = ("
		8 4 2 1
	")
}

ee = optimize('scf')
oeprop('DIPOLE', 'QUADRUPOLE', 'MULLIKEN_CHARGES')
f=open( 'psi4out.xyz', 'w' )
f.write( "14  " )
f.write( str(ee) + "\n" )
f.write( MOL.save_string_xyz() )
f.close()
--------------------------------------------------------------------------

    Molecular point group: c1
  Charge       = 0
  Multiplicity = 1
  Basis Set: CC-PVTZ
  Basis Set:
  @DF-RHF Final Energy:  -305.97024567449375
    Total Energy =                       -305.9702456744936399
    Molecular point group: c1
  Basis Set: CC-PVTZ
  Basis Set:
  Basis Set: CC-PVTZ
  Basis Set:
  @DF-RHF Final Energy:  -305.96905250153691
    Total Energy =                       -305.9690525015367939
  Basis Set: CC-PVTZ
  Basis Set:
  Basis Set: CC-PVTZ
  Basis Set:
  @DF-RHF Final Energy:  -305.97126289594837
    Total Energy =                       -305.9712628959487120
  Basis Set: CC-PVTZ
  Basis Set:
  Basis Set: CC-PVTZ
  Basis Set:
  @DF-RHF Final Energy:  -305.97173509129743
    Total Energy =                       -305.9717350912972051
  Basis Set: CC-PVTZ
  Basis Set:
  Basis Set: CC-PVTZ
  Basis Set:
  @DF-RHF Final Energy:  -305.97175298786021
    Total Energy =                       -305.9717529878604410
  Basis Set: CC-PVTZ
  Basis Set:
  Basis Set: CC-PVTZ
  Basis Set:
  @DF-RHF Final Energy:  -305.97175755829164
    Total Energy =                       -305.9717575582920404
  Basis Set: CC-PVTZ
  Basis Set:
  Charge       = 0
  Multiplicity = 1
  Basis Set: CC-PVTZ
  Basis Set:

    Orbital Energies (a.u.)
    -----------------------

    Doubly Occupied:

       1A    -20.575562     2A    -20.545483     3A    -11.370837
       4A    -11.294651     5A    -11.236153     6A    -11.216882
       7A     -1.460744     8A     -1.369492     9A     -1.047264
      10A     -1.007283    11A     -0.883249    12A     -0.770706
      13A     -0.694587    14A     -0.683490    15A     -0.669889
      16A     -0.606284    17A     -0.593935    18A     -0.583161
      19A     -0.555390    20A     -0.541592    21A     -0.516981
      22A     -0.488751    23A     -0.454795    24A     -0.440022

  @DF-RHF Final Energy:  -305.97175848689676

   => Energetics <=

    Nuclear Repulsion Energy =            248.1575238719713354
    One-Electron Energy =                -909.0441963150290121
    Two-Electron Energy =                 354.9149139561610582
    DFT Exchange-Correlation Energy =       0.0000000000000000
    Empirical Dispersion Energy =           0.0000000000000000
    PCM Polarization Energy =               0.0000000000000000
    EFP Energy =                            0.0000000000000000
    Total Energy =                       -305.9717584868966469
    Molecular point group: c1
  Basis Set: CC-PVTZ
  Basis Set:

  -Total Gradient:
     Atom            X                  Y                   Z
    ------   -----------------  -----------------  -----------------
       1        0.000496199445     0.000090393110     0.002159888028
       2       -0.001431968453    -0.000667734217    -0.003026021902
       3        0.000040523563     0.000000249226     0.000091497038
       4        0.002093835195     0.001874508152     0.000459459046
       5       -0.000008701790     0.000004779359    -0.000030355394
       6       -0.000015630597    -0.000015531332    -0.000009091211
       7       -0.000006267873    -0.000011985490    -0.000026834247
       8       -0.001187528927    -0.001250408706     0.000435402801
       9        0.000001358094    -0.000006516817    -0.000017595429
      10        0.000011517184    -0.000000631496    -0.000014524787
      11        0.000004547029    -0.000018126983    -0.000020079364
      12        0.000005490067     0.000002188073    -0.000003993839
      13       -0.000003986197     0.000001419660     0.000002333558
      14        0.000000613260    -0.000002602543    -0.000000084300

  **** Optimization is complete! (in 7 steps) ****
    Final optimized geometry and variables:
    Molecular point group: c1

    Geometry (in Angstrom), charge = 0, multiplicity = 1:

    O           -0.324418338177     1.559726326982     0.456019459674
    C           -0.524733239084     0.409497168496     0.600413949101
    C           -1.841564347563    -0.172960689980     1.033007224590
    O            0.450712065216    -0.510877373538     0.465630167223
    H           -2.160646064784    -0.938984602865     0.337062343440
    H           -2.588422659445     0.601482288749     1.100712698678
    H           -1.709435175708    -0.648138717670     1.997260887308
    C            0.662913620960    -1.071534057487    -0.822224344798
    C            1.558589574613    -0.206065429136    -1.685090598824
    H           -0.292266077194    -1.242984948507    -1.308707177058
    H            1.116796811383    -2.034513495431    -0.642635846070
    H            1.725688048206    -0.694105736039    -2.639385365521
    H            1.113084803740     0.762728206836    -1.865103670975
    H            2.514869225475    -0.055718130692    -1.201148866993

  Mulliken Charges: (a.u.)
   Center  Symbol    Alpha    Beta     Spin     Total
       1     O     4.17194  4.17194  0.00000 -0.34389
       2     C     2.80396  2.80396  0.00000  0.39208
       3     C     3.13930  3.13930  0.00000 -0.27860
       4     O     4.17470  4.17470  0.00000 -0.34940
       5     H     0.45107  0.45107  0.00000  0.09787
       6     H     0.43736  0.43736  0.00000  0.12528
       7     H     0.44313  0.44313  0.00000  0.11374
       8     C     2.98302  2.98302  0.00000  0.03396
       9     C     3.13399  3.13399  0.00000 -0.26798
      10     H     0.46688  0.46688  0.00000  0.06625
      11     H     0.44446  0.44446  0.00000  0.11108
      12     H     0.45502  0.45502  0.00000  0.08995
      13     H     0.44614  0.44614  0.00000  0.10772
      14     H     0.44902  0.44902  0.00000  0.10195

   Total alpha = 24.00000, Total beta = 24.00000, Total charge = -0.00000
