  ==> Input File <==

--------------------------------------------------------------------------
set {
	reference rhf
	basis 6-31G*
}

set_num_threads( 4 )
memory 2 gb

molecule MOL {
0 1

O	 -2.643613	 1.004071	 -0.129613
C	 -1.921153	 0.064240	 -0.045697
C	 -2.338960	 -1.366558	 -0.252100
O	 -0.632575	 0.154573	 0.251549
H	 -2.141646	 -1.939037	 0.646946
H	 -3.390888	 -1.406021	 -0.492363
H	 -1.757835	 -1.805479	 -1.054844
C	 0.160891	 -1.019931	 0.106212
C	 1.589627	 -0.672828	 0.480843
H	 0.089836	 -1.367806	 -0.916050
H	 -0.238459	 -1.792301	 0.749618
C	 2.246377	 0.346236	 -0.452210
H	 2.163194	 -1.597435	 0.473358
H	 1.604769	 -0.303424	 1.502885
C	 3.691736	 0.652107	 -0.061850
H	 2.219579	 -0.032311	 -1.472055
H	 1.666466	 1.263317	 -0.447249
H	 4.134505	 1.377213	 -0.737283
H	 4.305508	 -0.243868	 -0.089969
H	 3.748266	 1.059562	 0.943567

	symmetry c1
}
set optking {
	frozen_dihedral = ("
		1 2 4 8
	")
}

ee = optimize('scf')
oeprop('DIPOLE', 'QUADRUPOLE', 'MULLIKEN_CHARGES')
f=open( 'psi4out.xyz', 'w' )
f.write( "20  " )
f.write( str(ee) + "\n" )
f.write( MOL.save_string_xyz() )
f.close()
--------------------------------------------------------------------------

    Molecular point group: c1
  Charge       = 0
  Multiplicity = 1
  Basis Set: 6-31G*
  Basis Set:
  @DF-RHF Final Energy:  -383.92043383058405
    Total Energy =                       -383.9204338305839883
    Molecular point group: c1
  Basis Set: 6-31G*
  Basis Set:
  Basis Set: 6-31G*
  Basis Set:
  @DF-RHF Final Energy:  -383.91917941707851
    Total Energy =                       -383.9191794170787944
  Basis Set: 6-31G*
  Basis Set:
  Basis Set: 6-31G*
  Basis Set:
  @DF-RHF Final Energy:  -383.92834316978917
    Total Energy =                       -383.9283431697891729
  Basis Set: 6-31G*
  Basis Set:
  Basis Set: 6-31G*
  Basis Set:
  @DF-RHF Final Energy:  -383.93062525777674
    Total Energy =                       -383.9306252577765690
  Basis Set: 6-31G*
  Basis Set:
  @DF-RHF Final Energy:  -383.93008499066553
    Total Energy =                       -383.9300849906652502
  @DF-RHF Final Energy:  -383.93081770887164
    Total Energy =                       -383.9308177088715865
  Basis Set: 6-31G*
  Basis Set:
  @DF-RHF Final Energy:  -383.93135261183107
    Total Energy =                       -383.9313526118315849
  Basis Set: 6-31G*
  Basis Set:
  Basis Set: 6-31G*
  Basis Set:
  @DF-RHF Final Energy:  -383.93134567271812
    Total Energy =                       -383.9313456727181801
  Basis Set: 6-31G*
  Basis Set:
  Basis Set: 6-31G*
  Basis Set:
  @DF-RHF Final Energy:  -383.93136164216537
    Total Energy =                       -383.9313616421652569
  Basis Set: 6-31G*
  Basis Set:
  Charge       = 0
  Multiplicity = 1
  Basis Set: 6-31G*
  Basis Set:

    Orbital Energies (a.u.)
    -----------------------

    Doubly Occupied:

       1A    -20.600161     2A    -20.538236     3A    -11.375997
       4A    -11.298097     5A    -11.242500     6A    -11.230924
       7A    -11.221005     8A    -11.213485     9A     -1.462369
      10A     -1.364241    11A     -1.086951    12A     -1.019593
      13A     -1.000588    14A     -0.889689    15A     -0.814749
      16A     -0.781139    17A     -0.699041    18A     -0.687931
      19A     -0.660724    20A     -0.634101    21A     -0.604556
      22A     -0.595165    23A     -0.579236    24A     -0.560790
      25A     -0.545135    26A     -0.532479    27A     -0.519366
      28A     -0.487245    29A     -0.477580    30A     -0.474184
      31A     -0.441162    32A     -0.432021

  @DF-RHF Final Energy:  -383.93136189119457

   => Energetics <=

    Nuclear Repulsion Energy =            384.7330070362987726
    One-Electron Energy =               -1285.1878534281534030
    Two-Electron Energy =                 516.5234845006600608
    DFT Exchange-Correlation Energy =       0.0000000000000000
    Empirical Dispersion Energy =           0.0000000000000000
    PCM Polarization Energy =               0.0000000000000000
    EFP Energy =                            0.0000000000000000
    Total Energy =                       -383.9313618911945696
    Molecular point group: c1
  Basis Set: 6-31G*
  Basis Set:

  -Total Gradient:
     Atom            X                  Y                   Z
    ------   -----------------  -----------------  -----------------
       1        0.000156539045     0.000067264717    -0.000940819973
       2       -0.000146265828     0.000034896449     0.000879426800
       3        0.000003801461     0.000013369951    -0.000032102590
       4       -0.000208298842    -0.000328305560     0.000892103501
       5        0.000001274426     0.000007298982     0.000014327775
       6       -0.000006655491    -0.000003451102     0.000001548227
       7        0.000000770486     0.000002048939     0.000019076309
       8        0.000183511311     0.000218466805    -0.000850539670
       9       -0.000001575630    -0.000008365163     0.000015185861
      10        0.000002614552    -0.000018426498    -0.000002634044
      11       -0.000004293345     0.000010750131    -0.000000357880
      12       -0.000002827841     0.000007574544    -0.000001248561
      13        0.000002767915     0.000003050418     0.000003389122
      14        0.000007771073     0.000003709111     0.000004230427
      15        0.000003075351    -0.000004817241    -0.000002953933
      16       -0.000000853535     0.000001041085     0.000000229611
      17        0.000007147504    -0.000007171720     0.000001032172
      18        0.000001343478    -0.000000271339    -0.000000838461
      19        0.000000915770     0.000000705676     0.000001620245
      20       -0.000000761853     0.000000631817    -0.000000674939

  **** Optimization is complete! (in 10 steps) ****
    Final optimized geometry and variables:
    Molecular point group: c1

    Geometry (in Angstrom), charge = 0, multiplicity = 1:

    O           -2.522369772722     1.146535514557    -0.096113272677
    C           -1.923959204486     0.126424605206    -0.040409426148
    C           -2.580827978346    -1.216257668737    -0.266998911335
    O           -0.622194525732     0.146655166474     0.249156755280
    H           -2.477147448639    -1.849104245270     0.607478106450
    H           -3.628139927673    -1.046705132429    -0.464121244767
    H           -2.138075982119    -1.736677054421    -1.108553584941
    C            0.217541232975    -0.988465152496     0.138612808299
    C            1.626859782958    -0.562608991881     0.510997897716
    H            0.192568245094    -1.368423871572    -0.877209467102
    H           -0.125435970907    -1.771278150697     0.805285003550
    C            2.230360627193     0.470985689341    -0.441323052268
    H            2.247541495123    -1.456325502673     0.527566613701
    H            1.610930400406    -0.169882231959     1.523614653391
    C            3.650539527377     0.871061388655    -0.043856502799
    H            2.238790395848     0.065636082180    -1.451448129822
    H            1.595160216142     1.349304904966    -0.463935593381
    H            4.057139519859     1.602340910532    -0.734893850873
    H            4.317148754507     0.012951293510    -0.039926646680
    H            3.669929348256     1.309593495455     0.949637876410

  Mulliken Charges: (a.u.)
   Center  Symbol    Alpha    Beta     Spin     Total
       1     O     4.26657  4.26657  0.00000 -0.53314
       2     C     2.61301  2.61301  0.00000  0.77398
       3     C     3.30924  3.30924  0.00000 -0.61848
       4     O     4.30358  4.30358  0.00000 -0.60717
       5     H     0.40239  0.40239  0.00000  0.19522
       6     H     0.38746  0.38746  0.00000  0.22507
       7     H     0.40356  0.40356  0.00000  0.19289
       8     C     3.00325  3.00325  0.00000 -0.00650
       9     C     3.16113  3.16113  0.00000 -0.32225
      10     H     0.41919  0.41919  0.00000  0.16162
      11     H     0.41701  0.41701  0.00000  0.16598
      12     C     3.15696  3.15696  0.00000 -0.31391
      13     H     0.41964  0.41964  0.00000  0.16072
      14     H     0.41024  0.41024  0.00000  0.17952
      15     C     3.24094  3.24094  0.00000 -0.48189
      16     H     0.42494  0.42494  0.00000  0.15011
      17     H     0.40246  0.40246  0.00000  0.19508
      18     H     0.41623  0.41623  0.00000  0.16754
      19     H     0.42306  0.42306  0.00000  0.15389
      20     H     0.41913  0.41913  0.00000  0.16173

   Total alpha = 32.00000, Total beta = 32.00000, Total charge = -0.00000
