  ==> Input File <==

--------------------------------------------------------------------------
set {
	reference rhf
	basis 6-31G*
}

set_num_threads( 1 )
memory 2 gb

molecule MOL {
0 1

O	 -2.821601	 1.309235	 -0.001213
C	 -2.668563	 0.129746	 -0.000350
C	 -3.801572	 -0.864014	 -0.000442
O	 -1.481751	 -0.454642	 0.000584
H	 -4.417280	 -0.689587	 -0.874708
H	 -3.443784	 -1.883046	 -0.000565
H	 -4.417179	 -0.689832	 0.873954
C	 -0.334255	 0.388708	 0.000906
C	 0.891947	 -0.504646	 0.000751
H	 -0.365390	 1.025305	 -0.873475
H	 -0.365484	 1.024911	 0.875569
C	 2.191998	 0.301789	 0.000897
H	 0.855148	 -1.151283	 -0.871571
H	 0.855132	 -1.151660	 0.872805
C	 3.143261	 -0.101444	 1.129094
H	 2.697582	 0.177057	 -0.955091
H	 1.962250	 1.362271	 0.088501
C	 4.442308	 0.703132	 1.128381
H	 3.374177	 -1.160838	 1.042855
H	 2.640429	 0.024773	 2.085284
H	 4.985381	 0.570434	 0.196997
H	 5.095379	 0.394611	 1.938659
H	 4.246156	 1.764886	 1.247597

	symmetry c1
}
set optking {
	frozen_dihedral = ("
		13 9 8 10,
		2 4 8 10,
		19 15 12 16,
		1 2 4 8
	")
}

ee = energy('scf')
oeprop('DIPOLE', 'QUADRUPOLE', 'MULLIKEN_CHARGES')
f=open( 'psi4out.xyz', 'w' )
f.write( "23  " )
f.write( str(ee) + "\n" )
f.write( MOL.save_string_xyz() )
f.close()
--------------------------------------------------------------------------

    Molecular point group: c1

    Geometry (in Angstrom), charge = 0, multiplicity = 1:

       Center              X                  Y                   Z               Mass
    ------------   -----------------  -----------------  -----------------  -----------------
           O         -2.755186231508     1.202213683248    -0.253264783448    15.994914619560
           C         -2.602148231508     0.022724683248    -0.252401783448    12.000000000000
           C         -3.735157231508    -0.971035316752    -0.252493783448    12.000000000000
           O         -1.415336231508    -0.561663316752    -0.251467783448    15.994914619560
           H         -4.350865231508    -0.796608316752    -1.126759783448     1.007825032070
           H         -3.377369231508    -1.990067316752    -0.252616783448     1.007825032070
           H         -4.350764231508    -0.796853316752     0.621902216552     1.007825032070
           C         -0.267840231508     0.281686683248    -0.251145783448    12.000000000000
           C          0.958361768492    -0.611667316752    -0.251300783448    12.000000000000
           H         -0.298975231508     0.918283683248    -1.125526783448     1.007825032070
           H         -0.299069231508     0.917889683248     0.623517216552     1.007825032070
           C          2.258412768492     0.194767683248    -0.251154783448    12.000000000000
           H          0.921562768492    -1.258304316752    -1.123622783448     1.007825032070
           H          0.921546768492    -1.258681316752     0.620753216552     1.007825032070
           C          3.209675768492    -0.208465316752     0.877042216552    12.000000000000
           H          2.763996768492     0.070035683248    -1.207142783448     1.007825032070
           H          2.028664768492     1.255249683248    -0.163550783448     1.007825032070
           C          4.508722768492     0.596110683248     0.876329216552    12.000000000000
           H          3.440591768492    -1.267859316752     0.790803216552     1.007825032070
           H          2.706843768492    -0.082248316752     1.833232216552     1.007825032070
           H          5.051795768492     0.463412683248    -0.055054783448     1.007825032070
           H          5.161793768492     0.287589683248     1.686607216552     1.007825032070
           H          4.312570768492     1.657864683248     0.995545216552     1.007825032070

  Charge       = 0
  Multiplicity = 1
  Basis Set: 6-31G*
  Basis Set:

    Orbital Energies (a.u.)
    -----------------------

    Doubly Occupied:

       1A    -20.602778     2A    -20.540509     3A    -11.374046
       4A    -11.282050     5A    -11.232352     6A    -11.223048
       7A    -11.222459     8A    -11.221760     9A    -11.212392
      10A     -1.467922    11A     -1.360711    12A     -1.094587
      13A     -1.041721    14A     -1.003157    15A     -0.930705
      16A     -0.842867    17A     -0.801728    18A     -0.776199
      19A     -0.689483    20A     -0.684925    21A     -0.671228
      22A     -0.639081    23A     -0.611568    24A     -0.586540
      25A     -0.580956    26A     -0.570758    27A     -0.559622
      28A     -0.533797    29A     -0.525081    30A     -0.501946
      31A     -0.495585    32A     -0.478935    33A     -0.467975
      34A     -0.462741    35A     -0.450214    36A     -0.435304

  @DF-RHF Final Energy:  -422.97455167046502

   => Energetics <=

    Nuclear Repulsion Energy =            451.4837378421261178
    One-Electron Energy =               -1470.5629481017374474
    Two-Electron Energy =                 596.1046585891461973
    DFT Exchange-Correlation Energy =       0.0000000000000000
    Empirical Dispersion Energy =           0.0000000000000000
    PCM Polarization Energy =               0.0000000000000000
    EFP Energy =                            0.0000000000000000
    Total Energy =                       -422.9745516704650754

  Mulliken Charges: (a.u.)
   Center  Symbol    Alpha    Beta     Spin     Total
       1     O     4.28395  4.28395  0.00000 -0.56790
       2     C     2.61550  2.61550  0.00000  0.76900
       3     C     3.28778  3.28778  0.00000 -0.57556
       4     O     4.31240  4.31240  0.00000 -0.62479
       5     H     0.39751  0.39751  0.00000  0.20498
       6     H     0.39985  0.39985  0.00000  0.20030
       7     H     0.39754  0.39754  0.00000  0.20492
       8     C     3.00070  3.00070  0.00000 -0.00141
       9     C     3.16502  3.16502  0.00000 -0.33003
      10     H     0.40993  0.40993  0.00000  0.18013
      11     H     0.41052  0.41052  0.00000  0.17896
      12     C     3.16314  3.16314  0.00000 -0.32627
      13     H     0.41198  0.41198  0.00000  0.17603
      14     H     0.41164  0.41164  0.00000  0.17672
      15     C     3.15389  3.15389  0.00000 -0.30778
      16     H     0.41718  0.41718  0.00000  0.16563
      17     H     0.41891  0.41891  0.00000  0.16218
      18     C     3.24055  3.24055  0.00000 -0.48110
      19     H     0.42066  0.42066  0.00000  0.15867
      20     H     0.42157  0.42157  0.00000  0.15686
      21     H     0.42103  0.42103  0.00000  0.15795
      22     H     0.41812  0.41812  0.00000  0.16376
      23     H     0.42062  0.42062  0.00000  0.15876

   Total alpha = 36.00000, Total beta = 36.00000, Total charge =  0.00000
