  ==> Input File <==

--------------------------------------------------------------------------
set {
	reference rhf
	basis cc-pvtz
}

set_num_threads( 4 )
memory 2 gb

molecule MOL {
0 1

H	 1.416631	 1.045361	 -2.418719
C	 0.687796	 0.867447	 -1.638703
C	 1.322304	 0.099773	 -0.484271
H	 0.310123	 1.829677	 -1.311831
H	 -0.136190	 0.313900	 -2.074564
C	 0.308557	 -0.162619	 0.622645
H	 2.152262	 0.661705	 -0.074228
H	 1.711316	 -0.847876	 -0.835797
N	 -1.069352	 -0.004081	 0.085342
H	 0.371632	 -1.172932	 0.991288
H	 0.400391	 0.548875	 1.426218
O	 -1.584901	 -0.965470	 -0.377818
O	 -1.548033	 1.079343	 0.130056

	symmetry c1
}
set optking {
	frozen_dihedral = ("
		7 3 6 9
	")
}

ee = optimize('scf')
oeprop('DIPOLE', 'QUADRUPOLE', 'MULLIKEN_CHARGES')
f=open( 'psi4out.xyz', 'w' )
f.write( "13  " )
f.write( str(ee) + "\n" )
f.write( MOL.save_string_xyz() )
f.close()
--------------------------------------------------------------------------

    Molecular point group: c1
  Charge       = 0
  Multiplicity = 1
  Basis Set: CC-PVTZ
  Basis Set:
  @DF-RHF Final Energy:  -321.85079481135938
    Total Energy =                       -321.8507948113594921
    Molecular point group: c1
  Basis Set: CC-PVTZ
  Basis Set:
  Basis Set: CC-PVTZ
  Basis Set:
  @DF-RHF Final Energy:  -321.84953410026651
    Total Energy =                       -321.8495341002666237
  Basis Set: CC-PVTZ
  Basis Set:
  Basis Set: CC-PVTZ
  Basis Set:
  @DF-RHF Final Energy:  -321.85346355369848
    Total Energy =                       -321.8534635536988731
  Basis Set: CC-PVTZ
  Basis Set:
  Basis Set: CC-PVTZ
  Basis Set:
  @DF-RHF Final Energy:  -321.85483617876207
    Total Energy =                       -321.8548361787616159
  Basis Set: CC-PVTZ
  Basis Set:
  @DF-RHF Final Energy:  -321.85493801823873
    Total Energy =                       -321.8549380182387836
  Basis Set: CC-PVTZ
  Basis Set:
  @DF-RHF Final Energy:  -321.85498417622910
    Total Energy =                       -321.8549841762290384
  Basis Set: CC-PVTZ
  Basis Set:
  Basis Set: CC-PVTZ
  Basis Set:
  @DF-RHF Final Energy:  -321.85502272869621
    Total Energy =                       -321.8550227286962127
  Basis Set: CC-PVTZ
  Basis Set:
  Basis Set: CC-PVTZ
  Basis Set:
  @DF-RHF Final Energy:  -321.85503469333349
    Total Energy =                       -321.8550346933335504
  Basis Set: CC-PVTZ
  Basis Set:
  Charge       = 0
  Multiplicity = 1
  Basis Set: CC-PVTZ
  Basis Set:

    Orbital Energies (a.u.)
    -----------------------

    Doubly Occupied:

       1A    -20.592346     2A    -20.589195     3A    -15.836838
       4A    -11.297362     5A    -11.255146     6A    -11.227084
       7A     -1.636359     8A     -1.420459     9A     -1.129101
      10A     -1.021734    11A     -0.895532    12A     -0.822374
      13A     -0.754719    14A     -0.738899    15A     -0.729414
      16A     -0.667919    17A     -0.606579    18A     -0.590288
      19A     -0.535278    20A     -0.517850    21A     -0.512594
      22A     -0.481971    23A     -0.475191    24A     -0.453799

  @DF-RHF Final Energy:  -321.85503493603483

   => Energetics <=

    Nuclear Repulsion Energy =            254.9425113392151445
    One-Electron Energy =                -944.0190332860404396
    Two-Electron Energy =                 367.2214870107903835
    DFT Exchange-Correlation Energy =       0.0000000000000000
    Empirical Dispersion Energy =           0.0000000000000000
    PCM Polarization Energy =               0.0000000000000000
    EFP Energy =                            0.0000000000000000
    Total Energy =                       -321.8550349360349401
    Molecular point group: c1
  Basis Set: CC-PVTZ
  Basis Set:

  -Total Gradient:
     Atom            X                  Y                   Z
    ------   -----------------  -----------------  -----------------
       1        0.000002150757     0.000000910917     0.000003628661
       2       -0.000009538825     0.000001668566    -0.000008502290
       3        0.002985010282    -0.003909468349     0.001810379369
       4       -0.000011489818    -0.000003775642     0.000007044356
       5        0.000010992289     0.000004665383    -0.000018988676
       6       -0.000495425835    -0.004347569846    -0.001464311889
       7       -0.002491948548     0.004416260119    -0.001208920574
       8       -0.000001318605    -0.000004106940    -0.000002292962
       9        0.000057954951     0.003895533225     0.000913074924
      10        0.000004185898    -0.000000301843    -0.000002198599
      11        0.000000712590    -0.000000599019     0.000008734385
      12       -0.000041884623     0.000007677877    -0.000005435461
      13       -0.000009400513    -0.000060894446    -0.000032211243

  **** Optimization is complete! (in 9 steps) ****
    Final optimized geometry and variables:
    Molecular point group: c1

    Geometry (in Angstrom), charge = 0, multiplicity = 1:

    H            1.929379661437     0.902517190699    -2.187978953409
    C            1.129364048465     0.742637483463    -1.476538575877
    C            1.668368055130    -0.045749528135    -0.282097395063
    H            0.750818743067     1.711200565715    -1.175559891525
    H            0.335542927389     0.211372629570    -1.984494035006
    C            0.667575948747    -0.294314943128     0.864977204137
    H            2.481333117012     0.529507347138     0.142387867782
    H            2.064248240665    -0.992249613030    -0.621762892639
    N           -0.745733528608    -0.169612065879     0.416588687579
    H            0.760288240539    -1.288552091216     1.267377371590
    H            0.773599146049     0.438317564748     1.645614276933
    O           -1.215130264365    -1.098414043006    -0.153036901825
    O           -1.304890391235     0.849601726002     0.642417734610

  Mulliken Charges: (a.u.)
   Center  Symbol    Alpha    Beta     Spin     Total
       1     H     0.44597  0.44597  0.00000  0.10806
       2     C     3.15357  3.15357  0.00000 -0.30715
       3     C     3.09365  3.09365  0.00000 -0.18730
       4     H     0.44411  0.44411  0.00000  0.11179
       5     H     0.44261  0.44261  0.00000  0.11477
       6     C     3.04154  3.04154  0.00000 -0.08309
       7     H     0.44658  0.44658  0.00000  0.10684
       8     H     0.44255  0.44255  0.00000  0.11491
       9     N     3.27608  3.27608  0.00000  0.44785
      10     H     0.43102  0.43102  0.00000  0.13796
      11     H     0.43419  0.43419  0.00000  0.13162
      12     O     4.17497  4.17497  0.00000 -0.34995
      13     O     4.17316  4.17316  0.00000 -0.34631

   Total alpha = 24.00000, Total beta = 24.00000, Total charge = -0.00000
