  ==> Input File <==

--------------------------------------------------------------------------
set {
	reference rhf
	basis cc-pvtz
}

set_num_threads( 4 )
memory 2 gb

molecule MOL {
0 1

H	 -2.574148	 0.603797	 0.483152
O	 -2.313989	 -0.142475	 -0.025864
C	 -0.943808	 -0.065018	 -0.330000
H	 -0.812293	 -0.225641	 -1.398673
C	 -0.231030	 -1.182113	 0.407592
C	 -0.353797	 1.300461	 0.050970
H	 -0.312800	 -0.992012	 1.473041
H	 -0.738841	 -2.119564	 0.220514
C	 1.246176	 -1.268044	 -0.015480
H	 -0.539537	 2.008579	 -0.751815
H	 -0.889989	 1.662858	 0.920677
C	 1.153605	 1.231851	 0.356834
H	 1.823096	 -1.684665	 0.802361
H	 1.352335	 -1.958223	 -0.845114
C	 1.826409	 0.100723	 -0.416008
H	 1.622968	 2.181508	 0.128734
H	 1.301983	 1.066493	 1.419367
H	 2.897299	 0.112407	 -0.249665
H	 1.683458	 0.265621	 -1.480024

	symmetry c1
}
set optking {
	frozen_dihedral = ("
		1 2 3 4
	")
}

ee = optimize('scf')
oeprop('DIPOLE', 'QUADRUPOLE', 'MULLIKEN_CHARGES')
f=open( 'psi4out.xyz', 'w' )
f.write( "19  " )
f.write( str(ee) + "\n" )
f.write( MOL.save_string_xyz() )
f.close()
--------------------------------------------------------------------------

    Molecular point group: c1
  Charge       = 0
  Multiplicity = 1
  Basis Set: CC-PVTZ
  Basis Set:
  @DF-RHF Final Energy:  -309.16085836092799
    Total Energy =                       -309.1608583609278753
    Molecular point group: c1
  Basis Set: CC-PVTZ
  Basis Set:
  Basis Set: CC-PVTZ
  Basis Set:
  @DF-RHF Final Energy:  -309.16151595269349
    Total Energy =                       -309.1615159526932644
  Basis Set: CC-PVTZ
  Basis Set:
  Basis Set: CC-PVTZ
  Basis Set:
  @DF-RHF Final Energy:  -309.16166107115220
    Total Energy =                       -309.1616610711519115
  Basis Set: CC-PVTZ
  Basis Set:
  Basis Set: CC-PVTZ
  Basis Set:
  @DF-RHF Final Energy:  -309.16166366974801
    Total Energy =                       -309.1616636697478953
  Basis Set: CC-PVTZ
  Basis Set:
  Charge       = 0
  Multiplicity = 1
  Basis Set: CC-PVTZ
  Basis Set:

    Orbital Energies (a.u.)
    -----------------------

    Doubly Occupied:

       1A    -20.540876     2A    -11.267268     3A    -11.219958
       4A    -11.218680     5A    -11.215421     6A    -11.214035
       7A    -11.206579     8A     -1.361516     9A     -1.112039
      10A     -1.005902    11A     -0.990217    12A     -0.846768
      13A     -0.842872    14A     -0.748320    15A     -0.676044
      16A     -0.668617    17A     -0.618917    18A     -0.607699
      19A     -0.581905    20A     -0.555838    21A     -0.530302
      22A     -0.521851    23A     -0.502945    24A     -0.488217
      25A     -0.470201    26A     -0.450741    27A     -0.429067
      28A     -0.411759

  @DF-RHF Final Energy:  -309.16166391560819

   => Energetics <=

    Nuclear Repulsion Energy =            331.9083826268280291
    One-Electron Energy =               -1077.5309836045510110
    Two-Electron Energy =                 436.4609370621147946
    DFT Exchange-Correlation Energy =       0.0000000000000000
    Empirical Dispersion Energy =           0.0000000000000000
    PCM Polarization Energy =               0.0000000000000000
    EFP Energy =                            0.0000000000000000
    Total Energy =                       -309.1616639156081874
    Molecular point group: c1
  Basis Set: CC-PVTZ
  Basis Set:

  -Total Gradient:
     Atom            X                  Y                   Z
    ------   -----------------  -----------------  -----------------
       1       -0.000095603697     0.000343679513    -0.000558319223
       2        0.000125187167    -0.000328847999     0.000672725129
       3        0.000020600522    -0.000586050748    -0.000028405373
       4       -0.000030416029     0.000542342797    -0.000079247854
       5       -0.000012242954    -0.000001394287    -0.000015295999
       6        0.000024660218     0.000001616987     0.000008204924
       7        0.000001916712    -0.000002593761    -0.000005713319
       8        0.000003526621    -0.000005506133     0.000001390370
       9       -0.000014820652    -0.000007715777     0.000022618593
      10        0.000006061707     0.000010514431    -0.000001408865
      11        0.000011217191     0.000007741023     0.000000943587
      12       -0.000010276603     0.000016120570    -0.000009741827
      13        0.000004420861    -0.000010063970     0.000002966869
      14       -0.000005172810     0.000000544626     0.000002247756
      15       -0.000016314160     0.000011581883    -0.000020043189
      16       -0.000002727276     0.000009857836     0.000008187176
      17       -0.000005785263    -0.000000280389     0.000003300847
      18       -0.000010194775    -0.000005208085     0.000003036699
      19        0.000005963214     0.000003661484    -0.000007446300

  **** Optimization is complete! (in 5 steps) ****
    Final optimized geometry and variables:
    Molecular point group: c1

    Geometry (in Angstrom), charge = 0, multiplicity = 1:

    H           -2.618051377110     0.608882905830     0.410979868261
    O           -2.331330520194    -0.128129943827    -0.093852778148
    C           -0.943381116179    -0.067232171551    -0.318129506843
    H           -0.804353712638    -0.216487818022    -1.384290663017
    C           -0.225102240875    -1.186559211612     0.417224954148
    C           -0.355335397774     1.295788822231     0.065669808276
    H           -0.298359326857    -1.001253252259     1.485339926057
    H           -0.735106905375    -2.123077145619     0.231187126059
    C            1.249565783495    -1.272403380834    -0.016301101542
    H           -0.563986347165     2.009327117286    -0.724046993262
    H           -0.865363722923     1.657637097711     0.955569738266
    C            1.157060777118     1.229008642450     0.348780157072
    H            1.835743207972    -1.682839044364     0.798149461959
    H            1.350550206658    -1.966108890345    -0.843500869337
    C            1.821318306369     0.096374907710    -0.429411091966
    H            1.620082438859     2.179087416472     0.110365608186
    H            1.322080132806     1.067283840948     1.409377647830
    H            2.893949062344     0.112443227413    -0.275536637197
    H            1.665157147263     0.257737623149    -1.491761036730

  Mulliken Charges: (a.u.)
   Center  Symbol    Alpha    Beta     Spin     Total
       1     H     0.39286  0.39286  0.00000  0.21428
       2     O     4.20910  4.20910  0.00000 -0.41819
       3     C     2.92577  2.92577  0.00000  0.14845
       4     H     0.45169  0.45169  0.00000  0.09663
       5     C     3.09570  3.09570  0.00000 -0.19139
       6     C     3.12107  3.12107  0.00000 -0.24215
       7     H     0.46013  0.46013  0.00000  0.07973
       8     H     0.44127  0.44127  0.00000  0.11745
       9     C     3.11376  3.11376  0.00000 -0.22753
      10     H     0.44328  0.44328  0.00000  0.11344
      11     H     0.45867  0.45867  0.00000  0.08266
      12     C     3.09990  3.09990  0.00000 -0.19980
      13     H     0.44736  0.44736  0.00000  0.10528
      14     H     0.44673  0.44673  0.00000  0.10655
      15     C     3.10264  3.10264  0.00000 -0.20529
      16     H     0.44160  0.44160  0.00000  0.11679
      17     H     0.45290  0.45290  0.00000  0.09421
      18     H     0.44262  0.44262  0.00000  0.11476
      19     H     0.45294  0.45294  0.00000  0.09411

   Total alpha = 28.00000, Total beta = 28.00000, Total charge = -0.00000
