                              Psi4 1.0.54 Driver

  ==> Input File <==

--------------------------------------------------------------------------
set {
	reference rhf
	basis cc-pvtz
}

set_num_threads( 4 )
memory 2 gb

molecule MOL {
0 1

H	 -2.644180	 -0.653737	 1.272255
C	 -2.092774	 -0.380414	 0.391915
O	 -0.808934	 -0.154049	 0.752536
F	 -2.163230	 -1.351640	 -0.507133
F	 -2.627232	 0.691260	 -0.169301
C	 -0.016200	 0.607501	 -0.078677
C	 1.337869	 -0.090049	 -0.184508
Cl	 0.192643	 2.248650	 0.560504
H	 -0.424206	 0.698412	 -1.070096
F	 2.137210	 0.578862	 -0.976110
F	 1.164108	 -1.283760	 -0.700429
F	 1.916425	 -0.226451	 0.976922

	symmetry c1
}
set optking {
	frozen_dihedral = ("
		6 3 2 4
	")
}

ee,wfn = optimize('scf', return_wfn=True)
oeprop( wfn, 'DIPOLE', 'QUADRUPOLE', 'MULLIKEN_CHARGES')
f=open( 'psi4out.xyz', 'w' )
f.write( "12  " )
f.write( str(ee) + "\n" )
f.write( MOL.save_string_xyz() )
f.close()
--------------------------------------------------------------------------

    Molecular point group: c1
  Charge       = 0
  Multiplicity = 1
  Basis Set: CC-PVTZ
  Basis Set:
  @DF-RHF Final Energy: -1146.61922252182603
    Total Energy =                      -1146.6192225218251224
    Molecular point group: c1
  Basis Set: CC-PVTZ
  Basis Set:
  Basis Set: CC-PVTZ
  Basis Set:
  @DF-RHF Final Energy: -1146.61926680598640
    Total Energy =                      -1146.6192668059866264
  Basis Set: CC-PVTZ
  Basis Set:
  Basis Set: CC-PVTZ
  Basis Set:
  @DF-RHF Final Energy: -1146.61934631272834
    Total Energy =                      -1146.6193463127287941
  Basis Set: CC-PVTZ
  Basis Set:
  Basis Set: CC-PVTZ
  Basis Set:
  @DF-RHF Final Energy: -1146.61934616847066
    Total Energy =                      -1146.6193461684702015
  Basis Set: CC-PVTZ
  Basis Set:
  Basis Set: CC-PVTZ
  Basis Set:
  @DF-RHF Final Energy: -1146.61935696339788
    Total Energy =                      -1146.6193569633985589
  Basis Set: CC-PVTZ
  Basis Set:
  Basis Set: CC-PVTZ
  Basis Set:
  @DF-RHF Final Energy: -1146.61935976549330
    Total Energy =                      -1146.6193597654933001
  Basis Set: CC-PVTZ
  Basis Set:
  Charge       = 0
  Multiplicity = 1
  Basis Set: CC-PVTZ
  Basis Set:

    Orbital Energies (a.u.)
    -----------------------

    Doubly Occupied:

       1A   -104.856671     2A    -26.354711     3A    -26.353505
       4A    -26.352973     5A    -26.348373     6A    -26.340057
       7A    -20.640567     8A    -11.520047     9A    -11.484500
      10A    -11.401704    11A    -10.582221    12A     -8.049012
      13A     -8.047040    14A     -8.046959    15A     -1.767692
      16A     -1.725856    17A     -1.662648    18A     -1.661046
      19A     -1.646257    20A     -1.486854    21A     -1.177941
      22A     -1.053966    23A     -0.990898    24A     -0.924524
      25A     -0.864438    26A     -0.857804    27A     -0.851597
      28A     -0.832864    29A     -0.818212    30A     -0.795289
      31A     -0.733402    32A     -0.732767    33A     -0.710852
      34A     -0.708605    35A     -0.685208    36A     -0.681049
      37A     -0.666957    38A     -0.663868    39A     -0.653055
      40A     -0.638089    41A     -0.598370    42A     -0.581386
      43A     -0.522373    44A     -0.479094    45A     -0.470350

  @DF-RHF Final Energy: -1146.61936036402994

   => Energetics <=

    Nuclear Repulsion Energy =            737.3916297112045868
    One-Electron Energy =               -3057.9786754431156623
    Two-Electron Energy =                1173.9676853678811312
    DFT Exchange-Correlation Energy =       0.0000000000000000
    Empirical Dispersion Energy =           0.0000000000000000
    PCM Polarization Energy =               0.0000000000000000
    EFP Energy =                            0.0000000000000000
    Total Energy =                      -1146.6193603640299443
    Molecular point group: c1
  Basis Set: CC-PVTZ
  Basis Set:

  -Total Gradient:
     Atom            X                  Y                   Z
    ------   -----------------  -----------------  -----------------
       1       -0.000018979488     0.000002841370     0.000017927672
       2       -0.000235044928     0.003357574521    -0.001790676784
       3        0.001045383936    -0.003669018273    -0.001451055632
       4       -0.000166304503    -0.001738482859     0.001796799257
       5        0.000040029037    -0.000030685892     0.000035565635
       6       -0.000687749359     0.001983400921     0.001376932003
       7        0.000040917440    -0.000032842967     0.000002698404
       8        0.000025360948     0.000072490685     0.000027364963
       9        0.000018028598     0.000003629403    -0.000004630950
      10       -0.000027107355    -0.000002608050     0.000007395899
      11       -0.000012151047     0.000028985747    -0.000001133034
      12       -0.000022383254     0.000024715449    -0.000017187404

  **** Optimization is complete! (in 7 steps) ****
    Final optimized geometry and variables:
    Molecular point group: c1

    Geometry (in Angstrom), charge = 0, multiplicity = 1:

    H           -2.572032089073    -0.923010400095     1.252879157658
    C           -2.044826165008    -0.625358571786     0.365175243830
    O           -0.742304169433    -0.434831902671     0.687449118553
    F           -2.156542627141    -1.571985708306    -0.553451600481
    F           -2.583163051857     0.470222629011    -0.141163516418
    C            0.051133608833     0.326951835907    -0.139628354436
    C            1.412694740660    -0.359343794300    -0.221514454006
    CL           0.237250073411     1.976699320232     0.487787632289
    H           -0.343122918753     0.406886492653    -1.137627247333
    F            2.217362685777     0.313330046197    -1.004833955954
    F            1.256615981619    -1.556394839114    -0.734509916428
    F            1.975611350950    -0.484601452937     0.948696966871

  Mulliken Charges: (a.u.)
   Center  Symbol    Alpha    Beta     Spin     Total
       1     H     0.45413  0.45413  0.00000  0.09174
       2     C     2.73886  2.73886  0.00000  0.52228
       3     O     4.15669  4.15669  0.00000 -0.31339
       4     F     4.61528  4.61528  0.00000 -0.23056
       5     F     4.61579  4.61579  0.00000 -0.23159
       6     C     2.93716  2.93716  0.00000  0.12568
       7     C     2.66847  2.66847  0.00000  0.66305
       8    CL     8.57574  8.57574  0.00000 -0.15149
       9     H     0.43067  0.43067  0.00000  0.13865
      10     F     4.60259  4.60259  0.00000 -0.20518
      11     F     4.60410  4.60410  0.00000 -0.20820
      12     F     4.60050  4.60050  0.00000 -0.20100

   Total alpha = 45.00000, Total beta = 45.00000, Total charge =  0.00000

*** Psi4 exiting successfully. Buy a developer a beer!
