  ==> Input File <==

--------------------------------------------------------------------------
set {
	reference rhf
	basis cc-pvtz
}

set_num_threads( 4 )
memory 2 gb

molecule MOL {
0 1

O	 -1.510770	 1.240811	 -0.054933
C	 -1.081510	 0.147522	 0.122720
C	 0.327029	 -0.064006	 0.641890
C	 -1.903028	 -1.084121	 -0.174656
C	 1.349460	 -0.017068	 -0.500215
H	 0.399029	 -1.014606	 1.159950
H	 0.538021	 0.726928	 1.350471
C	 1.814628	 -1.405989	 -0.922430
H	 0.919280	 0.494156	 -1.356622
H	 2.199297	 0.574086	 -0.179841
H	 2.543691	 -1.343910	 -1.721581
H	 0.984665	 -2.008069	 -1.276567
H	 2.275048	 -1.931262	 -0.092989
H	 -1.341891	 -1.779207	 -0.789259
H	 -2.820449	 -0.808163	 -0.671328
H	 -2.133314	 -1.593056	 0.755831

	symmetry c1
}
set optking {
	frozen_dihedral = ("
		9 5 3 2
	")
}

ee = optimize('scf')
oeprop('DIPOLE', 'QUADRUPOLE', 'MULLIKEN_CHARGES')
f=open( 'psi4out.xyz', 'w' )
f.write( "16  " )
f.write( str(ee) + "\n" )
f.write( MOL.save_string_xyz() )
f.close()
--------------------------------------------------------------------------

    Molecular point group: c1
  Charge       = 0
  Multiplicity = 1
  Basis Set: CC-PVTZ
  Basis Set:
  @DF-RHF Final Energy:  -270.12374863720709
    Total Energy =                       -270.1237486372069725
    Molecular point group: c1
  Basis Set: CC-PVTZ
  Basis Set:
  Basis Set: CC-PVTZ
  Basis Set:
  @DF-RHF Final Energy:  -270.12407805565476
    Total Energy =                       -270.1240780556551613
  Basis Set: CC-PVTZ
  Basis Set:
  Basis Set: CC-PVTZ
  Basis Set:
  @DF-RHF Final Energy:  -270.12418012101921
    Total Energy =                       -270.1241801210191511
  Basis Set: CC-PVTZ
  Basis Set:
  Basis Set: CC-PVTZ
  Basis Set:
  @DF-RHF Final Energy:  -270.12427614497324
    Total Energy =                       -270.1242761449735212
  Basis Set: CC-PVTZ
  Basis Set:
  @DF-RHF Final Energy:  -270.12431725407419
    Total Energy =                       -270.1243172540738442
  @DF-RHF Final Energy:  -270.12446900794112
    Total Energy =                       -270.1244690079406610
  @DF-RHF Final Energy:  -270.12475688902146
    Total Energy =                       -270.1247568890217394
  @DF-RHF Final Energy:  -270.12534715478182
    Total Energy =                       -270.1253471547814797
  @DF-RHF Final Energy:  -270.12597404989606
    Total Energy =                       -270.1259740498961150
  @DF-RHF Final Energy:  -270.12671099775025
    Total Energy =                       -270.1267109977502514
  @DF-RHF Final Energy:  -270.12479149886462
    Total Energy =                       -270.1247914988647381
  @DF-RHF Final Energy:  -270.12721871369729
    Total Energy =                       -270.1272187136971752
  @DF-RHF Final Energy:  -270.12758789580732
    Total Energy =                       -270.1275878958073235
  @DF-RHF Final Energy:  -270.12776773043998
    Total Energy =                       -270.1277677304400413
  Basis Set: CC-PVTZ
  Basis Set:
  @DF-RHF Final Energy:  -270.12780448949491
    Total Energy =                       -270.1278044894947925
  Basis Set: CC-PVTZ
  Basis Set:
  Basis Set: CC-PVTZ
  Basis Set:
  @DF-RHF Final Energy:  -270.12780903762598
    Total Energy =                       -270.1278090376262071
  Basis Set: CC-PVTZ
  Basis Set:
  Basis Set: CC-PVTZ
  Basis Set:
  @DF-RHF Final Energy:  -270.12781013788447
    Total Energy =                       -270.1278101378846941
  Basis Set: CC-PVTZ
  Basis Set:
  Charge       = 0
  Multiplicity = 1
  Basis Set: CC-PVTZ
  Basis Set:

    Orbital Energies (a.u.)
    -----------------------

    Doubly Occupied:

       1A    -20.540284     2A    -11.322437     3A    -11.231051
       4A    -11.227532     5A    -11.216473     6A    -11.209279
       7A     -1.400727     8A     -1.076241     9A     -1.016609
      10A     -0.946282    11A     -0.826446    12A     -0.730785
      13A     -0.666843    14A     -0.639613    15A     -0.625569
      16A     -0.596491    17A     -0.579970    18A     -0.556417
      19A     -0.548670    20A     -0.504456    21A     -0.487561
      22A     -0.481318    23A     -0.473986    24A     -0.405037

  @DF-RHF Final Energy:  -270.12781022842069

   => Energetics <=

    Nuclear Repulsion Energy =            239.3069266290968073
    One-Electron Energy =                -840.2493200455104443
    Two-Electron Energy =                 330.8145831879930938
    DFT Exchange-Correlation Energy =       0.0000000000000000
    Empirical Dispersion Energy =           0.0000000000000000
    PCM Polarization Energy =               0.0000000000000000
    EFP Energy =                            0.0000000000000000
    Total Energy =                       -270.1278102284205715
    Molecular point group: c1
  Basis Set: CC-PVTZ
  Basis Set:

  -Total Gradient:
     Atom            X                  Y                   Z
    ------   -----------------  -----------------  -----------------
       1       -0.000002520582    -0.000010880413    -0.000000715224
       2       -0.000233276534     0.002323730910     0.001185434424
       3        0.000215767783    -0.003850708029    -0.002189278714
       4        0.000002399500    -0.000004253353    -0.000015414365
       5        0.000406060032     0.004065325146     0.003393988563
       6        0.000009322601    -0.000006243358     0.000000416683
       7        0.000010766560    -0.000003075303    -0.000009323601
       8       -0.000002287233    -0.000003890646     0.000008115719
       9       -0.000409185537    -0.002512048549    -0.002367307433
      10        0.000000080175     0.000000889268    -0.000001025989
      11       -0.000001898378     0.000001725332     0.000002705088
      12        0.000000577397     0.000000687704    -0.000003539122
      13       -0.000000847430    -0.000006147802    -0.000000951830
      14        0.000002192671    -0.000001831441     0.000002408360
      15       -0.000000343449     0.000002272695    -0.000002668183
      16        0.000003192425     0.000004447839    -0.000002844377

  **** Optimization is complete! (in 18 steps) ****
    Final optimized geometry and variables:
    Molecular point group: c1

    Geometry (in Angstrom), charge = 0, multiplicity = 1:

    O           -1.057031779215     0.775225355779    -0.929608887206
    C           -0.979984646495     0.148124454768     0.075348759023
    C            0.333977056981    -0.094802276541     0.796763978709
    C           -2.207052785659    -0.456336409804     0.719639474941
    C            1.583982467782     0.397643920791     0.061487099220
    H            0.400128753502    -1.152862244586     1.032773645962
    H            0.232035863083     0.404069668667     1.757676202023
    C            2.324521439444    -0.724289873877    -0.663513979344
    H            1.286707327181     1.135875232319    -0.669475570390
    H            2.254527567737     0.876514285219     0.764759240374
    H            3.187003410505    -0.339955570094    -1.195259469859
    H            1.679728316208    -1.208255123803    -1.389380649281
    H            2.673726008821    -1.482297357822     0.030329467916
    H           -2.155102029005    -1.537786802562     0.649438026426
    H           -3.095351326749    -0.107652515951     0.215818425496
    H           -2.254527807552    -0.203099718669     1.772398343256

  Mulliken Charges: (a.u.)
   Center  Symbol    Alpha    Beta     Spin     Total
       1     O     4.17163  4.17163  0.00000 -0.34325
       2     C     2.86010  2.86010  0.00000  0.27980
       3     C     3.11489  3.11489  0.00000 -0.22977
       4     C     3.15063  3.15063  0.00000 -0.30127
       5     C     3.09001  3.09001  0.00000 -0.18001
       6     H     0.44526  0.44526  0.00000  0.10948
       7     H     0.43813  0.43813  0.00000  0.12374
       8     C     3.14878  3.14878  0.00000 -0.29757
       9     H     0.43856  0.43856  0.00000  0.12288
      10     H     0.44899  0.44899  0.00000  0.10202
      11     H     0.44791  0.44791  0.00000  0.10418
      12     H     0.45185  0.45185  0.00000  0.09629
      13     H     0.45821  0.45821  0.00000  0.08358
      14     H     0.44882  0.44882  0.00000  0.10237
      15     H     0.43536  0.43536  0.00000  0.12928
      16     H     0.45086  0.45086  0.00000  0.09827

   Total alpha = 24.00000, Total beta = 24.00000, Total charge =  0.00000
