                              Psi4 1.0.54 Driver

  ==> Input File <==

--------------------------------------------------------------------------
set {
	reference rhf
	basis cc-pvtz
}

set_num_threads( 4 )
memory 2 gb

molecule MOL {
0 1

H	 -3.581187	 1.348560	 1.679368
C	 -3.607497	 0.624662	 0.853436
C	 -2.653809	 0.914422	 -0.273689
O	 -4.355353	 -0.289950	 0.892223
C	 -1.216901	 1.136108	 0.207794
H	 -2.713935	 0.107038	 -0.991916
H	 -3.012054	 1.820135	 -0.758094
C	 -0.247837	 0.040196	 -0.230469
H	 -0.872882	 2.093195	 -0.169002
H	 -1.209325	 1.218376	 1.291938
C	 1.181757	 0.280428	 0.247371
H	 -0.259600	 -0.030819	 -1.314870
H	 -0.591284	 -0.923375	 0.136958
C	 2.151032	 -0.811012	 -0.202643
H	 1.515939	 1.247397	 -0.115449
H	 1.191514	 0.341223	 1.333422
C	 3.580021	 -0.656538	 0.320835
H	 2.170545	 -0.847575	 -1.289412
H	 1.766632	 -1.772905	 0.124928
C	 4.327657	 0.562694	 -0.213579
H	 4.138806	 -1.549270	 0.057813
H	 3.561991	 -0.620783	 1.406976
H	 4.355973	 0.557257	 -1.298551
H	 3.867136	 1.491650	 0.100501
H	 5.351524	 0.571613	 0.142204

	symmetry c1
}
set optking {
	frozen_dihedral = ("
		6 3 5 8
	")
}

ee,wfn = optimize('scf', return_wfn=True)
oeprop( wfn, 'DIPOLE', 'QUADRUPOLE', 'MULLIKEN_CHARGES')
f=open( 'psi4out.xyz', 'w' )
f.write( "25  " )
f.write( str(ee) + "\n" )
f.write( MOL.save_string_xyz() )
f.close()
--------------------------------------------------------------------------

    Molecular point group: c1
  Charge       = 0
  Multiplicity = 1
  Basis Set: CC-PVTZ
  Basis Set:
  @DF-RHF Final Energy:  -387.25608959827770
    Total Energy =                       -387.2560895982779812
    Molecular point group: c1
  Basis Set: CC-PVTZ
  Basis Set:
  Basis Set: CC-PVTZ
  Basis Set:
  @DF-RHF Final Energy:  -387.25600785841124
    Total Energy =                       -387.2560078584115217
  Basis Set: CC-PVTZ
  Basis Set:
  Basis Set: CC-PVTZ
  Basis Set:
  @DF-RHF Final Energy:  -387.25309874027914
    Total Energy =                       -387.2530987402791425
  Basis Set: CC-PVTZ
  Basis Set:
  Basis Set: CC-PVTZ
  Basis Set:
  @DF-RHF Final Energy:  -387.25638149200051
    Total Energy =                       -387.2563814920001732
  Basis Set: CC-PVTZ
  Basis Set:
  Basis Set: CC-PVTZ
  Basis Set:
  @DF-RHF Final Energy:  -387.25641052806333
    Total Energy =                       -387.2564105280631566
  Basis Set: CC-PVTZ
  Basis Set:
  Basis Set: CC-PVTZ
  Basis Set:
  @DF-RHF Final Energy:  -387.25642879103816
    Total Energy =                       -387.2564287910377061
  Basis Set: CC-PVTZ
  Basis Set:
  Basis Set: CC-PVTZ
  Basis Set:
  @DF-RHF Final Energy:  -387.25643422150671
    Total Energy =                       -387.2564342215069928
  Basis Set: CC-PVTZ
  Basis Set:
  Charge       = 0
  Multiplicity = 1
  Basis Set: CC-PVTZ
  Basis Set:

    Orbital Energies (a.u.)
    -----------------------

    Doubly Occupied:

       1A    -20.551441     2A    -11.320866     3A    -11.233568
       4A    -11.233001     5A    -11.222135     6A    -11.217404
       7A    -11.216388     8A    -11.215295     9A    -11.209037
      10A     -1.406571    11A     -1.104077    12A     -1.069894
      13A     -1.014788    14A     -0.944899    15A     -0.875526
      16A     -0.814309    17A     -0.795366    18A     -0.781144
      19A     -0.673676    20A     -0.660421    21A     -0.635287
      22A     -0.625045    23A     -0.609617    24A     -0.588162
      25A     -0.572931    26A     -0.557738    27A     -0.530761
      28A     -0.524941    29A     -0.515586    30A     -0.496048
      31A     -0.488298    32A     -0.480389    33A     -0.465395
      34A     -0.459419    35A     -0.444223    36A     -0.411411

  @DF-RHF Final Energy:  -387.25643491109781

   => Energetics <=

    Nuclear Repulsion Energy =            435.6635575509155842
    One-Electron Energy =               -1387.9098681366344863
    Two-Electron Energy =                 564.9898756746208619
    DFT Exchange-Correlation Energy =       0.0000000000000000
    Empirical Dispersion Energy =           0.0000000000000000
    PCM Polarization Energy =               0.0000000000000000
    EFP Energy =                            0.0000000000000000
    Total Energy =                       -387.2564349110980402
    Molecular point group: c1
  Basis Set: CC-PVTZ
  Basis Set:

  -Total Gradient:
     Atom            X                  Y                   Z
    ------   -----------------  -----------------  -----------------
       1        0.000023157790    -0.000119109341    -0.000093454317
       2       -0.000155068300    -0.000017643979     0.000039038939
       3        0.000477051235     0.002161393803    -0.002566656708
       4        0.000095348154     0.000149538378    -0.000008282894
       5       -0.000420955216    -0.001504795168     0.002278907733
       6       -0.000254226089    -0.001453764294     0.001700104540
       7       -0.000036478330    -0.000036843961     0.000006322724
       8        0.000275409552     0.000826399664    -0.001333374160
       9        0.000004165731    -0.000041082050     0.000016019951
      10        0.000011976393     0.000002170737    -0.000023150247
      11       -0.000005303729     0.000010271522    -0.000022056714
      12        0.000009284417     0.000003151537     0.000018120090
      13       -0.000012431986     0.000012878036    -0.000004815830
      14       -0.000004201295     0.000012747488    -0.000020584748
      15       -0.000024130752    -0.000028789672     0.000002487554
      16        0.000001703189     0.000007124270    -0.000010452418
      17       -0.000011881638     0.000016677889     0.000035137757
      18        0.000000052558     0.000013040773     0.000010601981
      19        0.000006780391     0.000002159366    -0.000016777142
      20        0.000009713336    -0.000001171074    -0.000006721638
      21       -0.000012061163     0.000003363281     0.000009729874
      22        0.000001604620     0.000011004087    -0.000007277238
      23       -0.000002415267     0.000002107219     0.000005387601
      24        0.000031358210    -0.000024750881    -0.000000622204
      25       -0.000008451813    -0.000006077635    -0.000007632488

  **** Optimization is complete! (in 8 steps) ****
    Final optimized geometry and variables:
    Molecular point group: c1

    Geometry (in Angstrom), charge = 0, multiplicity = 1:

    H           -3.496481716727     1.053272806165     1.590766139479
    C           -3.492346678990     0.330662579641     0.764211922131
    C           -2.604443764816     0.693808550088    -0.395997243043
    O           -4.152381268406    -0.647671065338     0.830489558799
    C           -1.148499427334     0.959988111120     0.045388404255
    H           -2.662627644953    -0.116083072837    -1.110146717163
    H           -3.030858531606     1.581396920473    -0.853274940161
    C           -0.176237439910    -0.118228430235    -0.428523194287
    H           -0.821478793601     1.920128307060    -0.336590131516
    H           -1.097487004357     1.039902770271     1.127871694033
    C            1.258566523165     0.121914567440     0.031623368471
    H           -0.204763328827    -0.165961495203    -1.513742228284
    H           -0.513984053534    -1.088010421249    -0.072400044200
    C            2.227768511209    -0.951482581090    -0.460228605864
    H            1.580416684175     1.099764794595    -0.313014972517
    H            1.285458377278     0.156323712796     1.118446853319
    C            3.662505839232    -0.803531325390     0.049103968163
    H            2.233787831464    -0.958447088069    -1.547816429146
    H            1.852525872935    -1.923895137044    -0.153835168861
    C            4.398088343017     0.432116581902    -0.463827661097
    H            4.221781726808    -1.686812885991    -0.243170117703
    H            3.657821215613    -0.795099321254     1.135866922661
    H            4.411263118958     0.454898419874    -1.548875381847
    H            3.938694808637     1.350757398709    -0.119323321430
    H            5.426781735111     0.435879497028    -0.122209823865

  Mulliken Charges: (a.u.)
   Center  Symbol    Alpha    Beta     Spin     Total
       1     H     0.46542  0.46542  0.00000  0.06915
       2     C     2.90279  2.90279  0.00000  0.19442
       3     C     3.09045  3.09045  0.00000 -0.18091
       4     O     4.16552  4.16552  0.00000 -0.33103
       5     C     3.10919  3.10919  0.00000 -0.21838
       6     H     0.44298  0.44298  0.00000  0.11404
       7     H     0.44125  0.44125  0.00000  0.11751
       8     C     3.08825  3.08825  0.00000 -0.17650
       9     H     0.44490  0.44490  0.00000  0.11020
      10     H     0.45402  0.45402  0.00000  0.09195
      11     C     3.09365  3.09365  0.00000 -0.18730
      12     H     0.45089  0.45089  0.00000  0.09822
      13     H     0.44713  0.44713  0.00000  0.10574
      14     C     3.09552  3.09552  0.00000 -0.19103
      15     H     0.45264  0.45264  0.00000  0.09473
      16     H     0.45348  0.45348  0.00000  0.09305
      17     C     3.09059  3.09059  0.00000 -0.18118
      18     H     0.45355  0.45355  0.00000  0.09289
      19     H     0.44817  0.44817  0.00000  0.10366
      20     C     3.15266  3.15266  0.00000 -0.30531
      21     H     0.44773  0.44773  0.00000  0.10453
      22     H     0.45437  0.45437  0.00000  0.09126
      23     H     0.45474  0.45474  0.00000  0.09052
      24     H     0.45429  0.45429  0.00000  0.09143
      25     H     0.44583  0.44583  0.00000  0.10834

   Total alpha = 36.00000, Total beta = 36.00000, Total charge =  0.00000

*** Psi4 exiting successfully. Buy a developer a beer!
