                              Psi4 1.0.54 Driver

  ==> Input File <==

--------------------------------------------------------------------------
set {
	reference rhf
	basis cc-pvtz
}

set_num_threads( 4 )
memory 2 gb

molecule MOL {
0 1

H	 -2.277898	 0.213864	 0.661366
C	 -1.977477	 -0.409851	 -0.174319
O	 -0.775228	 0.000056	 -0.739966
H	 -2.729859	 -0.323838	 -0.945470
H	 -1.950236	 -1.442892	 0.156916
C	 0.406133	 -0.000384	 0.036994
C	 1.526415	 -0.003194	 -0.997339
C	 0.498772	 1.259027	 0.900673
C	 0.495883	 -1.257378	 0.904465
H	 1.452279	 0.872071	 -1.630204
H	 1.451276	 -0.881020	 -1.626529
H	 2.497919	 -0.002741	 -0.517601
H	 0.368981	 2.144239	 0.289753
H	 1.470064	 1.313479	 1.377660
H	 -0.248448	 1.271586	 1.684297
H	 0.363971	 -2.144195	 0.296316
H	 1.467114	 -1.312636	 1.381470
H	 -0.251246	 -1.265768	 1.688235

	symmetry c1
}
set optking {
	frozen_dihedral = ("
		2 3 6 7
	")
}

ee,wfn = optimize('scf', return_wfn=True)
oeprop( wfn, 'DIPOLE', 'QUADRUPOLE', 'MULLIKEN_CHARGES')
f=open( 'psi4out.xyz', 'w' )
f.write( "18  " )
f.write( str(ee) + "\n" )
f.write( MOL.save_string_xyz() )
f.close()
--------------------------------------------------------------------------

    Molecular point group: c1
  Charge       = 0
  Multiplicity = 1
  Basis Set: CC-PVTZ
  Basis Set:
  @DF-RHF Final Energy:  -271.27552404927513
    Total Energy =                       -271.2755240492749635
    Molecular point group: c1
  Basis Set: CC-PVTZ
  Basis Set:
  Basis Set: CC-PVTZ
  Basis Set:
  @DF-RHF Final Energy:  -271.27578342062037
    Total Energy =                       -271.2757834206203711
  Basis Set: CC-PVTZ
  Basis Set:
  Basis Set: CC-PVTZ
  Basis Set:
  @DF-RHF Final Energy:  -271.27609539640764
    Total Energy =                       -271.2760953964074133
  Basis Set: CC-PVTZ
  Basis Set:
  Basis Set: CC-PVTZ
  Basis Set:
  @DF-RHF Final Energy:  -271.27610844444126
    Total Energy =                       -271.2761084444412063
  Basis Set: CC-PVTZ
  Basis Set:
  Basis Set: CC-PVTZ
  Basis Set:
  @DF-RHF Final Energy:  -271.27611159567738
    Total Energy =                       -271.2761115956774347
  Basis Set: CC-PVTZ
  Basis Set:
  Basis Set: CC-PVTZ
  Basis Set:
  @DF-RHF Final Energy:  -271.27611688878801
    Total Energy =                       -271.2761168887881240
  Basis Set: CC-PVTZ
  Basis Set:
  Charge       = 0
  Multiplicity = 1
  Basis Set: CC-PVTZ
  Basis Set:

    Orbital Energies (a.u.)
    -----------------------

    Doubly Occupied:

       1A    -20.539966     2A    -11.280205     3A    -11.258726
       4A    -11.209349     5A    -11.205069     6A    -11.201923
       7A     -1.372964     8A     -1.074746     9A     -0.948612
      10A     -0.939303    11A     -0.912822    12A     -0.753245
      13A     -0.657117    14A     -0.647505    15A     -0.639584
      16A     -0.590850    17A     -0.575052    18A     -0.552827
      19A     -0.535713    20A     -0.525734    21A     -0.515344
      22A     -0.491374    23A     -0.486608    24A     -0.441580
      25A     -0.405303

  @DF-RHF Final Energy:  -271.27611780539075

   => Energetics <=

    Nuclear Repulsion Energy =            272.6698552378111344
    One-Electron Energy =                -908.3689016111371757
    Two-Electron Energy =                 364.4229285679355144
    DFT Exchange-Correlation Energy =       0.0000000000000000
    Empirical Dispersion Energy =           0.0000000000000000
    PCM Polarization Energy =               0.0000000000000000
    EFP Energy =                            0.0000000000000000
    Total Energy =                       -271.2761178053905269
    Molecular point group: c1
  Basis Set: CC-PVTZ
  Basis Set:

  -Total Gradient:
     Atom            X                  Y                   Z
    ------   -----------------  -----------------  -----------------
       1       -0.000004240961     0.000019578133     0.000017254252
       2        0.000403753252    -0.002017777374    -0.000615681366
       3       -0.000553933166     0.002521109454     0.000891980417
       4       -0.000029051976     0.000010578740    -0.000028240354
       5       -0.000001411590    -0.000057465986     0.000011061185
       6        0.000213500214     0.001256517039    -0.000304634233
       7       -0.000035191495    -0.001747876047    -0.000005223344
       8        0.000022204547     0.000008437633     0.000035811298
       9       -0.000024215848     0.000016396576     0.000012678549
      10        0.000002396473     0.000013089073     0.000002259568
      11        0.000003899975     0.000002899088    -0.000012119663
      12       -0.000001960630    -0.000017882601     0.000003157678
      13        0.000006027097    -0.000016379313    -0.000013717310
      14       -0.000017231807    -0.000001123478    -0.000011870040
      15        0.000004464144     0.000014359005     0.000023063604
      16       -0.000006403508     0.000005067639    -0.000000843841
      17        0.000004489891    -0.000005086041     0.000003873585
      18        0.000012905385    -0.000004441539    -0.000008809983

  **** Optimization is complete! (in 7 steps) ****
    Final optimized geometry and variables:
    Molecular point group: c1

    Geometry (in Angstrom), charge = 0, multiplicity = 1:

    H           -2.214329512842     0.207611468609     0.762640650278
    C           -1.987373297451    -0.325990344260    -0.156138662014
    O           -0.785197968437     0.076761657000    -0.726715441295
    H           -2.764348725691    -0.103201793833    -0.873826207756
    H           -2.009317077226    -1.390907839476     0.049488969808
    C            0.402252814273     0.066274699618     0.043976316626
    C            1.524631465165     0.058275578114    -0.988009934926
    C            0.466671812479     1.333524621415     0.896658568075
    C            0.512651460508    -1.180681315180     0.923670858833
    H            1.425172260868     0.906489968911    -1.653510215888
    H            1.478808234193    -0.844418563664    -1.583941507838
    H            2.494813797917     0.108518595226    -0.507656640876
    H            0.395766043989     2.210337206375     0.265302822610
    H            1.399210560111     1.380401452088     1.447190260115
    H           -0.342597273355     1.368297452209     1.616323536692
    H            0.402465853654    -2.080700163562     0.330556019929
    H            1.486945219403    -1.206951356012     1.395913977692
    H           -0.231329880486    -1.195106328640     1.710231983151

  Mulliken Charges: (a.u.)
   Center  Symbol    Alpha    Beta     Spin     Total
       1     H     0.47027  0.47027  0.00000  0.05946
       2     C     3.04402  3.04402  0.00000 -0.08803
       3     O     4.19261  4.19261  0.00000 -0.38523
       4     H     0.44185  0.44185  0.00000  0.11629
       5     H     0.46693  0.46693  0.00000  0.06614
       6     C     2.87458  2.87458  0.00000  0.25084
       7     C     3.14123  3.14123  0.00000 -0.28245
       8     C     3.15295  3.15295  0.00000 -0.30590
       9     C     3.17209  3.17209  0.00000 -0.34418
      10     H     0.44772  0.44772  0.00000  0.10457
      11     H     0.45059  0.45059  0.00000  0.09882
      12     H     0.45933  0.45933  0.00000  0.08135
      13     H     0.44756  0.44756  0.00000  0.10488
      14     H     0.45210  0.45210  0.00000  0.09580
      15     H     0.44986  0.44986  0.00000  0.10029
      16     H     0.44498  0.44498  0.00000  0.11005
      17     H     0.44509  0.44509  0.00000  0.10981
      18     H     0.44625  0.44625  0.00000  0.10750

   Total alpha = 25.00000, Total beta = 25.00000, Total charge =  0.00000

*** Psi4 exiting successfully. Buy a developer a beer!
