  ==> Input File <==

--------------------------------------------------------------------------
set {
	reference rhf
	basis 6-31G*
}

set_num_threads( 1 )
memory 2 gb

molecule MOL {
0 1

H	 -3.695600	 1.150684	 0.910909
O	 -2.836625	 1.447735	 0.646904
C	 -2.026376	 0.340750	 0.341611
C	 -0.673256	 0.843270	 -0.132153
H	 -1.897056	 -0.288380	 1.220479
H	 -2.488775	 -0.269107	 -0.433577
C	 0.486613	 -0.083066	 0.235839
H	 -0.715586	 0.970948	 -1.210718
H	 -0.508072	 1.829858	 0.297090
C	 1.840406	 0.433480	 -0.254303
H	 0.300215	 -1.068318	 -0.178947
H	 0.519509	 -0.203625	 1.318070
C	 3.000220	 -0.489290	 0.118523
H	 1.809207	 0.553576	 -1.335192
H	 2.021860	 1.424500	 0.157276
H	 2.864959	 -1.479103	 -0.307933
H	 3.946603	 -0.099227	 -0.243630
H	 3.080049	 -0.602997	 1.196117

	symmetry c1
}
set optking {
	frozen_dihedral = ("
		14 10 7 11,
		10 7 4 8,
		1 2 3 4
	")
}

ee = energy('scf')
oeprop('DIPOLE', 'QUADRUPOLE', 'MULLIKEN_CHARGES')
f=open( 'psi4out.xyz', 'w' )
f.write( "18  " )
f.write( str(ee) + "\n" )
f.write( MOL.save_string_xyz() )
f.close()
--------------------------------------------------------------------------

    Molecular point group: c1

    Geometry (in Angstrom), charge = 0, multiplicity = 1:

       Center              X                  Y                   Z               Mass
    ------------   -----------------  -----------------  -----------------  -----------------
           H         -3.598402693621     0.723479371843     0.735379352988     1.007825032070
           O         -2.739427693621     1.020530371843     0.471374352988    15.994914619560
           C         -1.929178693621    -0.086454628157     0.166081352988    12.000000000000
           C         -0.576058693621     0.416065371843    -0.307682647012    12.000000000000
           H         -1.799858693621    -0.715584628157     1.044949352988     1.007825032070
           H         -2.391577693621    -0.696311628157    -0.609106647012     1.007825032070
           C          0.583810306379    -0.510270628157     0.060309352988    12.000000000000
           H         -0.618388693621     0.543743371843    -1.386247647012     1.007825032070
           H         -0.410874693621     1.402653371843     0.121560352988     1.007825032070
           C          1.937603306379     0.006275371843    -0.429832647012    12.000000000000
           H          0.397412306379    -1.495522628157    -0.354476647012     1.007825032070
           H          0.616706306379    -0.630829628157     1.142540352988     1.007825032070
           C          3.097417306379    -0.916494628157    -0.057006647012    12.000000000000
           H          1.906404306379     0.126371371843    -1.510721647012     1.007825032070
           H          2.119057306379     0.997295371843    -0.018253647012     1.007825032070
           H          2.962156306379    -1.906307628157    -0.483462647012     1.007825032070
           H          4.043800306379    -0.526431628157    -0.419159647012     1.007825032070
           H          3.177246306379    -1.030201628157     1.020587352988     1.007825032070

  Charge       = 0
  Multiplicity = 1
  Basis Set: 6-31G*
  Basis Set:

    Orbital Energies (a.u.)
    -----------------------

    Doubly Occupied:

       1A    -20.551876     2A    -11.266703     3A    -11.215663
       4A    -11.215063     5A    -11.209960     6A    -11.208434
       7A     -1.358351     8A     -1.080026     9A     -1.010736
      10A     -0.913438    11A     -0.819324    12A     -0.792109
      13A     -0.696877    14A     -0.655138    15A     -0.623373
      16A     -0.585133    17A     -0.571469    18A     -0.557756
      19A     -0.529211    20A     -0.494878    21A     -0.489619
      22A     -0.468739    23A     -0.464044    24A     -0.451720
      25A     -0.430470

  @DF-RHF Final Energy:  -271.17629240496126

   => Energetics <=

    Nuclear Repulsion Energy =            245.4353438230773747
    One-Electron Energy =                -853.9031488556501017
    Two-Electron Energy =                 337.2915126276118372
    DFT Exchange-Correlation Energy =       0.0000000000000000
    Empirical Dispersion Energy =           0.0000000000000000
    PCM Polarization Energy =               0.0000000000000000
    EFP Energy =                            0.0000000000000000
    Total Energy =                       -271.1762924049609182

  Mulliken Charges: (a.u.)
   Center  Symbol    Alpha    Beta     Spin     Total
       1     H     0.28160  0.28160  0.00000  0.43679
       2     O     4.37143  4.37143  0.00000 -0.74286
       3     C     2.99155  2.99155  0.00000  0.01690
       4     C     3.16312  3.16312  0.00000 -0.32624
       5     H     0.43148  0.43148  0.00000  0.13704
       6     H     0.43153  0.43153  0.00000  0.13695
       7     C     3.15878  3.15878  0.00000 -0.31757
       8     H     0.41914  0.41914  0.00000  0.16172
       9     H     0.40767  0.40767  0.00000  0.18466
      10     C     3.15160  3.15160  0.00000 -0.30320
      11     H     0.42447  0.42447  0.00000  0.15105
      12     H     0.42199  0.42199  0.00000  0.15603
      13     C     3.23933  3.23933  0.00000 -0.47865
      14     H     0.42241  0.42241  0.00000  0.15518
      15     H     0.42101  0.42101  0.00000  0.15798
      16     H     0.42218  0.42218  0.00000  0.15563
      17     H     0.41901  0.41901  0.00000  0.16198
      18     H     0.42170  0.42170  0.00000  0.15660

   Total alpha = 25.00000, Total beta = 25.00000, Total charge = -0.00000
