  ==> Input File <==

--------------------------------------------------------------------------
set {
	reference rhf
	basis 6-31G*
}

set_num_threads( 4 )
memory 2 gb

molecule MOL {
0 1

H	 -2.646374	 -0.642757	 1.268656
C	 -2.083525	 -0.384536	 0.393091
O	 -0.807605	 -0.127164	 0.768327
F	 -2.118945	 -1.383102	 -0.486752
F	 -2.621877	 0.670592	 -0.209486
C	 -0.536087	 1.109115	 1.325624
C	 0.717853	 1.639186	 0.642384
Cl	 -0.283608	 0.971983	 3.073383
H	 -1.332615	 1.814518	 1.165234
F	 1.031921	 2.826504	 1.115436
F	 0.477948	 1.763064	 -0.647786
F	 1.742995	 0.837596	 0.798951

	symmetry c1
}
set optking {
	frozen_dihedral = ("
		6 3 2 4
	")
}

ee = optimize('scf')
oeprop('DIPOLE', 'QUADRUPOLE', 'MULLIKEN_CHARGES')
f=open( 'psi4out.xyz', 'w' )
f.write( "12  " )
f.write( str(ee) + "\n" )
f.write( MOL.save_string_xyz() )
f.close()
--------------------------------------------------------------------------

    Molecular point group: c1
  Charge       = 0
  Multiplicity = 1
  Basis Set: 6-31G*
  Basis Set:
  @DF-RHF Final Energy: -1146.30772855877808
    Total Energy =                      -1146.3077285587778533
    Molecular point group: c1
  Basis Set: 6-31G*
  Basis Set:
  Basis Set: 6-31G*
  Basis Set:
  @DF-RHF Final Energy: -1146.30983591243239
    Total Energy =                      -1146.3098359124321632
  Basis Set: 6-31G*
  Basis Set:
  Basis Set: 6-31G*
  Basis Set:
  @DF-RHF Final Energy: -1146.31106250074799
    Total Energy =                      -1146.3110625007479939
  Basis Set: 6-31G*
  Basis Set:
  Basis Set: 6-31G*
  Basis Set:
  @DF-RHF Final Energy: -1146.31188027070993
    Total Energy =                      -1146.3118802707090254
  Basis Set: 6-31G*
  Basis Set:
  Basis Set: 6-31G*
  Basis Set:
  @DF-RHF Final Energy: -1146.31198111532854
    Total Energy =                      -1146.3119811153278533
  Basis Set: 6-31G*
  Basis Set:
  Basis Set: 6-31G*
  Basis Set:
  @DF-RHF Final Energy: -1146.31198265987382
    Total Energy =                      -1146.3119826598742748
  Basis Set: 6-31G*
  Basis Set:
  Basis Set: 6-31G*
  Basis Set:
  @DF-RHF Final Energy: -1146.31199642584261
    Total Energy =                      -1146.3119964258432901
  Basis Set: 6-31G*
  Basis Set:
  Charge       = 0
  Multiplicity = 1
  Basis Set: 6-31G*
  Basis Set:

    Orbital Energies (a.u.)
    -----------------------

    Doubly Occupied:

       1A   -104.850094     2A    -26.362180     3A    -26.360152
       4A    -26.359604     5A    -26.350097     6A    -26.345804
       7A    -20.649611     8A    -11.530946     9A    -11.490549
      10A    -11.405045    11A    -10.584906    12A     -8.054196
      13A     -8.050820    14A     -8.050648    15A     -1.763406
      16A     -1.719542    17A     -1.659773    18A     -1.658208
      19A     -1.642696    20A     -1.487095    21A     -1.179509
      22A     -1.059984    23A     -0.984594    24A     -0.922175
      25A     -0.861205    26A     -0.851227    27A     -0.846056
      28A     -0.834495    29A     -0.814769    30A     -0.791073
      31A     -0.729797    32A     -0.726786    33A     -0.699268
      34A     -0.692655    35A     -0.685813    36A     -0.674630
      37A     -0.664760    38A     -0.661497    39A     -0.659609
      40A     -0.634795    41A     -0.604567    42A     -0.574128
      43A     -0.515291    44A     -0.485739    45A     -0.476426

  @DF-RHF Final Energy: -1146.31199707195833

   => Energetics <=

    Nuclear Repulsion Energy =            729.6586494370974378
    One-Electron Energy =               -3041.9288588433682889
    Two-Electron Energy =                1165.9582123343116109
    DFT Exchange-Correlation Energy =       0.0000000000000000
    Empirical Dispersion Energy =           0.0000000000000000
    PCM Polarization Energy =               0.0000000000000000
    EFP Energy =                            0.0000000000000000
    Total Energy =                      -1146.3119970719590128
    Molecular point group: c1
  Basis Set: 6-31G*
  Basis Set:

  -Total Gradient:
     Atom            X                  Y                   Z
    ------   -----------------  -----------------  -----------------
       1       -0.000041351491     0.000009717969    -0.000012080248
       2        0.000474240717    -0.001084000945     0.000521463831
       3        0.000433360499    -0.000985393192     0.001925864712
       4       -0.000475310019     0.001190803523    -0.000974463939
       5       -0.000069647342    -0.000024422796     0.000027732918
       6       -0.000334234110     0.000936810700    -0.001520215047
       7        0.000015994479    -0.000009024884    -0.000009213294
       8       -0.000009860393    -0.000013726920     0.000016650298
       9        0.000016967153    -0.000021251014     0.000019447054
      10       -0.000010307739    -0.000021790321     0.000022876995
      11       -0.000000977590     0.000026171311    -0.000029851738
      12        0.000001125834    -0.000003893422     0.000011788453

  **** Optimization is complete! (in 8 steps) ****
    Final optimized geometry and variables:
    Molecular point group: c1

    Geometry (in Angstrom), charge = 0, multiplicity = 1:

    H           -1.889656197183    -1.773372157349     0.509202480944
    C           -1.633180627292    -1.279974588689    -0.411413651254
    O           -0.354813794474    -0.800989737298    -0.411334339862
    F           -1.719675136690    -2.121840615032    -1.418672218423
    F           -2.497377759237    -0.287979111575    -0.624100955427
    C           -0.083355568538     0.373165175113     0.241794894551
    C            1.302253631332     0.809792514897    -0.217450467721
    CL          -0.115143812555     0.170325094119     2.015757968861
    H           -0.787653778279     1.149685225783     0.002618291889
    F            1.631551430375     1.946549454499     0.358217999753
    F            1.280139004465     1.002529890589    -1.519524082890
    F            2.219718996632    -0.084039286597     0.057473713438

  Mulliken Charges: (a.u.)
   Center  Symbol    Alpha    Beta     Spin     Total
       1     H     0.40964  0.40964  0.00000  0.18072
       2     C     2.56431  2.56431  0.00000  0.87138
       3     O     4.30315  4.30315  0.00000 -0.60629
       4     F     4.67003  4.67003  0.00000 -0.34006
       5     F     4.68563  4.68563  0.00000 -0.37127
       6     C     3.03756  3.03756  0.00000 -0.07511
       7     C     2.43074  2.43074  0.00000  1.13852
       8    CL     8.51638  8.51638  0.00000 -0.03276
       9     H     0.36586  0.36586  0.00000  0.26828
      10     F     4.67474  4.67474  0.00000 -0.34948
      11     F     4.67442  4.67442  0.00000 -0.34884
      12     F     4.66755  4.66755  0.00000 -0.33510

   Total alpha = 45.00000, Total beta = 45.00000, Total charge =  0.00000
