                              Psi4 1.0.54 Driver

  ==> Input File <==

--------------------------------------------------------------------------
set {
	reference rhf
	basis cc-pvtz
}

set_num_threads( 4 )
memory 2 gb

molecule MOL {
0 1

H	 -1.835082	 1.385983	 0.000069
C	 -1.300516	 0.441153	 -0.000028
O	 -0.006604	 0.654344	 -0.000106
O	 -1.828920	 -0.612308	 0.000113
C	 0.852093	 -0.482521	 -0.000161
C	 2.199282	 -0.042829	 0.521812
H	 0.920808	 -0.868235	 -1.007365
H	 0.414557	 -1.250727	 0.621437
H	 2.623508	 0.728906	 -0.107814
H	 2.878195	 -0.887086	 0.534579
H	 2.114709	 0.344519	 1.529174

	symmetry c1
}
set optking {
	frozen_dihedral = ("
		7 5 3 2
	")
}

ee,wfn = optimize('scf', return_wfn=True)
oeprop( wfn, 'DIPOLE', 'QUADRUPOLE', 'MULLIKEN_CHARGES')
f=open( 'psi4out.xyz', 'w' )
f.write( "11  " )
f.write( str(ee) + "\n" )
f.write( MOL.save_string_xyz() )
f.close()
--------------------------------------------------------------------------

    Molecular point group: c1
  Charge       = 0
  Multiplicity = 1
  Basis Set: CC-PVTZ
  Basis Set:
  @DF-RHF Final Energy:  -266.93117609898115
    Total Energy =                       -266.9311760989811546
    Molecular point group: c1
  Basis Set: CC-PVTZ
  Basis Set:
  Basis Set: CC-PVTZ
  Basis Set:
  @DF-RHF Final Energy:  -266.93121897759772
    Total Energy =                       -266.9312189775975526
  Basis Set: CC-PVTZ
  Basis Set:
  Basis Set: CC-PVTZ
  Basis Set:
  @DF-RHF Final Energy:  -266.93052252260611
    Total Energy =                       -266.9305225226060543
  Basis Set: CC-PVTZ
  Basis Set:
  Basis Set: CC-PVTZ
  Basis Set:
  @DF-RHF Final Energy:  -266.93127579078646
    Total Energy =                       -266.9312757907864579
  Basis Set: CC-PVTZ
  Basis Set:
  Basis Set: CC-PVTZ
  Basis Set:
  @DF-RHF Final Energy:  -266.93129202114665
    Total Energy =                       -266.9312920211465325
  Basis Set: CC-PVTZ
  Basis Set:
  Charge       = 0
  Multiplicity = 1
  Basis Set: CC-PVTZ
  Basis Set:

    Orbital Energies (a.u.)
    -----------------------

    Doubly Occupied:

       1A    -20.605494     2A    -20.545454     3A    -11.370436
       4A    -11.289768     5A    -11.225059     6A     -1.478800
       7A     -1.377560     8A     -1.053852     9A     -0.904557
      10A     -0.805057    11A     -0.742265    12A     -0.691641
      13A     -0.681513    14A     -0.596500    15A     -0.576732
      16A     -0.558184    17A     -0.524461    18A     -0.511379
      19A     -0.463895    20A     -0.457003

  @DF-RHF Final Energy:  -266.93129237940832

   => Energetics <=

    Nuclear Repulsion Energy =            179.5728924883670743
    One-Electron Energy =                -720.0891482462435533
    Two-Electron Energy =                 273.5849633784681600
    DFT Exchange-Correlation Energy =       0.0000000000000000
    Empirical Dispersion Energy =           0.0000000000000000
    PCM Polarization Energy =               0.0000000000000000
    EFP Energy =                            0.0000000000000000
    Total Energy =                       -266.9312923794083190
    Molecular point group: c1
  Basis Set: CC-PVTZ
  Basis Set:

  -Total Gradient:
     Atom            X                  Y                   Z
    ------   -----------------  -----------------  -----------------
       1        0.000010463021    -0.000023365036     0.000004556864
       2        0.000096994110    -0.000032030628     0.001269584923
       3        0.000281523947     0.000259702038    -0.001866080717
       4       -0.000096858419    -0.000009239730     0.000009633393
       5       -0.001392468168    -0.001092952683     0.000798170070
       6       -0.000021605274     0.000019317159     0.000017033660
       7        0.001135828693     0.000846063467    -0.000241589835
       8       -0.000010141314     0.000031837179    -0.000001144794
       9       -0.000005601436    -0.000005895867     0.000001715211
      10       -0.000011091186    -0.000000147747    -0.000001192721
      11        0.000012956024     0.000006711847     0.000009313946

  **** Optimization is complete! (in 6 steps) ****
    Final optimized geometry and variables:
    Molecular point group: c1

    Geometry (in Angstrom), charge = 0, multiplicity = 1:

    H           -1.810617803860     1.402895375896    -0.100670896371
    C           -1.285762604247     0.452772057514    -0.114680812445
    O            0.009929049551     0.656385383595    -0.099361749326
    O           -1.826625345149    -0.593967161513    -0.141013716978
    C            0.874261978870    -0.476563092046    -0.080537477633
    C            2.222265718587    -0.022256751000     0.429356026650
    H            0.951922993187    -0.862135621260    -1.088385993723
    H            0.444688766643    -1.241675984800     0.546567101853
    H            2.631354567131     0.756454844051    -0.201641196842
    H            2.911316772867    -0.858504715930     0.432255012873
    H            2.143153507925     0.360626715406     1.438971140876

  Mulliken Charges: (a.u.)
   Center  Symbol    Alpha    Beta     Spin     Total
       1     H     0.44897  0.44897  0.00000  0.10207
       2     C     2.84460  2.84460  0.00000  0.31081
       3     O     4.14523  4.14523  0.00000 -0.29046
       4     O     4.19524  4.19524  0.00000 -0.39048
       5     C     2.97413  2.97413  0.00000  0.05175
       6     C     3.13263  3.13263  0.00000 -0.26526
       7     H     0.45501  0.45501  0.00000  0.08997
       8     H     0.44867  0.44867  0.00000  0.10266
       9     H     0.45030  0.45030  0.00000  0.09939
      10     H     0.45446  0.45446  0.00000  0.09109
      11     H     0.45077  0.45077  0.00000  0.09847

   Total alpha = 20.00000, Total beta = 20.00000, Total charge = -0.00000

*** Psi4 exiting successfully. Buy a developer a beer!
