  ==> Input File <==

--------------------------------------------------------------------------
set {
	reference rhf
	basis 6-31G*
}

set_num_threads( 1 )
memory 2 gb

molecule MOL {
0 1

H	 -4.236494	 0.538104	 0.039757
O	 -3.517110	 -0.026191	 -0.205115
C	 -2.306886	 0.532354	 0.237577
C	 -1.177863	 -0.397191	 -0.171080
H	 -2.156308	 1.517575	 -0.201710
H	 -2.315015	 0.655684	 1.319734
C	 0.198102	 0.111031	 0.262842
H	 -1.208843	 -0.518759	 -1.250427
H	 -1.368741	 -1.376554	 0.258909
C	 1.331804	 -0.827780	 -0.158768
H	 0.361943	 1.100838	 -0.156218
H	 0.217265	 0.229072	 1.345532
C	 2.723619	 -0.410569	 0.329459
H	 1.342964	 -0.912588	 -1.244120
H	 1.116806	 -1.824343	 0.220779
C	 2.915335	 -0.486965	 1.845290
H	 2.909174	 0.610746	 0.006079
H	 3.475937	 -1.024778	 -0.161386
H	 2.168255	 0.108342	 2.363479
H	 2.841190	 -1.504718	 2.213879
H	 3.892682	 -0.109113	 2.129500

	symmetry c1
}
set optking {
	frozen_dihedral = ("
		2 3 4 8,
		8 4 7 10,
		4 7 10 14,
		1 2 3 5
	")
}

ee = energy('scf')
oeprop('DIPOLE', 'QUADRUPOLE', 'MULLIKEN_CHARGES')
f=open( 'psi4out.xyz', 'w' )
f.write( "21  " )
f.write( str(ee) + "\n" )
f.write( MOL.save_string_xyz() )
f.close()
--------------------------------------------------------------------------

    Molecular point group: c1

    Geometry (in Angstrom), charge = 0, multiplicity = 1:

       Center              X                  Y                   Z               Mass
    ------------   -----------------  -----------------  -----------------  -----------------
           H         -4.188008044453     0.740822847558    -0.271695549313     1.007825032070
           O         -3.468624044453     0.176527847558    -0.516567549313    15.994914619560
           C         -2.258400044453     0.735072847558    -0.073875549313    12.000000000000
           C         -1.129377044453    -0.194472152442    -0.482532549313    12.000000000000
           H         -2.107822044453     1.720293847558    -0.513162549313     1.007825032070
           H         -2.266529044453     0.858402847558     1.008281450687     1.007825032070
           C          0.246587955547     0.313749847558    -0.048610549313    12.000000000000
           H         -1.160357044453    -0.316040152442    -1.561879549313     1.007825032070
           H         -1.320255044453    -1.173835152442    -0.052543549313     1.007825032070
           C          1.380289955547    -0.625061152442    -0.470220549313    12.000000000000
           H          0.410428955547     1.303556847558    -0.467670549313     1.007825032070
           H          0.265750955547     0.431790847558     1.034079450687     1.007825032070
           C          2.772104955547    -0.207850152442     0.018006450687    12.000000000000
           H          1.391449955547    -0.709869152442    -1.555572549313     1.007825032070
           H          1.165291955547    -1.621624152442    -0.090673549313     1.007825032070
           C          2.963820955547    -0.284246152442     1.533837450687    12.000000000000
           H          2.957659955547     0.813464847558    -0.305373549313     1.007825032070
           H          3.524422955547    -0.822059152442    -0.472838549313     1.007825032070
           H          2.216740955547     0.311060847558     2.052026450687     1.007825032070
           H          2.889675955547    -1.301999152442     1.902426450687     1.007825032070
           H          3.941167955547     0.093605847558     1.818047450687     1.007825032070

  Charge       = 0
  Multiplicity = 1
  Basis Set: 6-31G*
  Basis Set:

    Orbital Energies (a.u.)
    -----------------------

    Doubly Occupied:

       1A    -20.551901     2A    -11.267133     3A    -11.215843
       4A    -11.215129     5A    -11.213561     6A    -11.210771
       7A    -11.208273     8A     -1.358725     9A     -1.086488
      10A     -1.033228    11A     -0.954416    12A     -0.875657
      13A     -0.807092    14A     -0.779598    15A     -0.692582
      16A     -0.661656    17A     -0.619884    18A     -0.610919
      19A     -0.586637    20A     -0.567408    21A     -0.538280
      22A     -0.520191    23A     -0.508973    24A     -0.487959
      25A     -0.479751    26A     -0.459972    27A     -0.455221
      28A     -0.443801    29A     -0.434049

  @DF-RHF Final Energy:  -310.21220748248157

   => Energetics <=

    Nuclear Repulsion Energy =            312.6286642536854856
    One-Electron Energy =               -1039.9916111423854090
    Two-Electron Energy =                 417.1507394062174967
    DFT Exchange-Correlation Energy =       0.0000000000000000
    Empirical Dispersion Energy =           0.0000000000000000
    PCM Polarization Energy =               0.0000000000000000
    EFP Energy =                            0.0000000000000000
    Total Energy =                       -310.2122074824824836

  Mulliken Charges: (a.u.)
   Center  Symbol    Alpha    Beta     Spin     Total
       1     H     0.28117  0.28117  0.00000  0.43767
       2     O     4.37177  4.37177  0.00000 -0.74355
       3     C     2.98974  2.98974  0.00000  0.02051
       4     C     3.15878  3.15878  0.00000 -0.31756
       5     H     0.43291  0.43291  0.00000  0.13418
       6     H     0.43288  0.43288  0.00000  0.13424
       7     C     3.16220  3.16220  0.00000 -0.32439
       8     H     0.41487  0.41487  0.00000  0.17026
       9     H     0.41461  0.41461  0.00000  0.17078
      10     C     3.15184  3.15184  0.00000 -0.30368
      11     H     0.42347  0.42347  0.00000  0.15307
      12     H     0.42213  0.42213  0.00000  0.15575
      13     C     3.15274  3.15274  0.00000 -0.30547
      14     H     0.42057  0.42057  0.00000  0.15887
      15     H     0.42338  0.42338  0.00000  0.15323
      16     C     3.24133  3.24133  0.00000 -0.48265
      17     H     0.42408  0.42408  0.00000  0.15184
      18     H     0.42020  0.42020  0.00000  0.15959
      19     H     0.42110  0.42110  0.00000  0.15780
      20     H     0.42114  0.42114  0.00000  0.15772
      21     H     0.41910  0.41910  0.00000  0.16179

   Total alpha = 29.00000, Total beta = 29.00000, Total charge =  0.00000
