  ==> Input File <==

--------------------------------------------------------------------------
set {
	reference rhf
	basis 6-31G*
}

set_num_threads( 4 )
memory 2 gb

molecule MOL {
0 1

O	 0.074228	 1.262779	 -0.000085
C	 0.028650	 0.075053	 -0.000277
C	 -1.233602	 -0.752807	 0.000328
O	 1.109162	 -0.694619	 -0.000298
C	 -2.501530	 0.091881	 0.000126
H	 -1.193807	 -1.406641	 -0.865785
H	 -1.193516	 -1.405779	 0.867015
H	 -2.545121	 0.729328	 -0.874513
H	 -3.377167	 -0.548497	 0.000561
H	 -2.544818	 0.730135	 0.874258
C	 2.103447	 -0.406407	 0.966097
H	 2.483934	 0.595942	 0.832161
H	 2.888444	 -1.128964	 0.806240
H	 1.702275	 -0.503762	 1.964623

	symmetry c1
}
set optking {
	frozen_dihedral = ("
		11 4 2 3
	")
}

ee = optimize('scf')
oeprop('DIPOLE', 'QUADRUPOLE', 'MULLIKEN_CHARGES')
f=open( 'psi4out.xyz', 'w' )
f.write( "14  " )
f.write( str(ee) + "\n" )
f.write( MOL.save_string_xyz() )
f.close()
--------------------------------------------------------------------------

    Molecular point group: c1
  Charge       = 0
  Multiplicity = 1
  Basis Set: 6-31G*
  Basis Set:
  @DF-RHF Final Energy:  -305.86027839632368
    Total Energy =                       -305.8602783963237925
    Molecular point group: c1
  Basis Set: 6-31G*
  Basis Set:
  Basis Set: 6-31G*
  Basis Set:
  @DF-RHF Final Energy:  -305.85827893687269
    Total Energy =                       -305.8582789368726935
  Basis Set: 6-31G*
  Basis Set:
  Basis Set: 6-31G*
  Basis Set:
  @DF-RHF Final Energy:  -305.86094673498519
    Total Energy =                       -305.8609467349852480
  Basis Set: 6-31G*
  Basis Set:
  Basis Set: 6-31G*
  Basis Set:
  @DF-RHF Final Energy:  -305.86108923511750
    Total Energy =                       -305.8610892351176176
  Basis Set: 6-31G*
  Basis Set:
  Basis Set: 6-31G*
  Basis Set:
  @DF-RHF Final Energy:  -305.86110944616530
    Total Energy =                       -305.8611094461653011
  Basis Set: 6-31G*
  Basis Set:
  Basis Set: 6-31G*
  Basis Set:
  @DF-RHF Final Energy:  -305.86111093231807
    Total Energy =                       -305.8611109323181836
  Basis Set: 6-31G*
  Basis Set:
  Charge       = 0
  Multiplicity = 1
  Basis Set: 6-31G*
  Basis Set:

    Orbital Energies (a.u.)
    -----------------------

    Doubly Occupied:

       1A    -20.593424     2A    -20.552309     3A    -11.374916
       4A    -11.286017     5A    -11.240752     6A    -11.217842
       7A     -1.463754     8A     -1.365406     9A     -1.063682
      10A     -0.977936    11A     -0.884395    12A     -0.766598
      13A     -0.700347    14A     -0.677377    15A     -0.672436
      16A     -0.620811    17A     -0.608665    18A     -0.554317
      19A     -0.540077    20A     -0.521558    21A     -0.509676
      22A     -0.496263    23A     -0.455572    24A     -0.437207

  @DF-RHF Final Energy:  -305.86111108314230

   => Energetics <=

    Nuclear Repulsion Energy =            246.6914805595281166
    One-Electron Energy =                -905.9425123366238495
    Two-Electron Energy =                 353.3899206939532860
    DFT Exchange-Correlation Energy =       0.0000000000000000
    Empirical Dispersion Energy =           0.0000000000000000
    PCM Polarization Energy =               0.0000000000000000
    EFP Energy =                            0.0000000000000000
    Total Energy =                       -305.8611110831424185
    Molecular point group: c1
  Basis Set: 6-31G*
  Basis Set:

  -Total Gradient:
     Atom            X                  Y                   Z
    ------   -----------------  -----------------  -----------------
       1        0.000028010915     0.000001377262    -0.000158856797
       2       -0.001975359007    -0.001836473629    -0.007444673202
       3        0.000203864002    -0.000498031223     0.007059326620
       4        0.005026767401     0.007703644090    -0.004296042552
       5        0.000013759702    -0.000007256819    -0.000010049702
       6       -0.000002313360     0.000001557461    -0.000005447673
       7       -0.000001574487    -0.000000669149    -0.000003565710
       8       -0.000004423652     0.000002466149    -0.000003903299
       9        0.000011174315    -0.000002438891    -0.000000366909
      10        0.000003593606     0.000002970369     0.000008987734
      11       -0.003295105213    -0.005373790496     0.004854298025
      12       -0.000003528287     0.000004463607    -0.000006798725
      13        0.000003942967     0.000003605336     0.000003316451
      14       -0.000008808902    -0.000001424068     0.000003775739

  **** Optimization is complete! (in 7 steps) ****
    Final optimized geometry and variables:
    Molecular point group: c1

    Geometry (in Angstrom), charge = 0, multiplicity = 1:

    O            0.101125459390     1.326762613804     0.010594541625
    C            0.064615141472     0.152771018945    -0.147926934850
    C           -1.192785157836    -0.680178028237    -0.164117006273
    O            1.167507936441    -0.605084583589    -0.233896236851
    C           -2.469084506618     0.145614838786    -0.260304640514
    H           -1.118402016783    -1.400217101504    -0.972722255412
    H           -1.169964842623    -1.263972422234     0.753286958586
    H           -2.494875944141     0.715918997788    -1.181653917984
    H           -3.338313560709    -0.502913536109    -0.238279703560
    H           -2.542285413044     0.845861138327     0.562281631856
    C            2.185438285991    -0.364610106706     0.719702266652
    H            2.548859049099     0.650202722743     0.652306676666
    H            2.979831035184    -1.059006310480     0.494929892376
    H            1.811273143305    -0.552143493006     1.719295583385

  Mulliken Charges: (a.u.)
   Center  Symbol    Alpha    Beta     Spin     Total
       1     O     4.27020  4.27020  0.00000 -0.54040
       2     C     2.60886  2.60886  0.00000  0.78227
       3     C     3.20640  3.20640  0.00000 -0.41280
       4     O     4.31318  4.31318  0.00000 -0.62636
       5     C     3.24057  3.24057  0.00000 -0.48114
       6     H     0.39965  0.39965  0.00000  0.20069
       7     H     0.40311  0.40311  0.00000  0.19378
       8     H     0.41129  0.41129  0.00000  0.17741
       9     H     0.41749  0.41749  0.00000  0.16503
      10     H     0.40767  0.40767  0.00000  0.18466
      11     C     3.09335  3.09335  0.00000 -0.18670
      12     H     0.40283  0.40283  0.00000  0.19434
      13     H     0.40620  0.40620  0.00000  0.18760
      14     H     0.41919  0.41919  0.00000  0.16162

   Total alpha = 24.00000, Total beta = 24.00000, Total charge = -0.00000
