  ==> Input File <==

--------------------------------------------------------------------------
set {
	reference rhf
	basis cc-pvtz
}

set_num_threads( 4 )
memory 2 gb

molecule MOL {
0 1

H	 1.128311	 0.207724	 1.465118
C	 1.134565	 0.093781	 0.372499
C	 0.062554	 0.862911	 -0.350953
O	 1.948932	 -0.587720	 -0.146651
C	 -1.345638	 0.346982	 -0.038820
H	 0.271515	 0.830008	 -1.412436
H	 0.145257	 1.897053	 -0.024174
C	 -1.611826	 -1.055339	 -0.578534
H	 -2.065276	 1.039169	 -0.460211
H	 -1.504626	 0.362456	 1.035857
H	 -1.495723	 -1.084998	 -1.656123
H	 -2.620143	 -1.373628	 -0.342673
H	 -0.928749	 -1.784246	 -0.156474

	symmetry c1
}
set optking {
	frozen_dihedral = ("
		6 3 2 4
	")
}

ee = optimize('scf')
oeprop('DIPOLE', 'QUADRUPOLE', 'MULLIKEN_CHARGES')
f=open( 'psi4out.xyz', 'w' )
f.write( "13  " )
f.write( str(ee) + "\n" )
f.write( MOL.save_string_xyz() )
f.close()
--------------------------------------------------------------------------

    Molecular point group: c1
  Charge       = 0
  Multiplicity = 1
  Basis Set: CC-PVTZ
  Basis Set:
  @DF-RHF Final Energy:  -231.07047755579330
    Total Energy =                       -231.0704775557933033
    Molecular point group: c1
  Basis Set: CC-PVTZ
  Basis Set:
  Basis Set: CC-PVTZ
  Basis Set:
  @DF-RHF Final Energy:  -231.06964199793885
    Total Energy =                       -231.0696419979387599
  Basis Set: CC-PVTZ
  Basis Set:
  Basis Set: CC-PVTZ
  Basis Set:
  @DF-RHF Final Energy:  -231.07051562589990
    Total Energy =                       -231.0705156259000432
  Basis Set: CC-PVTZ
  Basis Set:
  Basis Set: CC-PVTZ
  Basis Set:
  @DF-RHF Final Energy:  -231.07050457661623
    Total Energy =                       -231.0705045766162868
  Basis Set: CC-PVTZ
  Basis Set:
  Basis Set: CC-PVTZ
  Basis Set:
  @DF-RHF Final Energy:  -231.07052961325996
    Total Energy =                       -231.0705296132600779
  Basis Set: CC-PVTZ
  Basis Set:
  Charge       = 0
  Multiplicity = 1
  Basis Set: CC-PVTZ
  Basis Set:

    Orbital Energies (a.u.)
    -----------------------

    Doubly Occupied:

       1A    -20.552824     2A    -11.321819     3A    -11.237357
       4A    -11.234651     5A    -11.217390     6A     -1.407635
       7A     -1.086923     8A     -0.973820     9A     -0.847393
      10A     -0.788301    11A     -0.671961    12A     -0.652675
      13A     -0.623827    14A     -0.595899    15A     -0.559500
      16A     -0.536567    17A     -0.506495    18A     -0.493626
      19A     -0.483247    20A     -0.412842

  @DF-RHF Final Energy:  -231.07052974766412

   => Energetics <=

    Nuclear Repulsion Energy =            174.6315521887087812
    One-Electron Energy =                -658.9946561271145811
    Two-Electron Energy =                 253.2925741907419308
    DFT Exchange-Correlation Energy =       0.0000000000000000
    Empirical Dispersion Energy =           0.0000000000000000
    PCM Polarization Energy =               0.0000000000000000
    EFP Energy =                            0.0000000000000000
    Total Energy =                       -231.0705297476638691
    Molecular point group: c1
  Basis Set: CC-PVTZ
  Basis Set:

  -Total Gradient:
     Atom            X                  Y                   Z
    ------   -----------------  -----------------  -----------------
       1        0.000008185675    -0.000002978842    -0.000006109639
       2        0.001055653011     0.001359428046    -0.000113771204
       3       -0.000988973583    -0.001394692956    -0.000051678216
       4       -0.000637735901    -0.000812224004     0.000096142706
       5        0.000014992712     0.000015787378     0.000006275327
       6        0.000550959026     0.000824137093     0.000068894965
       7       -0.000006708073     0.000007952448    -0.000001522539
       8        0.000006496964    -0.000000411227    -0.000007402260
       9        0.000004279181    -0.000002868624    -0.000002394090
      10       -0.000010175168     0.000000237776     0.000009185658
      11       -0.000002029537    -0.000002025086    -0.000001416770
      12        0.000002594937     0.000007127537     0.000004556244
      13        0.000002460755     0.000000530461    -0.000000760181

  **** Optimization is complete! (in 6 steps) ****
    Final optimized geometry and variables:
    Molecular point group: c1

    Geometry (in Angstrom), charge = 0, multiplicity = 1:

    H            1.070440027127     0.293188302211     1.620540234770
    C            1.092514143874     0.187863377254     0.527474716670
    C            0.025277977365     0.954125727539    -0.204985339450
    O            1.903602608728    -0.504004943663     0.016466163451
    C           -1.381150053670     0.431400267592     0.115063134646
    H            0.232265002936     0.909480968888    -1.266448699772
    H            0.097674873424     1.991853592821     0.110376716095
    C           -1.651975233568    -0.967833526391    -0.429651487044
    H           -2.103064752959     1.126326192199    -0.297828440954
    H           -1.532342312339     0.442288559840     1.191037760732
    H           -1.547522460294    -0.990750954139    -1.508508659622
    H           -2.658632787703    -1.285014550418    -0.184947448734
    H           -0.964828521330    -1.698697624763    -0.019627574652

  Mulliken Charges: (a.u.)
   Center  Symbol    Alpha    Beta     Spin     Total
       1     H     0.46438  0.46438  0.00000  0.07124
       2     C     2.90530  2.90530  0.00000  0.18941
       3     C     3.08735  3.08735  0.00000 -0.17471
       4     O     4.16567  4.16567  0.00000 -0.33134
       5     C     3.10219  3.10219  0.00000 -0.20439
       6     H     0.44383  0.44383  0.00000  0.11235
       7     H     0.44362  0.44362  0.00000  0.11277
       8     C     3.14248  3.14248  0.00000 -0.28496
       9     H     0.44383  0.44383  0.00000  0.11234
      10     H     0.45152  0.45152  0.00000  0.09695
      11     H     0.45173  0.45173  0.00000  0.09654
      12     H     0.44768  0.44768  0.00000  0.10463
      13     H     0.45042  0.45042  0.00000  0.09916

   Total alpha = 20.00000, Total beta = 20.00000, Total charge =  0.00000
