                              Psi4 1.0.54 Driver

  ==> Input File <==

--------------------------------------------------------------------------
set {
	reference rhf
	basis cc-pvtz
}

set_num_threads( 4 )
memory 2 gb

molecule MOL {
0 1

H	 -1.088256	 -1.364742	 0.152233
O	 -1.432053	 -0.565244	 -0.200812
C	 -0.727158	 0.534527	 0.310686
C	 0.680222	 0.664433	 -0.252229
H	 -1.306802	 1.408001	 0.044211
H	 -0.690821	 0.490158	 1.397609
C	 1.346265	 2.003384	 0.050500
H	 1.286855	 -0.144177	 0.141952
H	 0.624934	 0.523670	 -1.328230
H	 1.473576	 2.152758	 1.117085
H	 2.330330	 2.057829	 -0.399172
H	 0.760542	 2.830998	 -0.338010

	symmetry c1
}
set optking {
	frozen_dihedral = ("
		8 4 3 2
	")
}

ee,wfn = optimize('scf', return_wfn=True)
oeprop( wfn, 'DIPOLE', 'QUADRUPOLE', 'MULLIKEN_CHARGES')
f=open( 'psi4out.xyz', 'w' )
f.write( "12  " )
f.write( str(ee) + "\n" )
f.write( MOL.save_string_xyz() )
f.close()
--------------------------------------------------------------------------

    Molecular point group: c1
  Charge       = 0
  Multiplicity = 1
  Basis Set: CC-PVTZ
  Basis Set:
  @DF-RHF Final Energy:  -193.19048182711887
    Total Energy =                       -193.1904818271189015
    Molecular point group: c1
  Basis Set: CC-PVTZ
  Basis Set:
  Basis Set: CC-PVTZ
  Basis Set:
  @DF-RHF Final Energy:  -193.19075988270839
    Total Energy =                       -193.1907598827082779
  Basis Set: CC-PVTZ
  Basis Set:
  Basis Set: CC-PVTZ
  Basis Set:
  @DF-RHF Final Energy:  -193.19081031317441
    Total Energy =                       -193.1908103131744951
  Basis Set: CC-PVTZ
  Basis Set:
  Basis Set: CC-PVTZ
  Basis Set:
  @DF-RHF Final Energy:  -193.19081550308701
    Total Energy =                       -193.1908155030870375
  Basis Set: CC-PVTZ
  Basis Set:
  Charge       = 0
  Multiplicity = 1
  Basis Set: CC-PVTZ
  Basis Set:

    Orbital Energies (a.u.)
    -----------------------

    Doubly Occupied:

       1A    -20.546156     2A    -11.265558     3A    -11.217410
       4A    -11.213887     5A     -1.364112     6A     -1.054330
       7A     -0.918955     8A     -0.819649     9A     -0.696022
      10A     -0.635996    11A     -0.600562    12A     -0.589222
      13A     -0.543376    14A     -0.501981    15A     -0.499291
      16A     -0.469967    17A     -0.432850

  @DF-RHF Final Energy:  -193.19081579224394

   => Energetics <=

    Nuclear Repulsion Energy =            131.1627564333521718
    One-Electron Energy =                -521.9684978872479633
    Two-Electron Energy =                 197.6149256616518812
    DFT Exchange-Correlation Energy =       0.0000000000000000
    Empirical Dispersion Energy =           0.0000000000000000
    PCM Polarization Energy =               0.0000000000000000
    EFP Energy =                            0.0000000000000000
    Total Energy =                       -193.1908157922439102
    Molecular point group: c1
  Basis Set: CC-PVTZ
  Basis Set:

  -Total Gradient:
     Atom            X                  Y                   Z
    ------   -----------------  -----------------  -----------------
       1       -0.000007314773    -0.000005045724    -0.000002283954
       2       -0.000658200657     0.000969973162    -0.001315562129
       3        0.001033630643    -0.001025537496     0.002192298189
       4       -0.000997501819    -0.001234247829    -0.002579087501
       5        0.000009506669     0.000002236419    -0.000003973655
       6        0.000007635011    -0.000003778789    -0.000001293149
       7        0.000014346504     0.000003991918     0.000006535441
       8        0.000615398282     0.001294634232     0.001703906037
       9       -0.000006918419    -0.000004153220     0.000001518329
      10       -0.000001645268    -0.000006954301     0.000003599411
      11       -0.000008160780     0.000003948860     0.000006791843
      12       -0.000000775395     0.000004932766    -0.000012448860

  **** Optimization is complete! (in 5 steps) ****
    Final optimized geometry and variables:
    Molecular point group: c1

    Geometry (in Angstrom), charge = 0, multiplicity = 1:

    H           -0.939745911498    -1.983182345934     0.085703947276
    O           -1.366300963324    -1.183769280223    -0.164699510522
    C           -0.654119941258    -0.082982889069     0.331165902115
    C            0.741133796265     0.038756882601    -0.261709865392
    H           -1.241273565389     0.787474323442     0.067050496782
    H           -0.599069336787    -0.115705908706     1.417195741402
    C            1.400854063217     1.371814314212     0.078778846039
    H            1.364520656867    -0.767867017240     0.117539459383
    H            0.672237719428    -0.082874482449    -1.336742541518
    H            1.473695782468     1.513144928163     1.152217833756
    H            2.403347293611     1.425365710627    -0.327898011409
    H            0.834686743167     2.203555766659    -0.326173528199

  Mulliken Charges: (a.u.)
   Center  Symbol    Alpha    Beta     Spin     Total
       1     H     0.39496  0.39496  0.00000  0.21009
       2     O     4.20089  4.20089  0.00000 -0.40177
       3     C     2.96563  2.96563  0.00000  0.06874
       4     C     3.08978  3.08978  0.00000 -0.17955
       5     H     0.45770  0.45770  0.00000  0.08460
       6     H     0.47119  0.47119  0.00000  0.05762
       7     C     3.15283  3.15283  0.00000 -0.30566
       8     H     0.46201  0.46201  0.00000  0.07598
       9     H     0.44857  0.44857  0.00000  0.10286
      10     H     0.45594  0.45594  0.00000  0.08812
      11     H     0.44722  0.44722  0.00000  0.10557
      12     H     0.45329  0.45329  0.00000  0.09341

   Total alpha = 17.00000, Total beta = 17.00000, Total charge = -0.00000

*** Psi4 exiting successfully. Buy a developer a beer!
