  ==> Input File <==

--------------------------------------------------------------------------
set {
	reference rhf
	basis cc-pvtz
}

set_num_threads( 4 )
memory 2 gb

molecule MOL {
0 1

H	 -0.675000	 -2.110000	 -0.000000
C	 -0.159000	 -1.165000	 -0.000000
N	 1.161000	 -1.232000	 0.000000
C	 -0.885000	 0.017000	 -0.000000
C	 1.837000	 -0.100000	 0.000000
C	 -0.153000	 1.198000	 -0.000000
C	 -2.395000	 0.018000	 0.000000
H	 2.910000	 -0.183000	 0.000000
C	 1.227000	 1.144000	 0.000000
H	 -0.659000	 2.148000	 -0.000000
H	 -2.788000	 0.526000	 -0.875000
H	 -2.786000	 -0.993000	 -0.001000
H	 -2.788000	 0.525000	 0.876000
H	 1.820000	 2.041000	 -0.000000

	symmetry c1
}
ee = optimize('scf')
oeprop('DIPOLE', 'QUADRUPOLE', 'MULLIKEN_CHARGES')
f=open( 'psi4out.xyz', 'w' )
f.write( "14  " )
f.write( str(ee) + "\n" )
f.write( MOL.save_string_xyz() )
f.close()
--------------------------------------------------------------------------

    Molecular point group: c1
  Charge       = 0
  Multiplicity = 1
  Basis Set: CC-PVTZ
  Basis Set:
  @DF-RHF Final Energy:  -285.82789566067925
    Total Energy =                       -285.8278956606790757
    Molecular point group: c1
  Basis Set: CC-PVTZ
  Basis Set:
  Basis Set: CC-PVTZ
  Basis Set:
  @DF-RHF Final Energy:  -285.82800505327981
    Total Energy =                       -285.8280050532797532
  Basis Set: CC-PVTZ
  Basis Set:
  Charge       = 0
  Multiplicity = 1
  Basis Set: CC-PVTZ
  Basis Set:

    Orbital Energies (a.u.)
    -----------------------

    Doubly Occupied:

       1A    -15.554306     2A    -11.260507     3A    -11.259330
       4A    -11.245972     5A    -11.241250     6A    -11.232622
       7A    -11.228028     8A     -1.264580     9A     -1.102647
      10A     -1.050211    11A     -0.953127    12A     -0.859463
      13A     -0.830263    14A     -0.713591    15A     -0.673609
      16A     -0.632906    17A     -0.589821    18A     -0.578951
      19A     -0.571561    20A     -0.552028    21A     -0.531554
      22A     -0.509356    23A     -0.409105    24A     -0.378452
      25A     -0.336999

  @DF-RHF Final Energy:  -285.82800887847191

   => Energetics <=

    Nuclear Repulsion Energy =            274.6410204788586498
    One-Electron Energy =                -929.8175762283640324
    Two-Electron Energy =                 369.3485468710337045
    DFT Exchange-Correlation Energy =       0.0000000000000000
    Empirical Dispersion Energy =           0.0000000000000000
    PCM Polarization Energy =               0.0000000000000000
    EFP Energy =                            0.0000000000000000
    Total Energy =                       -285.8280088784716781
    Molecular point group: c1
  Basis Set: CC-PVTZ
  Basis Set:

  -Total Gradient:
     Atom            X                  Y                   Z
    ------   -----------------  -----------------  -----------------
       1       -0.000009127907     0.000003227473    -0.000000404482
       2       -0.000007549358    -0.000013794519     0.000000294026
       3       -0.000111853815    -0.000143899992     0.000000350989
       4        0.000066016369     0.000077048386     0.000000287432
       5        0.000081098865     0.000358679528    -0.000000181885
       6       -0.000104178516    -0.000039478871    -0.000000490351
       7       -0.000048418348    -0.000022187027     0.000001470920
       8       -0.000013671773    -0.000012172139    -0.000000044888
       9        0.000138438038    -0.000150304072     0.000000086813
      10        0.000011698228    -0.000021217318    -0.000000087751
      11        0.000005518912    -0.000014295637     0.000018696223
      12       -0.000010018191     0.000027458265     0.000000547360
      13        0.000006117832    -0.000016433161    -0.000020598690
      14       -0.000004070337    -0.000032630918     0.000000074286

  **** Optimization is complete! (in 3 steps) ****
    Final optimized geometry and variables:
    Molecular point group: c1

    Geometry (in Angstrom), charge = 0, multiplicity = 1:

    H           -0.728554363501    -2.084140666727    -0.000064037960
    C           -0.211410837516    -1.141250277662    -0.000027026584
    N            1.105690243177    -1.206899777151    -0.000001846861
    C           -0.935944645120     0.037811636741    -0.000020937807
    C            1.780426215772    -0.079343779247     0.000022307224
    C           -0.204991305509     1.214951720527    -0.000008657877
    C           -2.442471125541     0.038290419954     0.000014374237
    H            2.851861746105    -0.160294063879     0.000039761601
    C            1.171144216970     1.161879255447     0.000016472909
    H           -0.709620170055     2.163985092942    -0.000022682401
    H           -2.833347281017     0.546037428963    -0.874294466783
    H           -2.832030108146    -0.970852645031    -0.000700528907
    H           -2.833303339091     0.544759258712     0.875084124905
    H            1.762549282284     2.056344772917     0.000024782145

  Mulliken Charges: (a.u.)
   Center  Symbol    Alpha    Beta     Spin     Total
       1     H     0.42258  0.42258  0.00000  0.15485
       2     C     3.07702  3.07702  0.00000 -0.15404
       3     N     3.59702  3.59702  0.00000 -0.19405
       4     C     2.94513  2.94513  0.00000  0.10974
       5     C     3.05406  3.05406  0.00000 -0.10812
       6     C     3.09977  3.09977  0.00000 -0.19953
       7     C     3.14044  3.14044  0.00000 -0.28088
       8     H     0.42045  0.42045  0.00000  0.15910
       9     C     3.06235  3.06235  0.00000 -0.12470
      10     H     0.42309  0.42309  0.00000  0.15383
      11     H     0.44727  0.44727  0.00000  0.10546
      12     H     0.44966  0.44966  0.00000  0.10067
      13     H     0.44726  0.44726  0.00000  0.10547
      14     H     0.41390  0.41390  0.00000  0.17220

   Total alpha = 25.00000, Total beta = 25.00000, Total charge = -0.00000
