                              Psi4 1.0.54 Driver

  ==> Input File <==

--------------------------------------------------------------------------
set {
	reference rhf
	basis cc-pvtz
}

set_num_threads( 4 )
memory 2 gb

molecule MOL {
0 1

H	 -2.816458	 -0.841657	 -0.064679
N	 -1.878861	 -0.711874	 0.250184
C	 -1.341419	 0.551458	 -0.220231
H	 -1.333674	 -1.468530	 -0.105118
C	 0.082190	 0.731516	 0.254705
H	 -1.357065	 0.652078	 -1.304747
H	 -1.939897	 1.357530	 0.189797
O	 0.881195	 -0.248324	 -0.336237
H	 0.440901	 1.722476	 -0.020063
H	 0.119896	 0.643586	 1.338114
C	 1.972982	 -0.639551	 0.428068
H	 2.514492	 -1.392214	 -0.126596
H	 2.640559	 0.196620	 0.625181
H	 1.661097	 -1.062345	 1.380190

	symmetry c1
}
set optking {
	frozen_dihedral = ("
		11 8 5 3
	")
}

ee,wfn = optimize('scf', return_wfn=True)
oeprop( wfn, 'DIPOLE', 'QUADRUPOLE', 'MULLIKEN_CHARGES')
f=open( 'psi4out.xyz', 'w' )
f.write( "14  " )
f.write( str(ee) + "\n" )
f.write( MOL.save_string_xyz() )
f.close()
--------------------------------------------------------------------------

    Molecular point group: c1
  Charge       = 0
  Multiplicity = 1
  Basis Set: CC-PVTZ
  Basis Set:
  @DF-RHF Final Energy:  -248.22462322885437
    Total Energy =                       -248.2246232288544547
    Molecular point group: c1
  Basis Set: CC-PVTZ
  Basis Set:
  Basis Set: CC-PVTZ
  Basis Set:
  @DF-RHF Final Energy:  -248.22471094167972
    Total Energy =                       -248.2247109416797457
  Basis Set: CC-PVTZ
  Basis Set:
  Basis Set: CC-PVTZ
  Basis Set:
  @DF-RHF Final Energy:  -248.22473131481010
    Total Energy =                       -248.2247313148103558
  Basis Set: CC-PVTZ
  Basis Set:
  Charge       = 0
  Multiplicity = 1
  Basis Set: CC-PVTZ
  Basis Set:

    Orbital Energies (a.u.)
    -----------------------

    Doubly Occupied:

       1A    -20.548833     2A    -15.524770     3A    -11.263297
       4A    -11.262901     5A    -11.239802     6A     -1.381714
       7A     -1.176834     8A     -1.000446     9A     -0.907268
      10A     -0.815334    11A     -0.686444    12A     -0.672699
      13A     -0.646684    14A     -0.615333    15A     -0.604592
      16A     -0.541314    17A     -0.530848    18A     -0.499298
      19A     -0.473504    20A     -0.418308    21A     -0.384414

  @DF-RHF Final Energy:  -248.22473202879968

   => Energetics <=

    Nuclear Repulsion Energy =            195.2936792191430868
    One-Electron Energy =                -724.6475456221273816
    Two-Electron Energy =                 281.1291343741845594
    DFT Exchange-Correlation Energy =       0.0000000000000000
    Empirical Dispersion Energy =           0.0000000000000000
    PCM Polarization Energy =               0.0000000000000000
    EFP Energy =                            0.0000000000000000
    Total Energy =                       -248.2247320287997354
    Molecular point group: c1
  Basis Set: CC-PVTZ
  Basis Set:

  -Total Gradient:
     Atom            X                  Y                   Z
    ------   -----------------  -----------------  -----------------
       1       -0.000008182621    -0.000025679019    -0.000022622617
       2        0.000027727387     0.000010605549     0.000009145600
       3       -0.000347621016    -0.001151561234     0.001541410509
       4       -0.000004583595    -0.000034950579    -0.000015476788
       5       -0.000037851601     0.000970283651    -0.001676245557
       6        0.000000738780    -0.000010141855     0.000009923645
       7        0.000016098059     0.000040925456     0.000003162270
       8        0.001602507348     0.001785853096    -0.000774407401
       9       -0.000003836369    -0.000007693231     0.000007615358
      10       -0.000014316350    -0.000020078811    -0.000011634730
      11       -0.001204083058    -0.001573790749     0.000949570045
      12        0.000008006729    -0.000001298451    -0.000009604896
      13       -0.000026829576     0.000001515588    -0.000012925862
      14       -0.000007774118     0.000016010590     0.000002090422

  **** Optimization is complete! (in 4 steps) ****
    Final optimized geometry and variables:
    Molecular point group: c1

    Geometry (in Angstrom), charge = 0, multiplicity = 1:

    H           -2.774740653484    -0.749856683252    -0.114492598902
    N           -1.826476903148    -0.629952451613     0.171088414013
    C           -1.297800823026     0.637359743743    -0.298666766679
    H           -1.299088136922    -1.382813239903    -0.217605853934
    C            0.126511738006     0.821455130282     0.175660255418
    H           -1.319697063498     0.738880997908    -1.383141159037
    H           -1.898787431172     1.440630395071     0.113595286913
    O            0.933562025833    -0.163533132143    -0.402440276080
    H            0.492097329928     1.809066139943    -0.097030270475
    H            0.148279043508     0.737152025073     1.258418322284
    C            2.029871224000    -0.554924814900     0.357433666041
    H            2.564903571318    -1.310137277087    -0.200482442403
    H            2.704515704042     0.277030300899     0.548191329269
    H            1.720930226690    -0.974247246264     1.311120289475

  Mulliken Charges: (a.u.)
   Center  Symbol    Alpha    Beta     Spin     Total
       1     H     0.42983  0.42983  0.00000  0.14033
       2     N     3.69562  3.69562  0.00000 -0.39123
       3     C     3.02384  3.02384  0.00000 -0.04768
       4     H     0.42251  0.42251  0.00000  0.15499
       5     C     2.96981  2.96981  0.00000  0.06038
       6     H     0.46418  0.46418  0.00000  0.07165
       7     H     0.45813  0.45813  0.00000  0.08374
       8     O     4.18496  4.18496  0.00000 -0.36991
       9     H     0.46299  0.46299  0.00000  0.07402
      10     H     0.46944  0.46944  0.00000  0.06112
      11     C     3.03341  3.03341  0.00000 -0.06683
      12     H     0.44901  0.44901  0.00000  0.10198
      13     H     0.46894  0.46894  0.00000  0.06211
      14     H     0.46734  0.46734  0.00000  0.06533

   Total alpha = 21.00000, Total beta = 21.00000, Total charge = -0.00000

*** Psi4 exiting successfully. Buy a developer a beer!
