  ==> Input File <==

--------------------------------------------------------------------------
set {
	reference rhf
	basis 6-31G*
}

set_num_threads( 4 )
memory 2 gb

molecule MOL {
0 1

H	 -3.420663	 1.227371	 -1.044276
O	 -3.452007	 0.283848	 -0.965577
C	 -3.181085	 -0.079926	 0.364119
C	 -1.765924	 0.277073	 0.805136
H	 -3.327791	 -1.152017	 0.410903
H	 -3.905698	 0.375695	 1.036898
C	 -1.199212	 -0.669902	 1.863717
H	 -1.113402	 0.284464	 -0.068432
H	 -1.773213	 1.296849	 1.186221
C	 0.229269	 -0.316203	 2.282666
H	 -1.228903	 -1.686905	 1.484860
H	 -1.846807	 -0.651358	 2.738743
C	 0.787543	 -1.264922	 3.346785
H	 0.868627	 -0.326897	 1.403163
H	 0.252618	 0.703661	 2.664684
C	 2.183590	 -0.898943	 3.863764
H	 0.806713	 -2.278827	 2.950145
H	 0.101203	 -1.283374	 4.190831
C	 3.297227	 -1.009906	 2.820737
H	 2.423234	 -1.551933	 4.699506
H	 2.164604	 0.112195	 4.265563
H	 3.331975	 -2.007979	 2.392038
H	 4.265957	 -0.809812	 3.268355
H	 3.163818	 -0.304768	 2.007013

	symmetry c1
}
set optking {
	frozen_dihedral = ("
		7 4 3 2
	")
}

ee = optimize('scf')
oeprop('DIPOLE', 'QUADRUPOLE', 'MULLIKEN_CHARGES')
f=open( 'psi4out.xyz', 'w' )
f.write( "24  " )
f.write( str(ee) + "\n" )
f.write( MOL.save_string_xyz() )
f.close()
--------------------------------------------------------------------------

    Molecular point group: c1
  Charge       = 0
  Multiplicity = 1
  Basis Set: 6-31G*
  Basis Set:
  @DF-RHF Final Energy:  -349.24447222877205
    Total Energy =                       -349.2444722287717127
    Molecular point group: c1
  Basis Set: 6-31G*
  Basis Set:
  Basis Set: 6-31G*
  Basis Set:
  @DF-RHF Final Energy:  -349.24489541334600
    Total Energy =                       -349.2448954133457164
  Basis Set: 6-31G*
  Basis Set:
  Basis Set: 6-31G*
  Basis Set:
  @DF-RHF Final Energy:  -349.24492551515812
    Total Energy =                       -349.2449255151577745
  Basis Set: 6-31G*
  Basis Set:
  Basis Set: 6-31G*
  Basis Set:
  @DF-RHF Final Energy:  -349.24492403587300
    Total Energy =                       -349.2449240358732823
  Basis Set: 6-31G*
  Basis Set:
  Basis Set: 6-31G*
  Basis Set:
  @DF-RHF Final Energy:  -349.24492897831141
    Total Energy =                       -349.2449289783114637
  Basis Set: 6-31G*
  Basis Set:
  Basis Set: 6-31G*
  Basis Set:
  @DF-RHF Final Energy:  -349.24493069787110
    Total Energy =                       -349.2449306978713821
  Basis Set: 6-31G*
  Basis Set:
  Charge       = 0
  Multiplicity = 1
  Basis Set: 6-31G*
  Basis Set:

    Orbital Energies (a.u.)
    -----------------------

    Doubly Occupied:

       1A    -20.552076     2A    -11.266472     3A    -11.218817
       4A    -11.215979     5A    -11.215415     6A    -11.215311
       7A    -11.214342     8A    -11.208541     9A     -1.358320
      10A     -1.091906    11A     -1.050361    12A     -0.985600
      13A     -0.913932    14A     -0.850634    15A     -0.805278
      16A     -0.778630    17A     -0.691728    18A     -0.647518
      19A     -0.626151    20A     -0.608957    21A     -0.600618
      22A     -0.588697    23A     -0.562341    24A     -0.532475
      25A     -0.521382    26A     -0.517082    27A     -0.487285
      28A     -0.480659    29A     -0.467260    30A     -0.461835
      31A     -0.460258    32A     -0.454166    33A     -0.418320

  @DF-RHF Final Energy:  -349.24493160183363

   => Energetics <=

    Nuclear Repulsion Energy =            379.8846077897543410
    One-Electron Energy =               -1226.1223866482428093
    Two-Electron Energy =                 496.9928472566548976
    DFT Exchange-Correlation Energy =       0.0000000000000000
    Empirical Dispersion Energy =           0.0000000000000000
    PCM Polarization Energy =               0.0000000000000000
    EFP Energy =                            0.0000000000000000
    Total Energy =                       -349.2449316018335708
    Molecular point group: c1
  Basis Set: 6-31G*
  Basis Set:

  -Total Gradient:
     Atom            X                  Y                   Z
    ------   -----------------  -----------------  -----------------
       1       -0.000003197192     0.000007121816    -0.000022330423
       2        0.001035118505    -0.003310273274    -0.001087333604
       3       -0.000973120241     0.003650874227     0.000488458096
       4       -0.001182791372     0.001710088598     0.002968746324
       5       -0.000029065803    -0.000007667218     0.000009702484
       6        0.000023019400    -0.000007986464     0.000016988240
       7        0.001115726328    -0.002044226525    -0.002371518225
       8       -0.000014801365    -0.000002086058     0.000003512652
       9        0.000034382036     0.000022576321     0.000009340215
      10       -0.000001672942    -0.000024173658    -0.000017586638
      11        0.000017198729     0.000005404284     0.000010476057
      12       -0.000013316924     0.000003934868     0.000004096487
      13       -0.000007882056    -0.000001294142    -0.000005193727
      14       -0.000009765370     0.000003203772    -0.000005559560
      15        0.000003248399    -0.000013954482     0.000005137591
      16       -0.000001695151     0.000007431413     0.000007433904
      17        0.000007865806    -0.000004082068     0.000001211988
      18       -0.000012455085     0.000002285647    -0.000014706976
      19        0.000001975292     0.000004076813    -0.000004724028
      20       -0.000001749264    -0.000001260817    -0.000005819253
      21        0.000006831038    -0.000000377784     0.000010756426
      22        0.000003883719     0.000000120622     0.000004522605
      23       -0.000001045573     0.000005096584    -0.000002844510
      24        0.000003309092    -0.000004832474    -0.000002766124

  **** Optimization is complete! (in 7 steps) ****
    Final optimized geometry and variables:
    Molecular point group: c1

    Geometry (in Angstrom), charge = 0, multiplicity = 1:

    H           -2.998396858583     1.655413623572    -2.804783164621
    O           -3.050535952838     0.716235954904    -2.692321965992
    C           -2.756241354127     0.385178713506    -1.359148887521
    C           -1.313243446443     0.710344764326    -0.965690368403
    H           -2.921248721403    -0.683033334852    -1.293356526638
    H           -3.459326821953     0.859375946457    -0.676949981370
    C           -0.759035946555    -0.228118897369     0.108591684373
    H           -0.704326130910     0.618761925819    -1.861109920618
    H           -1.234876546412     1.745452334667    -0.636894303817
    C            0.665918446622     0.124286514445     0.539369562375
    H           -0.779994185967    -1.247248126652    -0.271563512763
    H           -1.410720163638    -0.214827036969     0.981602977297
    C            1.225154941437    -0.839253598935     1.589487605611
    H            1.306782734005     0.132130949479    -0.338544993509
    H            0.680537730951     1.137367649364     0.938572099469
    C            2.614370270703    -0.470025229560     2.122320342462
    H            1.256951830601    -1.845375315460     1.174240369299
    H            0.533478157283    -0.879642938022     2.428572710486
    C            3.735110771640    -0.549480001567     1.084086592413
    H            2.855056310856    -1.137126669097     2.946431249637
    H            2.582754210335     0.532674821955     2.543938441883
    H            3.783130804662    -1.538774323791     0.636868977071
    H            4.698852933543    -0.347697515156     1.541490298913
    H            3.599063477801     0.169390624376     0.282993149568

  Mulliken Charges: (a.u.)
   Center  Symbol    Alpha    Beta     Spin     Total
       1     H     0.28358  0.28358  0.00000  0.43285
       2     O     4.37019  4.37019  0.00000 -0.74039
       3     C     2.99063  2.99063  0.00000  0.01874
       4     C     3.17350  3.17350  0.00000 -0.34701
       5     H     0.41619  0.41619  0.00000  0.16762
       6     H     0.43010  0.43010  0.00000  0.13981
       7     C     3.15887  3.15887  0.00000 -0.31773
       8     H     0.41265  0.41265  0.00000  0.17470
       9     H     0.42490  0.42490  0.00000  0.15020
      10     C     3.15353  3.15353  0.00000 -0.30706
      11     H     0.41970  0.41970  0.00000  0.16061
      12     H     0.42359  0.42359  0.00000  0.15282
      13     C     3.15268  3.15268  0.00000 -0.30536
      14     H     0.42023  0.42023  0.00000  0.15954
      15     H     0.42428  0.42428  0.00000  0.15144
      16     C     3.15239  3.15239  0.00000 -0.30478
      17     H     0.42364  0.42364  0.00000  0.15272
      18     H     0.42248  0.42248  0.00000  0.15505
      19     C     3.24125  3.24125  0.00000 -0.48250
      20     H     0.42084  0.42084  0.00000  0.15832
      21     H     0.42358  0.42358  0.00000  0.15285
      22     H     0.42196  0.42196  0.00000  0.15607
      23     H     0.41921  0.41921  0.00000  0.16157
      24     H     0.42003  0.42003  0.00000  0.15993

   Total alpha = 33.00000, Total beta = 33.00000, Total charge =  0.00000
