                              Psi4 1.0.54 Driver

  ==> Input File <==

--------------------------------------------------------------------------
set {
	reference rhf
	basis cc-pvtz
}

set_num_threads( 4 )
memory 2 gb

molecule MOL {
0 1

H	 -3.436473	 1.252944	 -1.023892
O	 -3.458596	 0.315260	 -0.960865
C	 -3.176635	 -0.080824	 0.355601
C	 -1.763371	 0.265266	 0.799691
H	 -3.321825	 -1.153438	 0.379502
H	 -3.895468	 0.357385	 1.043382
C	 -0.673390	 -0.426948	 -0.013392
H	 -1.631049	 1.344913	 0.747560
H	 -1.664587	 -0.001624	 1.849167
C	 -1.032694	 -1.857933	 -0.404741
H	 0.250790	 -0.425919	 0.553884
H	 -0.479722	 0.154302	 -0.911806
C	 0.060214	 -2.543309	 -1.222579
H	 -1.234956	 -2.429147	 0.496200
H	 -1.957661	 -1.854228	 -0.977698
C	 -0.286443	 -3.951983	 -1.707672
H	 0.975391	 -2.582265	 -0.636249
H	 0.283099	 -1.926554	 -2.088925
C	 -0.438431	 -4.989815	 -0.598192
H	 0.493326	 -4.282134	 -2.387184
H	 -1.201351	 -3.914390	 -2.293291
H	 0.459980	 -5.045357	 0.008314
H	 -0.615655	 -5.974804	 -1.014881
H	 -1.268028	 -4.761778	 0.060119

	symmetry c1
}
set optking {
	frozen_dihedral = ("
		11 7 4 3
	")
}

ee,wfn = optimize('scf', return_wfn=True)
oeprop( wfn, 'DIPOLE', 'QUADRUPOLE', 'MULLIKEN_CHARGES')
f=open( 'psi4out.xyz', 'w' )
f.write( "24  " )
f.write( str(ee) + "\n" )
f.write( MOL.save_string_xyz() )
f.close()
--------------------------------------------------------------------------

    Molecular point group: c1
  Charge       = 0
  Multiplicity = 1
  Basis Set: CC-PVTZ
  Basis Set:
  @DF-RHF Final Energy:  -349.37476090460495
    Total Energy =                       -349.3747609046050684
    Molecular point group: c1
  Basis Set: CC-PVTZ
  Basis Set:
  Basis Set: CC-PVTZ
  Basis Set:
  @DF-RHF Final Energy:  -349.37503521610790
    Total Energy =                       -349.3750352161080741
  Basis Set: CC-PVTZ
  Basis Set:
  Basis Set: CC-PVTZ
  Basis Set:
  @DF-RHF Final Energy:  -349.37668370106167
    Total Energy =                       -349.3766837010617223
  Basis Set: CC-PVTZ
  Basis Set:
  Basis Set: CC-PVTZ
  Basis Set:
  @DF-RHF Final Energy:  -349.37682319964262
    Total Energy =                       -349.3768231996427858
  Basis Set: CC-PVTZ
  Basis Set:
  Basis Set: CC-PVTZ
  Basis Set:
  @DF-RHF Final Energy:  -349.37683155384707
    Total Energy =                       -349.3768315538466140
  Basis Set: CC-PVTZ
  Basis Set:
  Basis Set: CC-PVTZ
  Basis Set:
  @DF-RHF Final Energy:  -349.37683032904368
    Total Energy =                       -349.3768303290434005
  Basis Set: CC-PVTZ
  Basis Set:
  Basis Set: CC-PVTZ
  Basis Set:
  @DF-RHF Final Energy:  -349.37683729808390
    Total Energy =                       -349.3768372980837285
  Basis Set: CC-PVTZ
  Basis Set:
  Charge       = 0
  Multiplicity = 1
  Basis Set: CC-PVTZ
  Basis Set:

    Orbital Energies (a.u.)
    -----------------------

    Doubly Occupied:

       1A    -20.546472     2A    -11.264782     3A    -11.215974
       4A    -11.211004     5A    -11.209436     6A    -11.207323
       7A    -11.205300     8A    -11.203187     9A     -1.363862
      10A     -1.087555    11A     -1.046874    12A     -0.983153
      13A     -0.915268    14A     -0.861133    15A     -0.793049
      16A     -0.770567    17A     -0.681997    18A     -0.652378
      19A     -0.627050    20A     -0.619368    21A     -0.598668
      22A     -0.584266    23A     -0.556028    24A     -0.536569
      25A     -0.521408    26A     -0.514449    27A     -0.489122
      28A     -0.480548    29A     -0.471608    30A     -0.458715
      31A     -0.449837    32A     -0.434858    33A     -0.427078

  @DF-RHF Final Energy:  -349.37683740442998

   => Energetics <=

    Nuclear Repulsion Energy =            394.6061556414479696
    One-Electron Energy =               -1255.9882057011104735
    Two-Electron Energy =                 512.0052126552328673
    DFT Exchange-Correlation Energy =       0.0000000000000000
    Empirical Dispersion Energy =           0.0000000000000000
    PCM Polarization Energy =               0.0000000000000000
    EFP Energy =                            0.0000000000000000
    Total Energy =                       -349.3768374044296934
    Molecular point group: c1
  Basis Set: CC-PVTZ
  Basis Set:

  -Total Gradient:
     Atom            X                  Y                   Z
    ------   -----------------  -----------------  -----------------
       1       -0.000003442560    -0.000000351809     0.000002096982
       2        0.000019952315    -0.000009764480     0.000003788546
       3       -0.000099534495    -0.002918428206     0.002374090298
       4       -0.000162730946     0.003283235058    -0.002974130461
       5        0.000000763234     0.000000715533     0.000001525531
       6       -0.000000717028    -0.000002046232     0.000002094494
       7        0.001632072913     0.003960402068    -0.001454821753
       8        0.000001579086    -0.000004919462    -0.000001245945
       9       -0.000002965819    -0.000000160900    -0.000001230221
      10       -0.000022266319     0.000009510373    -0.000003438082
      11       -0.001373520290    -0.004318107880     0.002044937173
      12       -0.000002878768    -0.000002418330     0.000003244984
      13        0.000009540920    -0.000002873028     0.000004118103
      14        0.000003242337     0.000000572714    -0.000000401571
      15        0.000003407922     0.000002339829     0.000001832285
      16       -0.000005717938     0.000007028246     0.000005191152
      17        0.000001676805     0.000000836050     0.000000183695
      18       -0.000000675045    -0.000002247628    -0.000000839989
      19        0.000001538054    -0.000002721016    -0.000005071853
      20       -0.000002680715    -0.000003385137     0.000003655730
      21        0.000000244604    -0.000003699829     0.000002891239
      22       -0.000000205604     0.000004353530    -0.000002163929
      23        0.000001212049     0.000000322459    -0.000000917267
      24        0.000002105285     0.000001808085    -0.000005389136

  **** Optimization is complete! (in 8 steps) ****
    Final optimized geometry and variables:
    Molecular point group: c1

    Geometry (in Angstrom), charge = 0, multiplicity = 1:

    H           -1.971513916969     2.935555370478    -0.578485127741
    O           -2.107716727178     2.016082136523    -0.438389589582
    C           -1.786096481930     1.681090347821     0.887058437822
    C           -0.324187804123     1.918316229146     1.234599501740
    H           -2.039957222160     0.637208516599     0.998454533415
    H           -2.413119544085     2.236855571149     1.579899915577
    C            0.707334110651     1.179764005710     0.368897393357
    H           -0.116187149513     2.985344721839     1.206032957567
    H           -0.198413354485     1.618697464955     2.272651280038
    C            0.343690077879    -0.261690328144     0.009330647979
    H            1.640387689873     1.146060295424     0.923914419253
    H            0.892188497999     1.735178777918    -0.543792463982
    C            1.475584128259    -0.974593562838    -0.729109805362
    H            0.097806588747    -0.804791929911     0.917609010365
    H           -0.544689287755    -0.271988775316    -0.612380718492
    C            1.138859531203    -2.387348464985    -1.209288572356
    H            2.355552884762    -1.014907832041    -0.090692631085
    H            1.755599782328    -0.376780916654    -1.592285506403
    C            0.901101935381    -3.401022218945    -0.092572309522
    H            1.954835642049    -2.741859326021    -1.831807019489
    H            0.263394246691    -2.347506012116    -1.851760316733
    H            1.757215147142    -3.455775157890     0.572565446167
    H            0.737843039707    -4.391875828175    -0.501020360434
    H            0.033480333484    -3.149508274076     0.505363431380

  Mulliken Charges: (a.u.)
   Center  Symbol    Alpha    Beta     Spin     Total
       1     H     0.39496  0.39496  0.00000  0.21009
       2     O     4.20661  4.20661  0.00000 -0.41321
       3     C     2.98200  2.98200  0.00000  0.03599
       4     C     3.11512  3.11512  0.00000 -0.23024
       5     H     0.45499  0.45499  0.00000  0.09003
       6     H     0.45523  0.45523  0.00000  0.08954
       7     C     3.08239  3.08239  0.00000 -0.16479
       8     H     0.45013  0.45013  0.00000  0.09975
       9     H     0.45290  0.45290  0.00000  0.09419
      10     C     3.10072  3.10072  0.00000 -0.20145
      11     H     0.45062  0.45062  0.00000  0.09876
      12     H     0.45338  0.45338  0.00000  0.09324
      13     C     3.09601  3.09601  0.00000 -0.19203
      14     H     0.45426  0.45426  0.00000  0.09149
      15     H     0.44386  0.44386  0.00000  0.11228
      16     C     3.08979  3.08979  0.00000 -0.17958
      17     H     0.45499  0.45499  0.00000  0.09002
      18     H     0.44996  0.44996  0.00000  0.10008
      19     C     3.15269  3.15269  0.00000 -0.30538
      20     H     0.44939  0.44939  0.00000  0.10122
      21     H     0.45373  0.45373  0.00000  0.09254
      22     H     0.45571  0.45571  0.00000  0.08857
      23     H     0.44664  0.44664  0.00000  0.10672
      24     H     0.45392  0.45392  0.00000  0.09216

   Total alpha = 33.00000, Total beta = 33.00000, Total charge = -0.00000

*** Psi4 exiting successfully. Buy a developer a beer!
