  ==> Input File <==

--------------------------------------------------------------------------
set {
	reference rhf
	basis 6-31G*
}

set_num_threads( 4 )
memory 2 gb

molecule MOL {
0 1

H	 -3.042581	 -0.665861	 0.004336
O	 -2.245037	 -1.176175	 0.000806
C	 -1.162163	 -0.365336	 0.001020
C	 -1.266655	 1.013942	 0.002823
C	 0.086549	 -0.974864	 -0.003877
H	 -2.233834	 1.487795	 0.003881
C	 -0.107981	 1.777734	 -0.000110
H	 0.130756	 -2.048712	 -0.007534
C	 1.241388	 -0.212330	 -0.005477
H	 -0.185557	 2.850590	 -0.001122
C	 1.135405	 1.178619	 -0.004980
C	 2.599743	 -0.873854	 0.013443
H	 2.024411	 1.784403	 -0.009744
H	 3.281397	 -0.387163	 -0.675955
H	 2.534169	 -1.920045	 -0.260501
H	 3.041656	 -0.817495	 1.004343

	symmetry c1
}
set optking {
	frozen_dihedral = ("
		5 3 2 1
	")
}

ee = optimize('scf')
oeprop('DIPOLE', 'QUADRUPOLE', 'MULLIKEN_CHARGES')
f=open( 'psi4out.xyz', 'w' )
f.write( "16  " )
f.write( str(ee) + "\n" )
f.write( MOL.save_string_xyz() )
f.close()
--------------------------------------------------------------------------

    Molecular point group: c1
  Charge       = 0
  Multiplicity = 1
  Basis Set: 6-31G*
  Basis Set:
  @DF-RHF Final Energy:  -344.59518257479272
    Total Energy =                       -344.5951825747928297
    Molecular point group: c1
  Basis Set: 6-31G*
  Basis Set:
  Charge       = 0
  Multiplicity = 1
  Basis Set: 6-31G*
  Basis Set:

    Orbital Energies (a.u.)
    -----------------------

    Doubly Occupied:

       1A    -20.589154     2A    -11.296104     3A    -11.241537
       4A    -11.234851     5A    -11.222659     6A    -11.220023
       7A    -11.215881     8A    -11.215709     9A     -1.407754
      10A     -1.149322    11A     -1.042817    12A     -1.004702
      13A     -0.936080    14A     -0.824004    15A     -0.822687
      16A     -0.712940    17A     -0.680666    18A     -0.652755
      19A     -0.607396    20A     -0.589697    21A     -0.570194
      22A     -0.568525    23A     -0.567524    24A     -0.531846
      25A     -0.504356    26A     -0.481686    27A     -0.467345
      28A     -0.328887    29A     -0.305446

  @DF-RHF Final Energy:  -344.59518265346821

   => Energetics <=

    Nuclear Repulsion Energy =            345.5694710344217810
    One-Electron Energy =               -1152.3442230808961995
    Two-Electron Energy =                 462.1795693930063749
    DFT Exchange-Correlation Energy =       0.0000000000000000
    Empirical Dispersion Energy =           0.0000000000000000
    PCM Polarization Energy =               0.0000000000000000
    EFP Energy =                            0.0000000000000000
    Total Energy =                       -344.5951826534680436
    Molecular point group: c1
  Basis Set: 6-31G*
  Basis Set:

  -Total Gradient:
     Atom            X                  Y                   Z
    ------   -----------------  -----------------  -----------------
       1       -0.000001871960     0.000000855536     0.000012377240
       2        0.000001929514     0.000004629203     0.000024734015
       3        0.000024538514    -0.000030853731    -0.000107213419
       4        0.000022027653     0.000023060593     0.000026840236
       5       -0.000035190312    -0.000003769775     0.000033589869
       6       -0.000005078660     0.000001778904     0.000002880047
       7       -0.000037886132    -0.000000866797     0.000001455511
       8        0.000002876349    -0.000000186186    -0.000000539480
       9        0.000011073172     0.000041709360     0.000030963972
      10        0.000002987589    -0.000000532495     0.000001747799
      11        0.000017833117    -0.000032627214    -0.000018578806
      12        0.000001744135    -0.000000573957    -0.000012428527
      13       -0.000001188348     0.000002542920     0.000000762829
      14        0.000002514770     0.000002042666     0.000003622728
      15       -0.000001074184    -0.000004153723    -0.000004348773
      16       -0.000005235216    -0.000003055304     0.000004134758

  **** Optimization is complete! (in 2 steps) ****
    Final optimized geometry and variables:
    Molecular point group: c1

    Geometry (in Angstrom), charge = 0, multiplicity = 1:

    H           -3.042566768931    -0.665864360540     0.003290990306
    O           -2.244985577993    -1.176165059424     0.000156932887
    C           -1.162136761505    -0.365313814120    -0.000635258926
    C           -1.266683972213     1.013953638928     0.001835991305
    C            0.086540770130    -0.974849817855    -0.005106776730
    H           -2.233905746621     1.487811165254     0.003282590124
    C           -0.107935817242     1.777716523693    -0.000988434156
    H            0.130679119235    -2.048707509239    -0.008685969707
    C            1.241343179203    -0.212376218386    -0.006334206150
    H           -0.185557960601     2.850581625236    -0.001624081613
    C            1.135374883066     1.178618784590    -0.005878351927
    C            2.599718380081    -0.873843646917     0.012597645637
    H            2.024403306894     1.784396881948    -0.010392932364
    H            3.281135732997    -0.387741551359    -0.677506277531
    H            2.534043822814    -1.920335399990    -0.260451609194
    H            3.042042128921    -0.816565532459     1.003289196667

  Mulliken Charges: (a.u.)
   Center  Symbol    Alpha    Beta     Spin     Total
       1     H     0.27194  0.27194  0.00000  0.45613
       2     O     4.37877  4.37877  0.00000 -0.75755
       3     C     2.78939  2.78939  0.00000  0.42123
       4     C     3.14963  3.14963  0.00000 -0.29926
       5     C     3.14060  3.14060  0.00000 -0.28120
       6     H     0.40561  0.40561  0.00000  0.18879
       7     C     3.08701  3.08701  0.00000 -0.17401
       8     H     0.39435  0.39435  0.00000  0.21131
       9     C     2.96903  2.96903  0.00000  0.06194
      10     H     0.39893  0.39893  0.00000  0.20215
      11     C     3.12414  3.12414  0.00000 -0.24829
      12     C     3.25466  3.25466  0.00000 -0.50933
      13     H     0.40348  0.40348  0.00000  0.19304
      14     H     0.41188  0.41188  0.00000  0.17623
      15     H     0.41157  0.41157  0.00000  0.17686
      16     H     0.40902  0.40902  0.00000  0.18196

   Total alpha = 29.00000, Total beta = 29.00000, Total charge = -0.00000
