  ==> Input File <==

--------------------------------------------------------------------------
set {
	reference rhf
	basis 6-31G*
}

set_num_threads( 1 )
memory 2 gb

molecule MOL {
0 1

H	 2.465338	 -2.224223	 0.000000
O	 2.784187	 -1.332015	 0.000000
C	 1.765313	 -0.449364	 0.000000
C	 1.983569	 0.777946	 -0.618077
C	 0.543033	 -0.724118	 0.581958
H	 2.942127	 0.967491	 -1.063157
C	 0.979487	 1.723354	 -0.651054
H	 0.347416	 -1.661188	 1.064823
C	 -0.443070	 0.247880	 0.530581
H	 1.156587	 2.668230	 -1.130326
C	 -0.257643	 1.471176	 -0.073334
N	 -1.734237	 -0.047887	 1.147750
H	 -1.046246	 2.194503	 -0.090859
O	 -1.869595	 -1.115720	 1.664898
O	 -2.577501	 0.794019	 1.099144

	symmetry c1
}
set optking {
	frozen_dihedral = ("
		11 9 12 14
	")
}

ee = energy('scf')
oeprop('DIPOLE', 'QUADRUPOLE', 'MULLIKEN_CHARGES')
f=open( 'psi4out.xyz', 'w' )
f.write( "15  " )
f.write( str(ee) + "\n" )
f.write( MOL.save_string_xyz() )
f.close()
--------------------------------------------------------------------------

    Molecular point group: c1

    Geometry (in Angstrom), charge = 0, multiplicity = 1:

       Center              X                  Y                   Z               Mass
    ------------   -----------------  -----------------  -----------------  -----------------
           H          2.394296741324    -2.306228023963    -0.404917701448     1.007825032070
           O          2.713145741324    -1.414020023963    -0.404917701448    15.994914619560
           C          1.694271741324    -0.531369023963    -0.404917701448    12.000000000000
           C          1.912527741324     0.695940976037    -1.022994701448    12.000000000000
           C          0.471991741324    -0.806123023963     0.177040298552    12.000000000000
           H          2.871085741324     0.885485976037    -1.468074701448     1.007825032070
           C          0.908445741324     1.641348976037    -1.055971701448    12.000000000000
           H          0.276374741324    -1.743193023963     0.659905298552     1.007825032070
           C         -0.514111258676     0.165874976037     0.125663298552    12.000000000000
           H          1.085545741324     2.586224976037    -1.535243701448     1.007825032070
           C         -0.328684258676     1.389170976037    -0.478251701448    12.000000000000
           N         -1.805278258676    -0.129892023963     0.742832298552    14.003074004780
           H         -1.117287258676     2.112497976037    -0.495776701448     1.007825032070
           O         -1.940636258676    -1.197725023963     1.259980298552    15.994914619560
           O         -2.648542258676     0.712013976037     0.694226298552    15.994914619560

  Charge       = 0
  Multiplicity = 1
  Basis Set: 6-31G*
  Basis Set:

    Orbital Energies (a.u.)
    -----------------------

    Doubly Occupied:

       1A    -20.612256     2A    -20.604926     3A    -20.604310
       4A    -15.859292     5A    -11.328149     6A    -11.310607
       7A    -11.267277     8A    -11.266431     9A    -11.264740
      10A    -11.261102    11A     -1.638089    12A     -1.434018
      13A     -1.421359    14A     -1.200390    15A     -1.094668
      16A     -1.046174    17A     -0.965514    18A     -0.876932
      19A     -0.828808    20A     -0.791400    21A     -0.749669
      22A     -0.737025    23A     -0.723921    24A     -0.707852
      25A     -0.674095    26A     -0.636394    27A     -0.624879
      28A     -0.580907    29A     -0.557809    30A     -0.542126
      31A     -0.514642    32A     -0.491579    33A     -0.489493
      34A     -0.454791    35A     -0.377074    36A     -0.345926

  @DF-RHF Final Energy:  -509.02648035391161

   => Energetics <=

    Nuclear Repulsion Energy =            503.4320887692205702
    One-Electron Energy =               -1693.1483662122402620
    Two-Electron Energy =                 680.6897970891077421
    DFT Exchange-Correlation Energy =       0.0000000000000000
    Empirical Dispersion Energy =           0.0000000000000000
    PCM Polarization Energy =               0.0000000000000000
    EFP Energy =                            0.0000000000000000
    Total Energy =                       -509.0264803539118930

  Mulliken Charges: (a.u.)
   Center  Symbol    Alpha    Beta     Spin     Total
       1     H     0.26763  0.26763  0.00000  0.46474
       2     O     4.37737  4.37737  0.00000 -0.75475
       3     C     2.79785  2.79785  0.00000  0.40430
       4     C     3.10675  3.10675  0.00000 -0.21351
       5     C     3.13152  3.13152  0.00000 -0.26304
       6     H     0.38105  0.38105  0.00000  0.23791
       7     C     3.10191  3.10191  0.00000 -0.20382
       8     H     0.36607  0.36607  0.00000  0.26787
       9     C     2.91460  2.91460  0.00000  0.17081
      10     H     0.38679  0.38679  0.00000  0.22642
      11     C     3.09613  3.09613  0.00000 -0.19226
      12     N     3.24022  3.24022  0.00000  0.51956
      13     H     0.36491  0.36491  0.00000  0.27018
      14     O     4.23520  4.23520  0.00000 -0.47040
      15     O     4.23200  4.23200  0.00000 -0.46400

   Total alpha = 36.00000, Total beta = 36.00000, Total charge =  0.00000
