  ==> Input File <==

--------------------------------------------------------------------------
set {
	reference rhf
	basis cc-pvtz
}

set_num_threads( 4 )
memory 2 gb

molecule MOL {
0 1

O	 1.163874	 0.496634	 0.957851
C	 0.576499	 0.134701	 -0.003900
C	 -0.765656	 -0.550508	 -0.002152
O	 1.039429	 0.281344	 -1.234414
C	 -1.945526	 0.411052	 0.000603
H	 -0.794329	 -1.203792	 -0.868145
H	 -0.791555	 -1.205429	 0.862701
C	 -3.282915	 -0.321280	 0.002596
H	 -1.880300	 1.059126	 -0.864925
H	 -1.877207	 1.057892	 0.866807
H	 -3.388495	 -0.952755	 -0.873419
H	 -4.107811	 0.380864	 0.004116
H	 -3.385717	 -0.953283	 0.878571
C	 2.297731	 0.907681	 -1.384042
H	 2.273422	 1.911373	 -0.986465
H	 2.493483	 0.931490	 -2.443666
H	 3.066355	 0.345257	 -0.875183

	symmetry c1
}
set optking {
	frozen_dihedral = ("
		1 2 3 6
	")
}

ee = optimize('scf')
oeprop('DIPOLE', 'QUADRUPOLE', 'MULLIKEN_CHARGES')
f=open( 'psi4out.xyz', 'w' )
f.write( "17  " )
f.write( str(ee) + "\n" )
f.write( MOL.save_string_xyz() )
f.close()
--------------------------------------------------------------------------

    Molecular point group: c1
  Charge       = 0
  Multiplicity = 1
  Basis Set: CC-PVTZ
  Basis Set:
  @DF-RHF Final Energy:  -345.03335918994395
    Total Energy =                       -345.0333591899440080
    Molecular point group: c1
  Basis Set: CC-PVTZ
  Basis Set:
  Basis Set: CC-PVTZ
  Basis Set:
  @DF-RHF Final Energy:  -345.03351591684788
    Total Energy =                       -345.0335159168479322
  Basis Set: CC-PVTZ
  Basis Set:
  Basis Set: CC-PVTZ
  Basis Set:
  @DF-RHF Final Energy:  -345.03409569145106
    Total Energy =                       -345.0340956914508865
  Basis Set: CC-PVTZ
  Basis Set:
  Basis Set: CC-PVTZ
  Basis Set:
  @DF-RHF Final Energy:  -345.03418609281340
    Total Energy =                       -345.0341860928130586
  Basis Set: CC-PVTZ
  Basis Set:
  Charge       = 0
  Multiplicity = 1
  Basis Set: CC-PVTZ
  Basis Set:

    Orbital Energies (a.u.)
    -----------------------

    Doubly Occupied:

       1A    -20.597919     2A    -20.532089     3A    -11.363610
       4A    -11.278650     5A    -11.232557     6A    -11.230501
       7A    -11.216796     8A     -1.472154     9A     -1.364637
      10A     -1.085347    11A     -1.000838    12A     -0.942426
      13A     -0.830557    14A     -0.775869    15A     -0.699946
      16A     -0.683140    17A     -0.676309    18A     -0.637882
      19A     -0.596744    20A     -0.583431    21A     -0.554988
      22A     -0.543229    23A     -0.527752    24A     -0.507948
      25A     -0.488452    26A     -0.485144    27A     -0.458040
      28A     -0.435781

  @DF-RHF Final Energy:  -345.03418678950601

   => Energetics <=

    Nuclear Repulsion Energy =            314.3954892608381329
    One-Electron Energy =               -1093.2538813776016013
    Two-Electron Energy =                 433.8242053272575731
    DFT Exchange-Correlation Energy =       0.0000000000000000
    Empirical Dispersion Energy =           0.0000000000000000
    PCM Polarization Energy =               0.0000000000000000
    EFP Energy =                            0.0000000000000000
    Total Energy =                       -345.0341867895059522
    Molecular point group: c1
  Basis Set: CC-PVTZ
  Basis Set:

  -Total Gradient:
     Atom            X                  Y                   Z
    ------   -----------------  -----------------  -----------------
       1       -0.000132269018     0.000271229009    -0.000169947043
       2        0.000095422636    -0.000367629645     0.000080068909
       3        0.000009974088    -0.000108650866     0.000228868036
       4        0.000066134640     0.000055098326     0.000076956630
       5        0.000011480125    -0.000019353163     0.000005663068
       6       -0.000114759823     0.000220180382    -0.000155295945
       7       -0.000014273399    -0.000031342080    -0.000002784510
       8        0.000006843020    -0.000017011355    -0.000000022826
       9        0.000004390152    -0.000005121722    -0.000000996261
      10       -0.000002119943     0.000001741402    -0.000001055942
      11       -0.000002316632    -0.000007673443    -0.000007105171
      12        0.000021871226     0.000011199371    -0.000001005581
      13        0.000002470901    -0.000001965592     0.000003358883
      14        0.000009219382    -0.000042181880    -0.000053496419
      15       -0.000005934296     0.000004014612     0.000004447225
      16        0.000039776337     0.000028249286    -0.000005295845
      17        0.000004090610     0.000009217360    -0.000002357205

  **** Optimization is complete! (in 5 steps) ****
    Final optimized geometry and variables:
    Molecular point group: c1

    Geometry (in Angstrom), charge = 0, multiplicity = 1:

    O            1.262252427939     0.243617045397     1.211301041890
    C            0.684157724901    -0.116896384999     0.242514429071
    C           -0.652995823158    -0.809538114082     0.255595319121
    O            1.134354191852     0.081458751233    -0.985148326268
    C           -1.799210177016     0.208133050283     0.217401101415
    H           -0.721476583863    -1.474189909976    -0.595517152892
    H           -0.707368615165    -1.393628901943     1.164090439767
    C           -3.166468912587    -0.464294110063     0.253652863030
    H           -1.712901224824     0.810175367340    -0.680883065810
    H           -1.699643745865     0.882433510808     1.060534770603
    H           -3.300912401280    -1.125735108052    -0.595394016285
    H           -3.960081112168     0.272810606894     0.228710426246
    H           -3.288628502928    -1.053150012304     1.156142025346
    C            2.360859750722     0.770777994636    -1.121927404958
    H            2.290986736530     1.760721192450    -0.696070287482
    H            2.551169841013     0.833310021300    -2.181077945467
    H            3.157067572404     0.231505625418    -0.630811792381

  Mulliken Charges: (a.u.)
   Center  Symbol    Alpha    Beta     Spin     Total
       1     O     4.20384  4.20384  0.00000 -0.40768
       2     C     2.80592  2.80592  0.00000  0.38816
       3     C     3.07801  3.07801  0.00000 -0.15602
       4     O     4.14950  4.14950  0.00000 -0.29899
       5     C     3.09259  3.09259  0.00000 -0.18518
       6     H     0.44444  0.44444  0.00000  0.11112
       7     H     0.44010  0.44010  0.00000  0.11981
       8     C     3.15128  3.15128  0.00000 -0.30255
       9     H     0.44801  0.44801  0.00000  0.10399
      10     H     0.44348  0.44348  0.00000  0.11303
      11     H     0.45423  0.45423  0.00000  0.09153
      12     H     0.44612  0.44612  0.00000  0.10776
      13     H     0.45290  0.45290  0.00000  0.09420
      14     C     3.03653  3.03653  0.00000 -0.07305
      15     H     0.45448  0.45448  0.00000  0.09105
      16     H     0.44548  0.44548  0.00000  0.10905
      17     H     0.45310  0.45310  0.00000  0.09379

   Total alpha = 28.00000, Total beta = 28.00000, Total charge =  0.00000
