                              Psi4 1.0.54 Driver

  ==> Input File <==

--------------------------------------------------------------------------
set {
	reference rhf
	basis cc-pvtz
}

set_num_threads( 4 )
memory 2 gb

molecule MOL {
0 1

H	 -0.366580	 2.045936	 -0.305741
C	 0.351829	 1.335402	 0.083179
N	 -0.000018	 0.000080	 -0.334836
H	 1.327156	 1.599860	 -0.305475
H	 0.380566	 1.445403	 1.171445
C	 0.931761	 -0.983869	 0.161162
C	 -1.363732	 -0.329644	 0.002516
H	 0.678479	 -1.961940	 -0.227832
H	 1.934476	 -0.742760	 -0.168407
H	 0.940939	 -1.046521	 1.253435
H	 -2.039240	 0.389587	 -0.443104
H	 -1.614514	 -1.308530	 -0.386093
H	 -1.543504	 -0.338151	 1.081738

	symmetry c1
}
set optking {
	frozen_dihedral = ("
		6 3 2 1
	")
}

ee,wfn = optimize('scf', return_wfn=True)
oeprop( wfn, 'DIPOLE', 'QUADRUPOLE', 'MULLIKEN_CHARGES')
f=open( 'psi4out.xyz', 'w' )
f.write( "13  " )
f.write( str(ee) + "\n" )
f.write( MOL.save_string_xyz() )
f.close()
--------------------------------------------------------------------------

    Molecular point group: c1
  Charge       = 0
  Multiplicity = 1
  Basis Set: CC-PVTZ
  Basis Set:
  @DF-RHF Final Energy:  -173.33394848780475
    Total Energy =                       -173.3339484878048893
    Molecular point group: c1
  Basis Set: CC-PVTZ
  Basis Set:
  Basis Set: CC-PVTZ
  Basis Set:
  @DF-RHF Final Energy:  -173.33395797622705
    Total Energy =                       -173.3339579762269977
  Basis Set: CC-PVTZ
  Basis Set:
  Charge       = 0
  Multiplicity = 1
  Basis Set: CC-PVTZ
  Basis Set:

    Orbital Energies (a.u.)
    -----------------------

    Doubly Occupied:

       1A    -15.539677     2A    -11.234324     3A    -11.234305
       4A    -11.234273     5A     -1.227321     6A     -0.952378
       7A     -0.952255     8A     -0.806985     9A     -0.643492
      10A     -0.631671    11A     -0.631384    12A     -0.544318
      13A     -0.543558    14A     -0.517276    15A     -0.502279
      16A     -0.502265    17A     -0.349728

  @DF-RHF Final Energy:  -173.33395873659262

   => Energetics <=

    Nuclear Repulsion Energy =            139.4800166564454287
    One-Electron Energy =                -509.5329699361236635
    Two-Electron Energy =                 196.7189945430856710
    DFT Exchange-Correlation Energy =       0.0000000000000000
    Empirical Dispersion Energy =           0.0000000000000000
    PCM Polarization Energy =               0.0000000000000000
    EFP Energy =                            0.0000000000000000
    Total Energy =                       -173.3339587365925922
    Molecular point group: c1
  Basis Set: CC-PVTZ
  Basis Set:

  -Total Gradient:
     Atom            X                  Y                   Z
    ------   -----------------  -----------------  -----------------
       1       -0.000518002252    -0.000086324246     0.000791505970
       2        0.000439925480     0.000077896275    -0.000753963861
       3        0.000405081330     0.000062518980    -0.000584973031
       4        0.000026413802    -0.000013203614    -0.000004711223
       5       -0.000002293099     0.000010757419    -0.000016000742
       6       -0.000412582341    -0.000067688785     0.000540459433
       7        0.000023126264     0.000065141937    -0.000020809101
       8        0.000018918198    -0.000018584816     0.000013345020
       9        0.000021802940    -0.000014733195     0.000009161572
      10        0.000004851281    -0.000003126439     0.000011727098
      11       -0.000024580113    -0.000002434876     0.000004846353
      12        0.000020650154    -0.000001121823    -0.000000311083
      13       -0.000003311644    -0.000009096816     0.000009723594

  **** Optimization is complete! (in 3 steps) ****
    Final optimized geometry and variables:
    Molecular point group: c1

    Geometry (in Angstrom), charge = 0, multiplicity = 1:

    H           -0.346556902148     2.041163627459    -0.301703494502
    C            0.371891967906     1.329705489573     0.085002540772
    N            0.020256731896    -0.004883448017    -0.336711163420
    H            1.350039385783     1.594816964192    -0.296338037312
    H            0.393120320237     1.437540433990     1.174008658101
    C            0.954355199798    -0.987131704530     0.158162437944
    C           -1.340992023776    -0.338865634915     0.007260849853
    H            0.706720764469    -1.965324964475    -0.234405883245
    H            1.957404364021    -0.741162818071    -0.167475942832
    H            0.961129353336    -1.052804215875     1.250523178106
    H           -2.021780241609     0.375328492120    -0.438390787267
    H           -1.588550453174    -1.320383569980    -0.376997526122
    H           -1.517416243951    -0.345473920394     1.087385240141

  Mulliken Charges: (a.u.)
   Center  Symbol    Alpha    Beta     Spin     Total
       1     H     0.45294  0.45294  0.00000  0.09413
       2     C     3.08902  3.08902  0.00000 -0.17805
       3     N     3.59552  3.59552  0.00000 -0.19105
       4     H     0.45207  0.45207  0.00000  0.09586
       5     H     0.47405  0.47405  0.00000  0.05190
       6     C     3.08925  3.08925  0.00000 -0.17850
       7     C     3.08904  3.08904  0.00000 -0.17807
       8     H     0.45255  0.45255  0.00000  0.09489
       9     H     0.45269  0.45269  0.00000  0.09461
      10     H     0.47373  0.47373  0.00000  0.05254
      11     H     0.45247  0.45247  0.00000  0.09507
      12     H     0.45259  0.45259  0.00000  0.09481
      13     H     0.47407  0.47407  0.00000  0.05186

   Total alpha = 17.00000, Total beta = 17.00000, Total charge = -0.00000

*** Psi4 exiting successfully. Buy a developer a beer!
