  ==> Input File <==

--------------------------------------------------------------------------
set {
	reference rhf
	basis 6-31G*
}

set_num_threads( 4 )
memory 2 gb

molecule MOL {
0 1

H	 1.597736	 -2.704271	 -1.635715
O	 1.541822	 -2.227990	 -0.813045
C	 0.767240	 -1.160518	 -1.005248
C	 0.624473	 -0.343591	 0.253101
O	 0.270880	 -0.921871	 -2.057716
C	 -0.265902	 0.883932	 0.072916
H	 0.249776	 -1.010225	 1.022889
H	 1.625603	 -0.059767	 0.567640
C	 -1.728698	 0.646073	 0.462102
H	 -0.209144	 1.219470	 -0.958188
H	 0.135059	 1.692851	 0.673903
C	 -2.482460	 -0.343073	 -0.431425
H	 -2.245265	 1.602650	 0.432430
H	 -1.779332	 0.308348	 1.496285
C	 -3.960546	 -0.461025	 -0.060175
H	 -2.395034	 -0.026811	 -1.468912
H	 -2.024850	 -1.327147	 -0.371646
H	 -4.472726	 -1.168004	 -0.705284
H	 -4.465146	 0.496508	 -0.151489
H	 -4.081218	 -0.800940	 0.964585

	symmetry c1
}
set optking {
	frozen_dihedral = ("
		7 4 6 10
	")
}

ee = optimize('scf')
oeprop('DIPOLE', 'QUADRUPOLE', 'MULLIKEN_CHARGES')
f=open( 'psi4out.xyz', 'w' )
f.write( "20  " )
f.write( str(ee) + "\n" )
f.write( MOL.save_string_xyz() )
f.close()
--------------------------------------------------------------------------

    Molecular point group: c1
  Charge       = 0
  Multiplicity = 1
  Basis Set: 6-31G*
  Basis Set:
  @DF-RHF Final Energy:  -383.94574349870686
    Total Energy =                       -383.9457434987070883
    Molecular point group: c1
  Basis Set: 6-31G*
  Basis Set:
  Basis Set: 6-31G*
  Basis Set:
  @DF-RHF Final Energy:  -383.94612670546610
    Total Energy =                       -383.9461267054662130
  Basis Set: 6-31G*
  Basis Set:
  Basis Set: 6-31G*
  Basis Set:
  @DF-RHF Final Energy:  -383.94625829997517
    Total Energy =                       -383.9462582999752840
  Basis Set: 6-31G*
  Basis Set:
  Basis Set: 6-31G*
  Basis Set:
  @DF-RHF Final Energy:  -383.94628597637620
    Total Energy =                       -383.9462859763767710
  Basis Set: 6-31G*
  Basis Set:
  @DF-RHF Final Energy:  -383.94630782182668
    Total Energy =                       -383.9463078218266219
  @DF-RHF Final Energy:  -383.94635304661307
    Total Energy =                       -383.9463530466132397
  @DF-RHF Final Energy:  -383.94638397289287
    Total Energy =                       -383.9463839728928178
  @DF-RHF Final Energy:  -383.94640317349337
    Total Energy =                       -383.9464031734931950
  @DF-RHF Final Energy:  -383.94641311867599
    Total Energy =                       -383.9464131186758777
  Basis Set: 6-31G*
  Basis Set:
  @DF-RHF Final Energy:  -383.94641539345650
    Total Energy =                       -383.9464153934561637
  Basis Set: 6-31G*
  Basis Set:
  Basis Set: 6-31G*
  Basis Set:
  @DF-RHF Final Energy:  -383.94641411806293
    Total Energy =                       -383.9464141180629895
  Basis Set: 6-31G*
  Basis Set:
  Basis Set: 6-31G*
  Basis Set:
  @DF-RHF Final Energy:  -383.94641619892604
    Total Energy =                       -383.9464161989260447
  Basis Set: 6-31G*
  Basis Set:
  Charge       = 0
  Multiplicity = 1
  Basis Set: 6-31G*
  Basis Set:

    Orbital Energies (a.u.)
    -----------------------

    Doubly Occupied:

       1A    -20.613471     2A    -20.552089     3A    -11.381893
       4A    -11.240687     5A    -11.222325     6A    -11.217542
       7A    -11.213903     8A    -11.208065     9A     -1.475502
      10A     -1.366121    11A     -1.093284    12A     -1.037006
      13A     -0.959112    14A     -0.869828    15A     -0.812636
      16A     -0.773508    17A     -0.700986    18A     -0.691992
      19A     -0.662804    20A     -0.629745    21A     -0.601273
      22A     -0.591813    23A     -0.574237    24A     -0.552577
      25A     -0.536136    26A     -0.513601    27A     -0.495157
      28A     -0.481719    29A     -0.463974    30A     -0.462434
      31A     -0.454577    32A     -0.442943

  @DF-RHF Final Energy:  -383.94641622705893

   => Energetics <=

    Nuclear Repulsion Energy =            388.5137112517762148
    One-Electron Energy =               -1293.1343694826132378
    Two-Electron Energy =                 520.6742420037780903
    DFT Exchange-Correlation Energy =       0.0000000000000000
    Empirical Dispersion Energy =           0.0000000000000000
    PCM Polarization Energy =               0.0000000000000000
    EFP Energy =                            0.0000000000000000
    Total Energy =                       -383.9464162270589895
    Molecular point group: c1
  Basis Set: 6-31G*
  Basis Set:

  -Total Gradient:
     Atom            X                  Y                   Z
    ------   -----------------  -----------------  -----------------
       1       -0.000000896914     0.000001309080     0.000000320573
       2        0.000000211551    -0.000000346724     0.000001799284
       3        0.000006181794    -0.000007077095     0.000004417420
       4        0.000872403069     0.000796465917     0.001399236733
       5       -0.000001694297     0.000005457444    -0.000004426029
       6        0.001344393622     0.000996870590     0.000200999590
       7       -0.000920831626    -0.000810325919    -0.001185196443
       8       -0.000001521241    -0.000000414259    -0.000000847324
       9       -0.000001969096     0.000002843691    -0.000008625242
      10       -0.001290787468    -0.000985739673    -0.000410802766
      11        0.000000235168     0.000002800758    -0.000001822393
      12       -0.000003442272    -0.000001758988     0.000009276249
      13       -0.000002130156     0.000001135894     0.000001974365
      14        0.000002482899    -0.000001595460    -0.000003161526
      15       -0.000001950368     0.000000208237    -0.000001758609
      16        0.000000829743     0.000000907147    -0.000000345630
      17       -0.000000522575    -0.000000489236    -0.000000541009
      18       -0.000001678047    -0.000000050783     0.000000021386
      19        0.000000140910    -0.000000230273     0.000000373417
      20        0.000000545298     0.000000029650    -0.000000892045

  **** Optimization is complete! (in 13 steps) ****
    Final optimized geometry and variables:
    Molecular point group: c1

    Geometry (in Angstrom), charge = 0, multiplicity = 1:

    H            2.133693481081    -2.232985781693    -1.149064047728
    O            2.017547168785    -1.784774559325    -0.316947790116
    C            1.427222279645    -0.614475286500    -0.556706999970
    C            1.245379455528     0.181867853850     0.712741298982
    O            1.124371327034    -0.275996073250    -1.654639187646
    C            0.349688668522     1.418325786615     0.561902690647
    H            0.870427681243    -0.499156282808     1.469737705688
    H            2.246653235008     0.460854315376     1.029695461504
    C           -1.119106247295     1.183995137854     0.936371797497
    H            0.406419674950     1.771322380771    -0.461024580212
    H            0.741178064602     2.208053499706     1.195310081853
    C           -1.856894194871     0.166756524537     0.062054437455
    H           -1.638943371067     2.137742974142     0.876695680698
    H           -1.178658095459     0.872401055561     1.978503169841
    C           -3.334402260721     0.041619245424     0.433252721297
    H           -1.763835472211     0.452511837824    -0.981624284227
    H           -1.388512681853    -0.810801166914     0.150951559640
    H           -3.836282547420    -0.687742191563    -0.194815104044
    H           -3.849972798401     0.990461514734     0.314591275965
    H           -3.455703893958    -0.272238186310     1.466450359870

  Mulliken Charges: (a.u.)
   Center  Symbol    Alpha    Beta     Spin     Total
       1     H     0.26776  0.26776  0.00000  0.46448
       2     O     4.35031  4.35031  0.00000 -0.70061
       3     C     2.62525  2.62525  0.00000  0.74951
       4     C     3.21245  3.21245  0.00000 -0.42489
       5     O     4.28062  4.28062  0.00000 -0.56124
       6     C     3.16202  3.16202  0.00000 -0.32404
       7     H     0.39733  0.39733  0.00000  0.20534
       8     H     0.39480  0.39480  0.00000  0.21041
       9     C     3.15360  3.15360  0.00000 -0.30720
      10     H     0.39870  0.39870  0.00000  0.20259
      11     H     0.41662  0.41662  0.00000  0.16676
      12     C     3.15538  3.15538  0.00000 -0.31076
      13     H     0.41990  0.41990  0.00000  0.16021
      14     H     0.42510  0.42510  0.00000  0.14980
      15     C     3.23959  3.23959  0.00000 -0.47917
      16     H     0.41150  0.41150  0.00000  0.17701
      17     H     0.42638  0.42638  0.00000  0.14725
      18     H     0.41826  0.41826  0.00000  0.16349
      19     H     0.42150  0.42150  0.00000  0.15700
      20     H     0.42296  0.42296  0.00000  0.15408

   Total alpha = 32.00000, Total beta = 32.00000, Total charge =  0.00000
