  ==> Input File <==

--------------------------------------------------------------------------
set {
	reference rhf
	basis 6-31G*
}

set_num_threads( 4 )
memory 2 gb

molecule MOL {
0 1

O	 -2.414308	 0.581423	 -0.995219
C	 -1.921153	 0.064240	 -0.045697
C	 -2.663070	 -0.762529	 0.969370
O	 -0.632575	 0.154573	 0.251549
H	 -2.556382	 -0.318102	 1.952248
H	 -3.707085	 -0.817020	 0.699371
H	 -2.237812	 -1.758584	 1.011629
C	 0.160891	 -1.019931	 0.106212
C	 1.589627	 -0.672828	 0.480843
H	 0.089836	 -1.367806	 -0.916050
H	 -0.238459	 -1.792301	 0.749618
C	 2.246377	 0.346236	 -0.452210
H	 2.163194	 -1.597435	 0.473358
H	 1.604769	 -0.303424	 1.502885
C	 3.691736	 0.652107	 -0.061850
H	 2.219579	 -0.032311	 -1.472055
H	 1.666466	 1.263317	 -0.447249
H	 4.134505	 1.377213	 -0.737283
H	 4.305508	 -0.243868	 -0.089969
H	 3.748266	 1.059562	 0.943567

	symmetry c1
}
set optking {
	frozen_dihedral = ("
		1 2 4 8
	")
}

ee = optimize('scf')
oeprop('DIPOLE', 'QUADRUPOLE', 'MULLIKEN_CHARGES')
f=open( 'psi4out.xyz', 'w' )
f.write( "20  " )
f.write( str(ee) + "\n" )
f.write( MOL.save_string_xyz() )
f.close()
--------------------------------------------------------------------------

    Molecular point group: c1
  Charge       = 0
  Multiplicity = 1
  Basis Set: 6-31G*
  Basis Set:
  @DF-RHF Final Energy:  -383.92267558475982
    Total Energy =                       -383.9226755847596451
    Molecular point group: c1
  Basis Set: 6-31G*
  Basis Set:
  Basis Set: 6-31G*
  Basis Set:
  @DF-RHF Final Energy:  -383.92198444949184
    Total Energy =                       -383.9219844494915606
  Basis Set: 6-31G*
  Basis Set:
  Basis Set: 6-31G*
  Basis Set:
  @DF-RHF Final Energy:  -383.92437555069830
    Total Energy =                       -383.9243755506979596
  Basis Set: 6-31G*
  Basis Set:
  Basis Set: 6-31G*
  Basis Set:
  @DF-RHF Final Energy:  -383.92554752521590
    Total Energy =                       -383.9255475252157339
  Basis Set: 6-31G*
  Basis Set:
  @DF-RHF Final Energy:  -383.92560252625333
    Total Energy =                       -383.9256025262535559
  @DF-RHF Final Energy:  -383.92562065327667
    Total Energy =                       -383.9256206532767237
  Basis Set: 6-31G*
  Basis Set:
  @DF-RHF Final Energy:  -383.92562500877864
    Total Energy =                       -383.9256250087782973
  Basis Set: 6-31G*
  Basis Set:
  Basis Set: 6-31G*
  Basis Set:
  @DF-RHF Final Energy:  -383.92562756985785
    Total Energy =                       -383.9256275698578520
  Basis Set: 6-31G*
  Basis Set:
  Basis Set: 6-31G*
  Basis Set:
  @DF-RHF Final Energy:  -383.92562981842593
    Total Energy =                       -383.9256298184260459
  Basis Set: 6-31G*
  Basis Set:
  Charge       = 0
  Multiplicity = 1
  Basis Set: 6-31G*
  Basis Set:

    Orbital Energies (a.u.)
    -----------------------

    Doubly Occupied:

       1A    -20.585200     2A    -20.554451     3A    -11.377262
       4A    -11.295567     5A    -11.238655     6A    -11.228118
       7A    -11.217321     8A    -11.211224     9A     -1.458010
      10A     -1.367189    11A     -1.083461    12A     -1.019821
      13A     -0.991684    14A     -0.883239    15A     -0.808721
      16A     -0.779031    17A     -0.696616    18A     -0.683208
      19A     -0.651469    20A     -0.635745    21A     -0.615261
      22A     -0.590229    23A     -0.580860    24A     -0.564920
      25A     -0.542623    26A     -0.524990    27A     -0.498147
      28A     -0.484112    29A     -0.479060    30A     -0.472768
      31A     -0.448011    32A     -0.436378

  @DF-RHF Final Energy:  -383.92563077289174

   => Energetics <=

    Nuclear Repulsion Energy =            384.6605108305910790
    One-Electron Energy =               -1285.1655760038865992
    Two-Electron Energy =                 516.5794344004041250
    DFT Exchange-Correlation Energy =       0.0000000000000000
    Empirical Dispersion Energy =           0.0000000000000000
    PCM Polarization Energy =               0.0000000000000000
    EFP Energy =                            0.0000000000000000
    Total Energy =                       -383.9256307728913953
    Molecular point group: c1
  Basis Set: 6-31G*
  Basis Set:

  -Total Gradient:
     Atom            X                  Y                   Z
    ------   -----------------  -----------------  -----------------
       1        0.000315301925    -0.001035451952    -0.000750695731
       2       -0.000396972624     0.001659269933     0.000584994258
       3        0.000037081562    -0.000027638864     0.000027489331
       4       -0.000239558639    -0.001002650302     0.001087853912
       5       -0.000002007524     0.000008204645    -0.000015592559
       6       -0.000023504823    -0.000001455830     0.000002254192
       7       -0.000005380226     0.000037276708    -0.000007509189
       8        0.000347071416     0.000290754302    -0.000938876470
       9       -0.000034248582     0.000051359485     0.000043386251
      10       -0.000046208422     0.000035757784     0.000007744720
      11        0.000017538444     0.000009384581    -0.000025074757
      12        0.000010335014    -0.000031567197    -0.000016712219
      13       -0.000001639395     0.000007201855    -0.000013000980
      14        0.000021169694    -0.000000084488     0.000011812751
      15       -0.000005960680     0.000005649451     0.000009560101
      16       -0.000001206030    -0.000000236688    -0.000005551127
      17        0.000007115626    -0.000007155141    -0.000001783329
      18       -0.000002790392     0.000006249194     0.000002934787
      19       -0.000000081583     0.000002988391    -0.000006975713
      20        0.000003945243    -0.000007855868     0.000003741771

  **** Optimization is complete! (in 10 steps) ****
    Final optimized geometry and variables:
    Molecular point group: c1

    Geometry (in Angstrom), charge = 0, multiplicity = 1:

    O           -2.252731063973     0.805176325310    -0.961078971531
    C           -1.899248870899     0.156021340766    -0.039808244124
    C           -2.823234683401    -0.700626226973     0.789341631353
    O           -0.614678131352     0.173075309233     0.373421883816
    H           -2.715894294323    -0.446651822565     1.837649798362
    H           -3.843370492424    -0.546984998902     0.470294332637
    H           -2.571272145267    -1.750032167045     0.677993263560
    C            0.181107291134    -0.985461887638     0.170627808719
    C            1.629278087920    -0.621204178092     0.441863387982
    H            0.057262368688    -1.330172848110    -0.851357524866
    H           -0.141190516011    -1.775311205166     0.841657828185
    C            2.198072414023     0.406418372749    -0.537510348779
    H            2.214392594859    -1.537785664396     0.398041841185
    H            1.704351537151    -0.247643763058     1.459466842633
    C            3.654115345803     0.757548407865    -0.234841017578
    H            2.123203799582     0.015147922448    -1.549998503308
    H            1.589393897246     1.302888902352    -0.507233139884
    H            4.034496270727     1.486359626846    -0.943274826241
    H            4.292625849859    -0.120109902831    -0.288381626642
    H            3.756722889020     1.180394207153     0.760548167665

  Mulliken Charges: (a.u.)
   Center  Symbol    Alpha    Beta     Spin     Total
       1     O     4.24801  4.24801  0.00000 -0.49602
       2     C     2.62580  2.62580  0.00000  0.74841
       3     C     3.29467  3.29467  0.00000 -0.58933
       4     O     4.31580  4.31580  0.00000 -0.63159
       5     H     0.39938  0.39938  0.00000  0.20123
       6     H     0.39396  0.39396  0.00000  0.21208
       7     H     0.40535  0.40535  0.00000  0.18930
       8     C     3.00350  3.00350  0.00000 -0.00700
       9     C     3.16176  3.16176  0.00000 -0.32351
      10     H     0.41626  0.41626  0.00000  0.16748
      11     H     0.42012  0.42012  0.00000  0.15976
      12     C     3.15579  3.15579  0.00000 -0.31159
      13     H     0.41988  0.41988  0.00000  0.16023
      14     H     0.41253  0.41253  0.00000  0.17494
      15     C     3.24101  3.24101  0.00000 -0.48202
      16     H     0.42280  0.42280  0.00000  0.15440
      17     H     0.40314  0.40314  0.00000  0.19372
      18     H     0.41642  0.41642  0.00000  0.16716
      19     H     0.42325  0.42325  0.00000  0.15349
      20     H     0.42057  0.42057  0.00000  0.15885

   Total alpha = 32.00000, Total beta = 32.00000, Total charge =  0.00000
