                              Psi4 1.0.54 Driver

  ==> Input File <==

--------------------------------------------------------------------------
set {
	reference rhf
	basis cc-pvtz
}

set_num_threads( 4 )
memory 2 gb

molecule MOL {
0 1

H	 2.828711	 -0.346904	 0.001083
C	 1.876752	 0.015931	 -0.363450
C	 0.776285	 -0.474665	 0.563092
H	 1.728113	 -0.357244	 -1.367440
H	 1.906171	 1.096574	 -0.386153
N	 -0.540022	 0.017605	 0.071630
H	 0.707111	 -1.548969	 0.573035
H	 0.886169	 -0.084184	 1.560432
O	 -0.550159	 1.049932	 -0.510086
O	 -1.492347	 -0.642375	 0.320428

	symmetry c1
}
set optking {
	frozen_dihedral = ("
		9 6 3 2
	")
}

ee,wfn = optimize('scf', return_wfn=True)
oeprop( wfn, 'DIPOLE', 'QUADRUPOLE', 'MULLIKEN_CHARGES')
f=open( 'psi4out.xyz', 'w' )
f.write( "10  " )
f.write( str(ee) + "\n" )
f.write( MOL.save_string_xyz() )
f.close()
--------------------------------------------------------------------------

    Molecular point group: c1
  Charge       = 0
  Multiplicity = 1
  Basis Set: CC-PVTZ
  Basis Set:
  @DF-RHF Final Energy:  -282.81184566109158
    Total Energy =                       -282.8118456610917519
    Molecular point group: c1
  Basis Set: CC-PVTZ
  Basis Set:
  Basis Set: CC-PVTZ
  Basis Set:
  @DF-RHF Final Energy:  -282.79339218574194
    Total Energy =                       -282.7933921857419932
  Basis Set: CC-PVTZ
  Basis Set:
  Basis Set: CC-PVTZ
  Basis Set:
  @DF-RHF Final Energy:  -282.81252210248499
    Total Energy =                       -282.8125221024851044
  Basis Set: CC-PVTZ
  Basis Set:
  Basis Set: CC-PVTZ
  Basis Set:
  @DF-RHF Final Energy:  -282.80730271852394
    Total Energy =                       -282.8073027185239994
  Basis Set: CC-PVTZ
  Basis Set:
  @DF-RHF Final Energy:  -282.81201312300038
    Total Energy =                       -282.8120131230003835
  Basis Set: CC-PVTZ
  Basis Set:
  @DF-RHF Final Energy:  -282.81295663132857
    Total Energy =                       -282.8129566313284613
  Basis Set: CC-PVTZ
  Basis Set:
  Basis Set: CC-PVTZ
  Basis Set:
  @DF-RHF Final Energy:  -282.81296174057729
    Total Energy =                       -282.8129617405772933
  Basis Set: CC-PVTZ
  Basis Set:
  Basis Set: CC-PVTZ
  Basis Set:
  @DF-RHF Final Energy:  -282.81296579571426
    Total Energy =                       -282.8129657957143763
  Basis Set: CC-PVTZ
  Basis Set:
  Charge       = 0
  Multiplicity = 1
  Basis Set: CC-PVTZ
  Basis Set:

    Orbital Energies (a.u.)
    -----------------------

    Doubly Occupied:

       1A    -20.592976     2A    -20.591227     3A    -15.839420
       4A    -11.303011     5A    -11.244765     6A     -1.638520
       7A     -1.422752     8A     -1.124295     9A     -0.966982
      10A     -0.835899    11A     -0.764342    12A     -0.748928
      13A     -0.732004    14A     -0.644196    15A     -0.593136
      16A     -0.564059    17A     -0.539345    18A     -0.489940
      19A     -0.479701    20A     -0.455831

  @DF-RHF Final Energy:  -282.81296629463446

   => Energetics <=

    Nuclear Repulsion Energy =            186.5716410464627870
    One-Electron Energy =                -755.6265545208535741
    Two-Electron Energy =                 286.2419471797562665
    DFT Exchange-Correlation Energy =       0.0000000000000000
    Empirical Dispersion Energy =           0.0000000000000000
    PCM Polarization Energy =               0.0000000000000000
    EFP Energy =                            0.0000000000000000
    Total Energy =                       -282.8129662946345206
    Molecular point group: c1
  Basis Set: CC-PVTZ
  Basis Set:

  -Total Gradient:
     Atom            X                  Y                   Z
    ------   -----------------  -----------------  -----------------
       1        0.000002214657    -0.000004710058     0.000008486798
       2       -0.000001947312     0.000132144749     0.000057954126
       3        0.000010644396    -0.000218077427    -0.000141081617
       4        0.000004991957    -0.000001595599    -0.000008616628
       5        0.000001880160     0.000000942686    -0.000002554839
       6       -0.000057847452     0.000206451492     0.000198192945
       7       -0.000005158003    -0.000005890022     0.000002207742
       8       -0.000005747901     0.000006206592     0.000006114629
       9        0.000038902642    -0.000125217014    -0.000122879391
      10        0.000012066853     0.000009744602     0.000002176234

  **** Optimization is complete! (in 9 steps) ****
    Final optimized geometry and variables:
    Molecular point group: c1

    Geometry (in Angstrom), charge = 0, multiplicity = 1:

    H            2.734127379075    -0.519411664900     0.728442180035
    C            1.952842763915    -0.095591102940     0.109715965571
    C            0.616032121250    -0.463482993935     0.714637780796
    H            2.053420155897    -0.498094648123    -0.889395872052
    H            2.084648766533     0.974127988077     0.065490038364
    N           -0.542295598189     0.049430994344    -0.077403375177
    H            0.459005846274    -1.525962808458     0.785615616478
    H            0.481395789677    -0.027877036626     1.695036797132
    O           -0.398271375115     1.052628815997    -0.689595297181
    O           -1.546498305425    -0.575826036776    -0.011390795634

  Mulliken Charges: (a.u.)
   Center  Symbol    Alpha    Beta     Spin     Total
       1     H     0.44933  0.44933  0.00000  0.10135
       2     C     3.13986  3.13986  0.00000 -0.27971
       3     C     3.04181  3.04181  0.00000 -0.08362
       4     H     0.44483  0.44483  0.00000  0.11034
       5     H     0.43746  0.43746  0.00000  0.12507
       6     N     3.27687  3.27687  0.00000  0.44625
       7     H     0.43129  0.43129  0.00000  0.13742
       8     H     0.43620  0.43620  0.00000  0.12761
       9     O     4.17107  4.17107  0.00000 -0.34213
      10     O     4.17128  4.17128  0.00000 -0.34257

   Total alpha = 20.00000, Total beta = 20.00000, Total charge =  0.00000

*** Psi4 exiting successfully. Buy a developer a beer!
