  ==> Input File <==

--------------------------------------------------------------------------
set {
	reference rhf
	basis 6-31G*
}

set_num_threads( 4 )
memory 2 gb

molecule MOL {
0 1

O	 0.391030	 1.298905	 0.000133
C	 0.503002	 0.111612	 0.000005
C	 -0.702327	 -0.811998	 -0.000075
C	 1.863306	 -0.554493	 0.000030
C	 -1.769049	 -0.423662	 -1.016663
H	 -0.346820	 -1.824906	 -0.180086
H	 -1.114068	 -0.823751	 1.007445
H	 -1.368595	 -0.435248	 -2.023004
H	 -2.603315	 -1.115952	 -0.972034
H	 -2.142646	 0.574781	 -0.824944
H	 1.974395	 -1.189404	 -0.874166
H	 2.638695	 0.198920	 -0.000196
H	 1.974487	 -1.188655	 0.874727

	symmetry c1
}
set optking {
	frozen_dihedral = ("
		6 3 2 1
	")
}

ee = optimize('scf')
oeprop('DIPOLE', 'QUADRUPOLE', 'MULLIKEN_CHARGES')
f=open( 'psi4out.xyz', 'w' )
f.write( "13  " )
f.write( str(ee) + "\n" )
f.write( MOL.save_string_xyz() )
f.close()
--------------------------------------------------------------------------

    Molecular point group: c1
  Charge       = 0
  Multiplicity = 1
  Basis Set: 6-31G*
  Basis Set:
  @DF-RHF Final Energy:  -230.99547991268528
    Total Energy =                       -230.9954799126854823
    Molecular point group: c1
  Basis Set: 6-31G*
  Basis Set:
  Basis Set: 6-31G*
  Basis Set:
  @DF-RHF Final Energy:  -230.99528130517484
    Total Energy =                       -230.9952813051748421
  Basis Set: 6-31G*
  Basis Set:
  Basis Set: 6-31G*
  Basis Set:
  @DF-RHF Final Energy:  -230.99522745314314
    Total Energy =                       -230.9952274531432863
  Basis Set: 6-31G*
  Basis Set:
  Basis Set: 6-31G*
  Basis Set:
  @DF-RHF Final Energy:  -230.99604376664027
    Total Energy =                       -230.9960437666402413
  Basis Set: 6-31G*
  Basis Set:
  Basis Set: 6-31G*
  Basis Set:
  @DF-RHF Final Energy:  -230.99604764308708
    Total Energy =                       -230.9960476430871665
  Basis Set: 6-31G*
  Basis Set:
  Charge       = 0
  Multiplicity = 1
  Basis Set: 6-31G*
  Basis Set:

    Orbital Energies (a.u.)
    -----------------------

    Doubly Occupied:

       1A    -20.549379     2A    -11.326820     3A    -11.233937
       4A    -11.229563     5A    -11.219262     6A     -1.395507
       7A     -1.061363     8A     -1.000536     9A     -0.879380
      10A     -0.731272    11A     -0.657419    12A     -0.642318
      13A     -0.613546    14A     -0.587015    15A     -0.571386
      16A     -0.529869    17A     -0.520992    18A     -0.503740
      19A     -0.479374    20A     -0.400870

  @DF-RHF Final Energy:  -230.99604810730699

   => Energetics <=

    Nuclear Repulsion Energy =            176.7922106525787171
    One-Electron Energy =                -663.3094220207053695
    Two-Electron Energy =                 255.5211632608198045
    DFT Exchange-Correlation Energy =       0.0000000000000000
    Empirical Dispersion Energy =           0.0000000000000000
    PCM Polarization Energy =               0.0000000000000000
    EFP Energy =                            0.0000000000000000
    Total Energy =                       -230.9960481073068479
    Molecular point group: c1
  Basis Set: 6-31G*
  Basis Set:

  -Total Gradient:
     Atom            X                  Y                   Z
    ------   -----------------  -----------------  -----------------
       1        0.000005035336     0.000010092668     0.001572286682
       2        0.000037630623    -0.000082182880    -0.001767667365
       3       -0.000220349511     0.000267375645    -0.001327559136
       4       -0.000002838093    -0.000000113653    -0.000089611678
       5        0.000001196171     0.000011751800    -0.000014432700
       6        0.000182858080    -0.000201811368     0.001562630877
       7        0.000006392740     0.000001393480     0.000000316530
       8        0.000000084459     0.000001262706     0.000008329343
       9       -0.000003167526    -0.000007915975     0.000002427746
      10        0.000006053401    -0.000004474918     0.000000521269
      11        0.000003989745    -0.000005131831     0.000024918737
      12       -0.000003099466     0.000002031891     0.000008845436
      13       -0.000013785959     0.000007722432     0.000018994258

  **** Optimization is complete! (in 6 steps) ****
    Final optimized geometry and variables:
    Molecular point group: c1

    Geometry (in Angstrom), charge = 0, multiplicity = 1:

    O            0.310817044447     1.358650770092     0.187890121248
    C            0.454381339300     0.174279935478     0.194736945032
    C           -0.746494606983    -0.760296279129     0.203049079833
    C            1.826331698642    -0.459101635245     0.235482523478
    C           -1.830525794367    -0.338114756452    -0.788270688095
    H           -0.430075870030    -1.784352079100     0.031878647105
    H           -1.146109417553    -0.730889071369     1.215051686913
    H           -1.470773511084    -0.396168420020    -1.810704442097
    H           -2.697580567671    -0.984016632419    -0.701943461971
    H           -2.138633753248     0.681632710717    -0.598907341506
    H            1.985955675791    -1.054792995775    -0.659265077559
    H            2.586272084711     0.306840310246     0.301978343957
    H            1.906134323146    -1.131112282741     1.085542996064

  Mulliken Charges: (a.u.)
   Center  Symbol    Alpha    Beta     Spin     Total
       1     O     4.26256  4.26256  0.00000 -0.52512
       2     C     2.73605  2.73605  0.00000  0.52791
       3     C     3.20432  3.20432  0.00000 -0.40865
       4     C     3.28881  3.28881  0.00000 -0.57762
       5     C     3.24174  3.24174  0.00000 -0.48348
       6     H     0.41504  0.41504  0.00000  0.16991
       7     H     0.40238  0.40238  0.00000  0.19524
       8     H     0.41799  0.41799  0.00000  0.16402
       9     H     0.41673  0.41673  0.00000  0.16653
      10     H     0.40124  0.40124  0.00000  0.19752
      11     H     0.40764  0.40764  0.00000  0.18473
      12     H     0.39690  0.39690  0.00000  0.20620
      13     H     0.40860  0.40860  0.00000  0.18281

   Total alpha = 20.00000, Total beta = 20.00000, Total charge = -0.00000
