  ==> Input File <==

--------------------------------------------------------------------------
set {
	reference rhf
	basis 6-31G*
}

set_num_threads( 1 )
memory 2 gb

molecule MOL {
0 1

O	 3.630739	 0.955172	 1.206909
C	 2.917432	 0.049223	 0.917933
C	 1.433638	 -0.023039	 1.186117
O	 3.347903	 -1.046386	 0.304773
C	 0.888193	 1.222860	 1.880625
H	 0.946515	 -0.204009	 0.233672
H	 1.256428	 -0.913408	 1.784061
C	 -0.594660	 1.121962	 2.254071
H	 1.049171	 2.087734	 1.244074
H	 1.469441	 1.400269	 2.779011
C	 -1.556703	 1.055577	 1.064459
H	 -0.849421	 1.989187	 2.858837
H	 -0.749456	 0.253393	 2.892535
C	 -3.027157	 1.067039	 1.487107
H	 -1.366232	 1.899310	 0.402904
H	 -1.366822	 0.159085	 0.478610
C	 -3.997652	 0.995775	 0.306771
H	 -3.228882	 1.968537	 2.063166
H	 -3.215763	 0.229736	 2.157219
C	 -5.464007	 1.011564	 0.737184
H	 -3.809886	 1.831201	 -0.364384
H	 -3.800445	 0.093110	 -0.267760
H	 -6.126877	 0.959934	 -0.121037
H	 -5.702088	 1.919150	 1.284724
H	 -5.692313	 0.167987	 1.382574
C	 4.728119	 -1.109107	 -0.004993
H	 4.882018	 -1.033965	 -1.071845
H	 5.068212	 -2.067527	 0.355250
H	 5.265056	 -0.311663	 0.488280

	symmetry c1
}
set optking {
	frozen_dihedral = ("
		21 17 14 11,
		17 14 11 15,
		15 11 8 5,
		6 3 5 9,
		11 8 5 9,
		1 2 4 26,
		6 3 2 1
	")
}

ee = energy('scf')
oeprop('DIPOLE', 'QUADRUPOLE', 'MULLIKEN_CHARGES')
f=open( 'psi4out.xyz', 'w' )
f.write( "29  " )
f.write( str(ee) + "\n" )
f.write( MOL.save_string_xyz() )
f.close()
--------------------------------------------------------------------------

    Molecular point group: c1

    Geometry (in Angstrom), charge = 0, multiplicity = 1:

       Center              X                  Y                   Z               Mass
    ------------   -----------------  -----------------  -----------------  -----------------
           O          3.381243464299     0.488766942770     0.189675709461    15.994914619560
           C          2.667936464299    -0.417182057230    -0.099300290539    12.000000000000
           C          1.184142464299    -0.489444057230     0.168883709461    12.000000000000
           O          3.098407464299    -1.512791057230    -0.712460290539    15.994914619560
           C          0.638697464299     0.756454942770     0.863391709461    12.000000000000
           H          0.697019464299    -0.670414057230    -0.783561290539     1.007825032070
           H          1.006932464299    -1.379813057230     0.766827709461     1.007825032070
           C         -0.844155535701     0.655556942770     1.236837709461    12.000000000000
           H          0.799675464299     1.621328942770     0.226840709461     1.007825032070
           H          1.219945464299     0.933863942770     1.761777709461     1.007825032070
           C         -1.806198535701     0.589171942770     0.047225709461    12.000000000000
           H         -1.098916535701     1.522781942770     1.841603709461     1.007825032070
           H         -0.998951535701    -0.213012057230     1.875301709461     1.007825032070
           C         -3.276652535701     0.600633942770     0.469873709461    12.000000000000
           H         -1.615727535701     1.432904942770    -0.614329290539     1.007825032070
           H         -1.616317535701    -0.307320057230    -0.538623290539     1.007825032070
           C         -4.247147535701     0.529369942770    -0.710462290539    12.000000000000
           H         -3.478377535701     1.502131942770     1.045932709461     1.007825032070
           H         -3.465258535701    -0.236669057230     1.139985709461     1.007825032070
           C         -5.713502535701     0.545158942770    -0.280049290539    12.000000000000
           H         -4.059381535701     1.364795942770    -1.381617290539     1.007825032070
           H         -4.049940535701    -0.373295057230    -1.284993290539     1.007825032070
           H         -6.376372535701     0.493528942770    -1.138270290539     1.007825032070
           H         -5.951583535701     1.452744942770     0.267490709461     1.007825032070
           H         -5.941808535701    -0.298418057230     0.365340709461     1.007825032070
           C          4.478623464299    -1.575512057230    -1.022226290539    12.000000000000
           H          4.632522464299    -1.500370057230    -2.089078290539     1.007825032070
           H          4.818716464299    -2.533932057230    -0.661983290539     1.007825032070
           H          5.015560464299    -0.778068057230    -0.528953290539     1.007825032070

  Charge       = 0
  Multiplicity = 1
  Basis Set: 6-31G*
  Basis Set:

    Orbital Energies (a.u.)
    -----------------------

    Doubly Occupied:

       1A    -20.603193     2A    -20.544425     3A    -11.373253
       4A    -11.276014     5A    -11.235224     6A    -11.219294
       7A    -11.217787     8A    -11.216100     9A    -11.215912
      10A    -11.214530    11A    -11.209105    12A     -1.469428
      13A     -1.362725    14A     -1.098273    15A     -1.067015
      16A     -1.019547    17A     -0.976596    18A     -0.928206
      19A     -0.861566    20A     -0.799223    21A     -0.790475
      22A     -0.763341    23A     -0.703656    24A     -0.681241
      25A     -0.672592    26A     -0.651108    27A     -0.629299
      28A     -0.604313    29A     -0.594499    30A     -0.578977
      31A     -0.568759    32A     -0.550070    33A     -0.534207
      34A     -0.525363    35A     -0.514766    36A     -0.512821
      37A     -0.496924    38A     -0.477997    39A     -0.470295
      40A     -0.462421    41A     -0.458835    42A     -0.453264
      43A     -0.441138    44A     -0.436105

  @DF-RHF Final Energy:  -501.04134211408075

   => Energetics <=

    Nuclear Repulsion Energy =            610.3131827607113564
    One-Electron Energy =               -1891.7492736629642422
    Two-Electron Energy =                 780.3947487881702045
    DFT Exchange-Correlation Energy =       0.0000000000000000
    Empirical Dispersion Energy =           0.0000000000000000
    PCM Polarization Energy =               0.0000000000000000
    EFP Energy =                            0.0000000000000000
    Total Energy =                       -501.0413421140827950

  Mulliken Charges: (a.u.)
   Center  Symbol    Alpha    Beta     Spin     Total
       1     O     4.28678  4.28678  0.00000 -0.57355
       2     C     2.60437  2.60437  0.00000  0.79125
       3     C     3.21060  3.21060  0.00000 -0.42120
       4     O     4.30717  4.30717  0.00000 -0.61434
       5     C     3.15384  3.15384  0.00000 -0.30768
       6     H     0.39847  0.39847  0.00000  0.20306
       7     H     0.40106  0.40106  0.00000  0.19788
       8     C     3.15663  3.15663  0.00000 -0.31326
       9     H     0.41302  0.41302  0.00000  0.17397
      10     H     0.40870  0.40870  0.00000  0.18260
      11     C     3.15509  3.15509  0.00000 -0.31019
      12     H     0.41820  0.41820  0.00000  0.16360
      13     H     0.42385  0.42385  0.00000  0.15231
      14     C     3.15030  3.15030  0.00000 -0.30059
      15     H     0.42259  0.42259  0.00000  0.15482
      16     H     0.42360  0.42360  0.00000  0.15280
      17     C     3.15147  3.15147  0.00000 -0.30293
      18     H     0.42332  0.42332  0.00000  0.15337
      19     H     0.42396  0.42396  0.00000  0.15208
      20     C     3.23936  3.23936  0.00000 -0.47871
      21     H     0.42279  0.42279  0.00000  0.15441
      22     H     0.42341  0.42341  0.00000  0.15318
      23     H     0.41921  0.41921  0.00000  0.16157
      24     H     0.42154  0.42154  0.00000  0.15691
      25     H     0.42182  0.42182  0.00000  0.15636
      26     C     3.10198  3.10198  0.00000 -0.20395
      27     H     0.41339  0.41339  0.00000  0.17322
      28     H     0.41220  0.41220  0.00000  0.17559
      29     H     0.39129  0.39129  0.00000  0.21742

   Total alpha = 44.00000, Total beta = 44.00000, Total charge =  0.00000
