                              Psi4 1.0.54 Driver

  ==> Input File <==

--------------------------------------------------------------------------
set {
	reference rhf
	basis cc-pvtz
}

set_num_threads( 4 )
memory 2 gb

molecule MOL {
0 1

H	 -3.436473	 1.252944	 -1.023892
O	 -3.458596	 0.315260	 -0.960865
C	 -3.176635	 -0.080824	 0.355601
C	 -1.763371	 0.265266	 0.799691
H	 -3.321825	 -1.153438	 0.379502
H	 -3.895468	 0.357385	 1.043382
C	 -1.194159	 1.513488	 0.131664
H	 -1.753611	 0.390501	 1.881396
H	 -1.124485	 -0.588765	 0.587927
C	 0.211133	 1.864943	 0.612918
H	 -1.860199	 2.350201	 0.311148
H	 -1.178788	 1.362220	 -0.945085
C	 0.776967	 3.112231	 -0.063212
H	 0.190135	 2.003994	 1.689539
H	 0.877237	 1.025004	 0.426733
C	 2.214763	 3.459628	 0.326538
H	 0.132685	 3.961101	 0.153977
H	 0.737205	 2.971105	 -1.139838
C	 2.398205	 3.876073	 1.783956
H	 2.556835	 4.268924	 -0.311272
H	 2.859538	 2.611680	 0.110508
H	 1.760754	 4.719146	 2.030861
H	 3.423741	 4.172424	 1.972880
H	 2.161506	 3.070972	 2.469078

	symmetry c1
}
set optking {
	frozen_dihedral = ("
		7 4 3 2
	")
}

ee,wfn = optimize('scf', return_wfn=True)
oeprop( wfn, 'DIPOLE', 'QUADRUPOLE', 'MULLIKEN_CHARGES')
f=open( 'psi4out.xyz', 'w' )
f.write( "24  " )
f.write( str(ee) + "\n" )
f.write( MOL.save_string_xyz() )
f.close()
--------------------------------------------------------------------------

    Molecular point group: c1
  Charge       = 0
  Multiplicity = 1
  Basis Set: CC-PVTZ
  Basis Set:
  @DF-RHF Final Energy:  -349.37464726754285
    Total Energy =                       -349.3746472675429118
    Molecular point group: c1
  Basis Set: CC-PVTZ
  Basis Set:
  Basis Set: CC-PVTZ
  Basis Set:
  @DF-RHF Final Energy:  -349.37512022574833
    Total Energy =                       -349.3751202257484465
  Basis Set: CC-PVTZ
  Basis Set:
  Basis Set: CC-PVTZ
  Basis Set:
  @DF-RHF Final Energy:  -349.37546415499287
    Total Energy =                       -349.3754641549929829
  Basis Set: CC-PVTZ
  Basis Set:
  Basis Set: CC-PVTZ
  Basis Set:
  @DF-RHF Final Energy:  -349.37546965643952
    Total Energy =                       -349.3754696564390656
  Basis Set: CC-PVTZ
  Basis Set:
  Charge       = 0
  Multiplicity = 1
  Basis Set: CC-PVTZ
  Basis Set:

    Orbital Energies (a.u.)
    -----------------------

    Doubly Occupied:

       1A    -20.545129     2A    -11.265735     3A    -11.215857
       4A    -11.214151     5A    -11.214097     6A    -11.213168
       7A    -11.212311     8A    -11.206953     9A     -1.363714
      10A     -1.092175    11A     -1.049242    12A     -0.987067
      13A     -0.920408    14A     -0.854654    15A     -0.794554
      16A     -0.779656    17A     -0.695734    18A     -0.650523
      19A     -0.626687    20A     -0.609697    21A     -0.608041
      22A     -0.589270    23A     -0.561932    24A     -0.541308
      25A     -0.521300    26A     -0.513569    27A     -0.492882
      28A     -0.485497    29A     -0.468853    30A     -0.461903
      31A     -0.455897    32A     -0.445482    33A     -0.423936

  @DF-RHF Final Energy:  -349.37547058549274

   => Energetics <=

    Nuclear Repulsion Energy =            385.7383480678455498
    One-Electron Energy =               -1238.0648669302511280
    Two-Electron Energy =                 502.9510482769128430
    DFT Exchange-Correlation Energy =       0.0000000000000000
    Empirical Dispersion Energy =           0.0000000000000000
    PCM Polarization Energy =               0.0000000000000000
    EFP Energy =                            0.0000000000000000
    Total Energy =                       -349.3754705854927352
    Molecular point group: c1
  Basis Set: CC-PVTZ
  Basis Set:

  -Total Gradient:
     Atom            X                  Y                   Z
    ------   -----------------  -----------------  -----------------
       1        0.000012301324     0.000008080533     0.000021582922
       2       -0.001631043547     0.004213899277     0.001695488165
       3        0.002978438313    -0.006941250183    -0.003719648983
       4       -0.003014611915     0.005192569349     0.005390851552
       5       -0.000033442119     0.000009066852    -0.000066307795
       6       -0.000011798143    -0.000005588682    -0.000022989354
       7        0.001634022131    -0.002523938574    -0.003287712063
       8        0.000035236611     0.000025155467    -0.000002127621
       9        0.000001978631    -0.000003198626    -0.000002588345
      10        0.000011571617     0.000047106724     0.000026215582
      11        0.000029565778    -0.000009765683    -0.000002798145
      12       -0.000040257876    -0.000010001467    -0.000008819359
      13        0.000024538327    -0.000009971308    -0.000007306195
      14       -0.000005959557     0.000000619942    -0.000005179215
      15       -0.000005247902     0.000005965508     0.000001246730
      16        0.000005465529     0.000004788431    -0.000014107035
      17        0.000001597770    -0.000010384425     0.000006628549
      18       -0.000003373119     0.000006716873    -0.000008403794
      19       -0.000000903771    -0.000004230597     0.000003248661
      20        0.000002968985     0.000000435644    -0.000000667751
      21        0.000005817555     0.000001041493     0.000000960139
      22        0.000001545578     0.000000286072    -0.000001001702
      23        0.000000003597    -0.000001620643     0.000000244101
      24        0.000001586208     0.000004218027     0.000003190962

  **** Optimization is complete! (in 5 steps) ****
    Final optimized geometry and variables:
    Molecular point group: c1

    Geometry (in Angstrom), charge = 0, multiplicity = 1:

    H           -3.028251960809    -0.544455988952    -1.398221967804
    O           -2.964734046838    -1.479491887461    -1.344120467637
    C           -2.636763703642    -1.863697207499    -0.035993891890
    C           -1.210607774014    -1.497175824309     0.403267585721
    H           -2.773522486777    -2.934576792969     0.008166646940
    H           -3.351193379442    -1.423416000299     0.656206028680
    C           -0.635599082210    -0.241548121991    -0.248278252914
    H           -1.201637801444    -1.395755760432     1.484247544247
    H           -0.545387364461    -2.323469510976     0.168977187334
    C            0.761876796447     0.101571294668     0.262334896227
    H           -1.292657393319     0.608591194292    -0.065483653610
    H           -0.601519872937    -0.382200365109    -1.322079645664
    C            1.351024489931     1.343400594082    -0.403965724997
    H            0.722105887266     0.239895873906     1.338091875492
    H            1.422131848368    -0.744662106275     0.086867268246
    C            2.786209415496     1.674855244724     0.008861529064
    H            0.713392918645     2.199873573944    -0.195778917351
    H            1.326780817050     1.203176902309    -1.481132875063
    C            2.951527757281     2.085689075223     1.470034657997
    H            3.146368193682     2.481978588185    -0.621632349556
    H            3.425031065848     0.820698846174    -0.199693632883
    H            2.318594863505     2.934241427790     1.709841357484
    H            3.976829380071     2.371786245295     1.674966889447
    H            2.697171322129     1.281125585594     2.149377614707

  Mulliken Charges: (a.u.)
   Center  Symbol    Alpha    Beta     Spin     Total
       1     H     0.38985  0.38985  0.00000  0.22031
       2     O     4.20438  4.20438  0.00000 -0.40875
       3     C     2.97730  2.97730  0.00000  0.04539
       4     C     3.09502  3.09502  0.00000 -0.19005
       5     H     0.45156  0.45156  0.00000  0.09688
       6     H     0.46950  0.46950  0.00000  0.06100
       7     C     3.10037  3.10037  0.00000 -0.20075
       8     H     0.45429  0.45429  0.00000  0.09142
       9     H     0.45435  0.45435  0.00000  0.09130
      10     C     3.09460  3.09460  0.00000 -0.18920
      11     H     0.46001  0.46001  0.00000  0.07998
      12     H     0.44233  0.44233  0.00000  0.11534
      13     C     3.09461  3.09461  0.00000 -0.18923
      14     H     0.45302  0.45302  0.00000  0.09396
      15     H     0.45339  0.45339  0.00000  0.09321
      16     C     3.09060  3.09060  0.00000 -0.18120
      17     H     0.45492  0.45492  0.00000  0.09016
      18     H     0.44938  0.44938  0.00000  0.10123
      19     C     3.15252  3.15252  0.00000 -0.30504
      20     H     0.44839  0.44839  0.00000  0.10321
      21     H     0.45440  0.45440  0.00000  0.09119
      22     H     0.45517  0.45517  0.00000  0.08966
      23     H     0.44623  0.44623  0.00000  0.10755
      24     H     0.45379  0.45379  0.00000  0.09243

   Total alpha = 33.00000, Total beta = 33.00000, Total charge = -0.00000

*** Psi4 exiting successfully. Buy a developer a beer!
