  ==> Input File <==

--------------------------------------------------------------------------
set {
	reference rhf
	basis cc-pvtz
}

set_num_threads( 4 )
memory 2 gb

molecule MOL {
0 1

H	 3.286109	 -0.472954	 -0.030618
C	 2.230018	 -0.281688	 -0.023353
C	 1.696132	 0.601273	 0.903295
C	 1.411342	 -0.915809	 -0.936139
H	 2.338812	 1.090226	 1.609469
C	 0.341860	 0.849442	 0.916017
H	 1.827108	 -1.598203	 -1.651648
C	 0.051436	 -0.665552	 -0.922126
H	 -0.089488	 1.528388	 1.624273
C	 -0.486398	 0.214248	 0.000000
H	 -0.591543	 -1.155608	 -1.629656
C	 -1.946525	 0.470130	 0.000000
O	 -2.779618	 -0.371226	 0.000000
H	 -2.227127	 1.528393	 0.000000

	symmetry c1
}
set optking {
	frozen_dihedral = ("
		8 10 12 14
	")
}

ee = optimize('scf')
oeprop('DIPOLE', 'QUADRUPOLE', 'MULLIKEN_CHARGES')
f=open( 'psi4out.xyz', 'w' )
f.write( "14  " )
f.write( str(ee) + "\n" )
f.write( MOL.save_string_xyz() )
f.close()
--------------------------------------------------------------------------

    Molecular point group: c1
  Charge       = 0
  Multiplicity = 1
  Basis Set: CC-PVTZ
  Basis Set:
  @DF-RHF Final Energy:  -343.54239964706579
    Total Energy =                       -343.5423996470659631
    Molecular point group: c1
  Basis Set: CC-PVTZ
  Basis Set:
  Basis Set: CC-PVTZ
  Basis Set:
  @DF-RHF Final Energy:  -343.54061332158301
    Total Energy =                       -343.5406133215830096
  Basis Set: CC-PVTZ
  Basis Set:
  Basis Set: CC-PVTZ
  Basis Set:
  @DF-RHF Final Energy:  -343.54321605597863
    Total Energy =                       -343.5432160559788031
  Basis Set: CC-PVTZ
  Basis Set:
  Basis Set: CC-PVTZ
  Basis Set:
  @DF-RHF Final Energy:  -343.54336281435002
    Total Energy =                       -343.5433628143500755
  Basis Set: CC-PVTZ
  Basis Set:
  Basis Set: CC-PVTZ
  Basis Set:
  @DF-RHF Final Energy:  -343.54336534667857
    Total Energy =                       -343.5433653466786836
  Basis Set: CC-PVTZ
  Basis Set:
  Charge       = 0
  Multiplicity = 1
  Basis Set: CC-PVTZ
  Basis Set:

    Orbital Energies (a.u.)
    -----------------------

    Doubly Occupied:

       1A    -20.558102     2A    -11.329704     3A    -11.249712
       4A    -11.248322     5A    -11.246091     6A    -11.245875
       7A    -11.243285     8A    -11.241912     9A     -1.413117
      10A     -1.176090    11A     -1.050587    12A     -1.034891
      13A     -0.891519    14A     -0.846781    15A     -0.796284
      16A     -0.725723    17A     -0.681711    18A     -0.657429
      19A     -0.635015    20A     -0.621727    21A     -0.605535
      22A     -0.549500    23A     -0.531168    24A     -0.512915
      25A     -0.507870    26A     -0.426360    27A     -0.353544
      28A     -0.352352

  @DF-RHF Final Energy:  -343.54336610145469

   => Energetics <=

    Nuclear Repulsion Energy =            323.5384496918538844
    One-Electron Energy =               -1106.6973923678210667
    Two-Electron Energy =                 439.6155765745124882
    DFT Exchange-Correlation Energy =       0.0000000000000000
    Empirical Dispersion Energy =           0.0000000000000000
    PCM Polarization Energy =               0.0000000000000000
    EFP Energy =                            0.0000000000000000
    Total Energy =                       -343.5433661014546942
    Molecular point group: c1
  Basis Set: CC-PVTZ
  Basis Set:

  -Total Gradient:
     Atom            X                  Y                   Z
    ------   -----------------  -----------------  -----------------
       1        0.000004332820     0.000012637960     0.000001764226
       2       -0.000029394819    -0.000114872758    -0.000107514754
       3       -0.000132569196     0.000056748989     0.000069398072
       4        0.000167848259     0.000049822115     0.000055027767
       5        0.000008816648    -0.000005500556    -0.000010733482
       6        0.000156827739     0.000021684786     0.000055036395
       7       -0.000007972761    -0.000004118226     0.000002398175
       8        0.000821563752     0.004464123912    -0.003407369588
       9       -0.000008162500    -0.000008935140    -0.000005110177
      10       -0.001396843445    -0.006390812680     0.002781761661
      11        0.000001167807    -0.000002578028    -0.000003064226
      12        0.000241695852     0.001684797743     0.007484979047
      13        0.000004465787     0.000015856337     0.000002734597
      14        0.000168224048     0.000221145547    -0.006919307712

  **** Optimization is complete! (in 6 steps) ****
    Final optimized geometry and variables:
    Molecular point group: c1

    Geometry (in Angstrom), charge = 0, multiplicity = 1:

    H            3.299146181679    -0.432596720468    -0.029921661306
    C            2.240930569429    -0.255314883821    -0.008342925020
    C            1.707519697460     0.620226948109     0.919386854274
    C            1.415537188387    -0.894412414872    -0.915499396451
    H            2.348888939111     1.121216876644     1.618376475285
    C            0.347909166930     0.860912440910     0.932993102379
    H            1.832994531631    -1.561560541642    -1.644677707576
    C            0.052792958629    -0.674093666770    -0.884620996827
    H           -0.065326928016     1.561055345905     1.635660785795
    C           -0.486257282509     0.190823788443     0.053370429485
    H           -0.597199819883    -1.173280829288    -1.576274645378
    C           -1.945287642907     0.492302399970     0.032060152068
    O           -2.791518410148    -0.322908702705    -0.101127934775
    H           -2.202262370531     1.556345638835     0.061695276627

  Mulliken Charges: (a.u.)
   Center  Symbol    Alpha    Beta     Spin     Total
       1     H     0.42021  0.42021  0.00000  0.15958
       2     C     3.07731  3.07731  0.00000 -0.15462
       3     C     3.06785  3.06785  0.00000 -0.13570
       4     C     3.06692  3.06692  0.00000 -0.13385
       5     H     0.42064  0.42064  0.00000  0.15871
       6     C     3.09518  3.09518  0.00000 -0.19037
       7     H     0.42035  0.42035  0.00000  0.15929
       8     C     3.09267  3.09267  0.00000 -0.18533
       9     H     0.42361  0.42361  0.00000  0.15278
      10     C     2.95581  2.95581  0.00000  0.08839
      11     H     0.41300  0.41300  0.00000  0.17400
      12     C     2.92221  2.92221  0.00000  0.15558
      13     O     4.16560  4.16560  0.00000 -0.33119
      14     H     0.45864  0.45864  0.00000  0.08272

   Total alpha = 28.00000, Total beta = 28.00000, Total charge =  0.00000
