                              Psi4 1.0.54 Driver

  ==> Input File <==

--------------------------------------------------------------------------
set {
	reference rhf
	basis cc-pvtz
}

set_num_threads( 4 )
memory 2 gb

molecule MOL {
0 1

H	 -2.644180	 -0.653737	 1.272255
C	 -2.092774	 -0.380414	 0.391915
O	 -0.808934	 -0.154049	 0.752536
F	 -2.163230	 -1.351640	 -0.507133
F	 -2.627232	 0.691260	 -0.169301
C	 0.085006	 0.250800	 -0.215074
C	 -0.694012	 1.064944	 -1.245402
Cl	 0.857975	 -1.140886	 -0.996911
H	 0.868530	 0.873243	 0.180277
F	 0.104711	 1.493726	 -2.189441
F	 -1.219204	 2.111705	 -0.653980
F	 -1.658351	 0.377503	 -1.792874

	symmetry c1
}
set optking {
	frozen_dihedral = ("
		9 6 3 2
	")
}

ee,wfn = optimize('scf', return_wfn=True)
oeprop( wfn, 'DIPOLE', 'QUADRUPOLE', 'MULLIKEN_CHARGES')
f=open( 'psi4out.xyz', 'w' )
f.write( "12  " )
f.write( str(ee) + "\n" )
f.write( MOL.save_string_xyz() )
f.close()
--------------------------------------------------------------------------

    Molecular point group: c1
  Charge       = 0
  Multiplicity = 1
  Basis Set: CC-PVTZ
  Basis Set:
  @DF-RHF Final Energy: -1146.53688737204698
    Total Energy =                      -1146.5368873720476586
    Molecular point group: c1
  Basis Set: CC-PVTZ
  Basis Set:
  Basis Set: CC-PVTZ
  Basis Set:
  @DF-RHF Final Energy: -1146.56890654194831
    Total Energy =                      -1146.5689065419478538
  Basis Set: CC-PVTZ
  Basis Set:
  Basis Set: CC-PVTZ
  Basis Set:
  @DF-RHF Final Energy: -1146.58868193079684
    Total Energy =                      -1146.5886819307968381
  Basis Set: CC-PVTZ
  Basis Set:
  Basis Set: CC-PVTZ
  Basis Set:
  @DF-RHF Final Energy: -1146.59948697932259
    Total Energy =                      -1146.5994869793219095
  Basis Set: CC-PVTZ
  Basis Set:
  @DF-RHF Final Energy: -1146.60506456751818
    Total Energy =                      -1146.6050645675181840
  @DF-RHF Final Energy: -1146.60754382478490
    Total Energy =                      -1146.6075438247853526
  @DF-RHF Final Energy: -1146.60823963329722
    Total Energy =                      -1146.6082396332976714
  @DF-RHF Final Energy: -1146.60844129348334
    Total Energy =                      -1146.6084412934835655
  @DF-RHF Final Energy: -1146.60847787246803
    Total Energy =                      -1146.6084778724680291
  @DF-RHF Final Energy: -1146.60849148520356
    Total Energy =                      -1146.6084914852037855
  Basis Set: CC-PVTZ
  Basis Set:
  @DF-RHF Final Energy: -1146.60851079708846
    Total Energy =                      -1146.6085107970884565
  Basis Set: CC-PVTZ
  Basis Set:
  Basis Set: CC-PVTZ
  Basis Set:
  @DF-RHF Final Energy: -1146.60852894185609
    Total Energy =                      -1146.6085289418556385
  Basis Set: CC-PVTZ
  Basis Set:
  Basis Set: CC-PVTZ
  Basis Set:
  @DF-RHF Final Energy: -1146.60853133908586
    Total Energy =                      -1146.6085313390869942
  Basis Set: CC-PVTZ
  Basis Set:
  Charge       = 0
  Multiplicity = 1
  Basis Set: CC-PVTZ
  Basis Set:

    Orbital Energies (a.u.)
    -----------------------

    Doubly Occupied:

       1A   -104.855624     2A    -26.354886     3A    -26.354277
       4A    -26.353959     5A    -26.337044     6A    -26.335649
       7A    -20.637500     8A    -11.523065     9A    -11.480721
      10A    -11.403822    11A    -10.581173    12A     -8.047974
      13A     -8.045985    14A     -8.045905    15A     -1.769384
      16A     -1.718733    17A     -1.664396    18A     -1.661491
      19A     -1.639847    20A     -1.478677    21A     -1.176872
      22A     -1.048436    23A     -1.000367    24A     -0.922168
      25A     -0.865396    26A     -0.858778    27A     -0.853265
      28A     -0.833874    29A     -0.815489    30A     -0.753730
      31A     -0.737543    32A     -0.734334    33A     -0.709302
      34A     -0.701492    35A     -0.684944    36A     -0.680000
      37A     -0.668645    38A     -0.664095    39A     -0.658718
      40A     -0.642902    41A     -0.590265    42A     -0.561524
      43A     -0.523696    44A     -0.477199    45A     -0.467602

  @DF-RHF Final Energy: -1146.60853204683144

   => Energetics <=

    Nuclear Repulsion Energy =            759.4179943701720958
    One-Electron Energy =               -3102.2115548600518196
    Two-Electron Energy =                1196.1850284430481679
    DFT Exchange-Correlation Energy =       0.0000000000000000
    Empirical Dispersion Energy =           0.0000000000000000
    PCM Polarization Energy =               0.0000000000000000
    EFP Energy =                            0.0000000000000000
    Total Energy =                      -1146.6085320468316695
    Molecular point group: c1
  Basis Set: CC-PVTZ
  Basis Set:

  -Total Gradient:
     Atom            X                  Y                   Z
    ------   -----------------  -----------------  -----------------
       1       -0.000012325586    -0.000004998523    -0.000003928907
       2       -0.001542242842     0.005490677795     0.001516453594
       3        0.001746333692    -0.007702777883    -0.002556475143
       4       -0.000055888962    -0.000027124027     0.000082720399
       5        0.000092206995     0.000011822361    -0.000116067404
       6        0.003571291402    -0.002915768426     0.001786527828
       7        0.000058778469     0.000090569792     0.000015974457
       8       -0.000019344190    -0.000028354244    -0.000033518263
       9       -0.003789490225     0.005077118439    -0.000719752143
      10        0.000020966086     0.000009028521     0.000046012152
      11       -0.000020455390    -0.000030384789     0.000043476800
      12       -0.000049829403     0.000030190950    -0.000061423386

  **** Optimization is complete! (in 14 steps) ****
    Final optimized geometry and variables:
    Molecular point group: c1

    Geometry (in Angstrom), charge = 0, multiplicity = 1:

    H           -1.562263037122    -1.213393984993     2.235824364389
    C           -1.267289464334    -0.770530417524     1.301894068000
    O            0.044864274355    -0.446295905887     1.422187854300
    F           -1.470451077423    -1.624803926819     0.316079631084
    F           -2.014780721517     0.290057662209     1.061642816452
    C            0.874112325242     0.044911155526     0.434782240039
    C            0.265122949418     0.993313231679    -0.611085572041
    CL           1.736466208865    -1.273461906696    -0.382267325507
    H            1.596806954366     0.659207224102     0.941558326725
    F            1.233545898772     1.443103987655    -1.371798368904
    F           -0.267486554493     2.025857768304    -0.002946768602
    F           -0.635724013456     0.445799355008    -1.376232622524

  Mulliken Charges: (a.u.)
   Center  Symbol    Alpha    Beta     Spin     Total
       1     H     0.44665  0.44665  0.00000  0.10670
       2     C     2.74444  2.74444  0.00000  0.51113
       3     O     4.16157  4.16157  0.00000 -0.32315
       4     F     4.61383  4.61383  0.00000 -0.22766
       5     F     4.61470  4.61470  0.00000 -0.22940
       6     C     2.94190  2.94190  0.00000  0.11620
       7     C     2.68053  2.68053  0.00000  0.63894
       8    CL     8.57189  8.57189  0.00000 -0.14377
       9     H     0.41945  0.41945  0.00000  0.16110
      10     F     4.60172  4.60172  0.00000 -0.20345
      11     F     4.60477  4.60477  0.00000 -0.20954
      12     F     4.59855  4.59855  0.00000 -0.19710

   Total alpha = 45.00000, Total beta = 45.00000, Total charge =  0.00000

*** Psi4 exiting successfully. Buy a developer a beer!
