  ==> Input File <==

--------------------------------------------------------------------------
set {
	reference rhf
	basis cc-pvtz
}

set_num_threads( 4 )
memory 2 gb

molecule MOL {
0 1

H	 -2.123894	 -0.667238	 -0.609809
O	 -2.041679	 -0.058866	 0.103463
C	 -0.959304	 0.780994	 -0.094939
C	 0.354905	 0.037902	 -0.006215
H	 -0.985899	 1.279578	 -1.057596
H	 -0.969809	 1.529522	 0.682889
F	 0.871310	 -0.155142	 -1.206986
F	 1.226554	 0.732358	 0.694896
F	 0.229343	 -1.138348	 0.560037

	symmetry c1
}
set optking {
	frozen_dihedral = ("
		7 4 3 5
	")
}

ee = optimize('scf')
oeprop('DIPOLE', 'QUADRUPOLE', 'MULLIKEN_CHARGES')
f=open( 'psi4out.xyz', 'w' )
f.write( "9  " )
f.write( str(ee) + "\n" )
f.write( MOL.save_string_xyz() )
f.close()
--------------------------------------------------------------------------

    Molecular point group: c1
  Charge       = 0
  Multiplicity = 1
  Basis Set: CC-PVTZ
  Basis Set:
  @DF-RHF Final Energy:  -450.84029004235009
    Total Energy =                       -450.8402900423501478
    Molecular point group: c1
  Basis Set: CC-PVTZ
  Basis Set:
  Basis Set: CC-PVTZ
  Basis Set:
  @DF-RHF Final Energy:  -450.84064712234766
    Total Energy =                       -450.8406471223478320
  Basis Set: CC-PVTZ
  Basis Set:
  Basis Set: CC-PVTZ
  Basis Set:
  @DF-RHF Final Energy:  -450.84094758688252
    Total Energy =                       -450.8409475868825211
  Basis Set: CC-PVTZ
  Basis Set:
  Basis Set: CC-PVTZ
  Basis Set:
  @DF-RHF Final Energy:  -450.84095600500763
    Total Energy =                       -450.8409560050077403
  Basis Set: CC-PVTZ
  Basis Set:
  Basis Set: CC-PVTZ
  Basis Set:
  @DF-RHF Final Energy:  -450.84095721975376
    Total Energy =                       -450.8409572197535908
  Basis Set: CC-PVTZ
  Basis Set:
  Charge       = 0
  Multiplicity = 1
  Basis Set: CC-PVTZ
  Basis Set:

    Orbital Energies (a.u.)
    -----------------------

    Doubly Occupied:

       1A    -26.337685     2A    -26.335916     3A    -26.335209
       4A    -20.582665     5A    -11.494044     6A    -11.310259
       7A     -1.746728     8A     -1.643827     9A     -1.639951
      10A     -1.405392    11A     -1.045410    12A     -0.929375
      13A     -0.835803    14A     -0.833900    15A     -0.809930
      16A     -0.732795    17A     -0.718437    18A     -0.703547
      19A     -0.669249    20A     -0.664514    21A     -0.647022
      22A     -0.630909    23A     -0.614207    24A     -0.531246
      25A     -0.484080

  @DF-RHF Final Energy:  -450.84095744540906

   => Energetics <=

    Nuclear Repulsion Energy =            276.5566349240122577
    One-Electron Energy =               -1175.4309882053564706
    Two-Electron Energy =                 448.0333958359354369
    DFT Exchange-Correlation Energy =       0.0000000000000000
    Empirical Dispersion Energy =           0.0000000000000000
    PCM Polarization Energy =               0.0000000000000000
    EFP Energy =                            0.0000000000000000
    Total Energy =                       -450.8409574454087192
    Molecular point group: c1
  Basis Set: CC-PVTZ
  Basis Set:

  -Total Gradient:
     Atom            X                  Y                   Z
    ------   -----------------  -----------------  -----------------
       1        0.000009381302    -0.000007375142     0.000003508765
       2       -0.000009007410     0.000003354806     0.000016145974
       3        0.002690791169     0.005007537474     0.002045353101
       4       -0.002562757132    -0.004672007874    -0.000634190394
       5       -0.001770983643    -0.003369687986    -0.001655107649
       6        0.000007957257    -0.000004700821     0.000001420378
       7        0.001666717304     0.003043530886     0.000235698371
       8       -0.000022115101    -0.000014706083     0.000006225727
       9       -0.000009983748     0.000014054738    -0.000019054274

  **** Optimization is complete! (in 6 steps) ****
    Final optimized geometry and variables:
    Molecular point group: c1

    Geometry (in Angstrom), charge = 0, multiplicity = 1:

    H           -2.178937586066    -0.643987542606    -0.641070481376
    O           -2.077607422219    -0.055243823074     0.085553494152
    C           -0.979604936288     0.771949027782    -0.090883594570
    C            0.356258339886     0.027431809816    -0.004736583547
    H           -1.009116546135     1.262788281991    -1.055877311375
    H           -1.001846432773     1.510035983177     0.693981876806
    F            0.872605497460    -0.171830745483    -1.205473841367
    F            1.239220623145     0.739584715937     0.667907207006
    F            0.253319972445    -1.139088552000     0.579140415596

  Mulliken Charges: (a.u.)
   Center  Symbol    Alpha    Beta     Spin     Total
       1     H     0.38976  0.38976  0.00000  0.22047
       2     O     4.18544  4.18544  0.00000 -0.37088
       3     C     3.00357  3.00357  0.00000 -0.00713
       4     C     2.68271  2.68271  0.00000  0.63457
       5     H     0.46016  0.46016  0.00000  0.07969
       6     H     0.44661  0.44661  0.00000  0.10677
       7     F     4.61491  4.61491  0.00000 -0.22981
       8     F     4.61246  4.61246  0.00000 -0.22493
       9     F     4.60438  4.60438  0.00000 -0.20875

   Total alpha = 25.00000, Total beta = 25.00000, Total charge =  0.00000
