                              Psi4 1.0.54 Driver

  ==> Input File <==

--------------------------------------------------------------------------
set {
	reference rhf
	basis cc-pvtz
}

set_num_threads( 4 )
memory 2 gb

molecule MOL {
0 1

O	 -2.817697	 1.304178	 0.001046
C	 -2.664672	 0.129869	 0.003507
C	 -3.797908	 -0.860100	 -0.001145
O	 -1.481217	 -0.452708	 0.001092
H	 -4.408836	 -0.679689	 -0.875387
H	 -3.443486	 -1.878443	 -0.002770
H	 -4.412123	 -0.683688	 0.871605
C	 -0.332055	 0.384012	 -0.000250
C	 0.892252	 -0.506059	 -0.000295
H	 -0.360822	 1.020205	 -0.874146
H	 -0.359817	 1.021310	 0.872861
C	 2.188199	 0.299473	 -0.001416
H	 0.857046	 -1.152781	 -0.871031
H	 0.857910	 -1.151798	 0.871202
C	 3.437151	 -0.577593	 -0.000991
H	 2.209565	 0.950707	 -0.871712
H	 2.210062	 0.952234	 0.867721
C	 3.272676	 -1.851282	 0.821002
H	 4.276241	 -0.005402	 0.384471
H	 3.691262	 -0.839062	 -1.024294
H	 3.051529	 -1.622080	 1.858020
H	 4.175513	 -2.450422	 0.800441
H	 2.461792	 -2.462047	 0.438527

	symmetry c1
}
set optking {
	frozen_dihedral = ("
		19 15 12 16
	")
}

ee,wfn = optimize('scf', return_wfn=True)
oeprop( wfn, 'DIPOLE', 'QUADRUPOLE', 'MULLIKEN_CHARGES')
f=open( 'psi4out.xyz', 'w' )
f.write( "23  " )
f.write( str(ee) + "\n" )
f.write( MOL.save_string_xyz() )
f.close()
--------------------------------------------------------------------------

    Molecular point group: c1
  Charge       = 0
  Multiplicity = 1
  Basis Set: CC-PVTZ
  Basis Set:
  @DF-RHF Final Energy:  -423.12800231028257
    Total Energy =                       -423.1280023102831365
    Molecular point group: c1
  Basis Set: CC-PVTZ
  Basis Set:
  Basis Set: CC-PVTZ
  Basis Set:
  @DF-RHF Final Energy:  -423.10207884201128
    Total Energy =                       -423.1020788420114513
  Basis Set: CC-PVTZ
  Basis Set:
  Basis Set: CC-PVTZ
  Basis Set:
  @DF-RHF Final Energy:  -423.12920902866438
    Total Energy =                       -423.1292090286642633
  Basis Set: CC-PVTZ
  Basis Set:
  Basis Set: CC-PVTZ
  Basis Set:
  @DF-RHF Final Energy:  -423.12985708249875
    Total Energy =                       -423.1298570824990293
  Basis Set: CC-PVTZ
  Basis Set:
  @DF-RHF Final Energy:  -423.12637435969771
    Total Energy =                       -423.1263743596982749
  Basis Set: CC-PVTZ
  Basis Set:
  @DF-RHF Final Energy:  -423.13021831696693
    Total Energy =                       -423.1302183169671025
  Basis Set: CC-PVTZ
  Basis Set:
  Basis Set: CC-PVTZ
  Basis Set:
  @DF-RHF Final Energy:  -423.13024309677166
    Total Energy =                       -423.1302430967712098
  Basis Set: CC-PVTZ
  Basis Set:
  Basis Set: CC-PVTZ
  Basis Set:
  @DF-RHF Final Energy:  -423.13025721839296
    Total Energy =                       -423.1302572183932398
  Basis Set: CC-PVTZ
  Basis Set:
  Charge       = 0
  Multiplicity = 1
  Basis Set: CC-PVTZ
  Basis Set:

    Orbital Energies (a.u.)
    -----------------------

    Doubly Occupied:

       1A    -20.595750     2A    -20.529376     3A    -11.366271
       4A    -11.279150     5A    -11.230585     6A    -11.222185
       7A    -11.221250     8A    -11.220172     9A    -11.210645
      10A     -1.470989    11A     -1.363840    12A     -1.094469
      13A     -1.041272    14A     -1.002156    15A     -0.931621
      16A     -0.857523    17A     -0.790866    18A     -0.770544
      19A     -0.694405    20A     -0.687722    21A     -0.673166
      22A     -0.643682    23A     -0.612514    24A     -0.602528
      25A     -0.575735    26A     -0.570227    27A     -0.549144
      28A     -0.538524    29A     -0.528219    30A     -0.507712
      31A     -0.499408    32A     -0.468938    33A     -0.467413
      34A     -0.466061    35A     -0.455147    36A     -0.438560

  @DF-RHF Final Energy:  -423.13025819426321

   => Energetics <=

    Nuclear Repulsion Energy =            455.9073661493932832
    One-Electron Energy =               -1479.7196998463491582
    Two-Electron Energy =                 600.6820755026926690
    DFT Exchange-Correlation Energy =       0.0000000000000000
    Empirical Dispersion Energy =           0.0000000000000000
    PCM Polarization Energy =               0.0000000000000000
    EFP Energy =                            0.0000000000000000
    Total Energy =                       -423.1302581942632060
    Molecular point group: c1
  Basis Set: CC-PVTZ
  Basis Set:

  -Total Gradient:
     Atom            X                  Y                   Z
    ------   -----------------  -----------------  -----------------
       1       -0.000038594260    -0.000007729468    -0.000012989919
       2        0.000078129180    -0.000048422780     0.000055699331
       3       -0.000013989995     0.000021674522     0.000010461322
       4       -0.000041684476     0.000030943965    -0.000027260537
       5       -0.000008137206    -0.000014437279    -0.000013251282
       6        0.000001438227     0.000027338788    -0.000005437191
       7       -0.000013035827    -0.000003736934    -0.000009044539
       8        0.000015096109    -0.000014566231     0.000024403237
       9        0.000008994734     0.000014547805    -0.000027300779
      10        0.000010786164    -0.000001795027     0.000009513061
      11        0.000005518349    -0.000003859698    -0.000012225280
      12        0.001697131415     0.005507377425     0.004283936579
      13       -0.000009519486    -0.000002100219     0.000004353263
      14       -0.000000724514     0.000000568111    -0.000009307783
      15        0.000541486312     0.000731617419    -0.007103571224
      16       -0.001521864071    -0.004784489212    -0.002537962266
      17        0.000000603557     0.000006858242    -0.000015419501
      18        0.000008923356     0.000008112043    -0.000000735389
      19       -0.000719782243    -0.001495906927     0.005390990916
      20       -0.000002808622     0.000010027087    -0.000009943835
      21        0.000005738255    -0.000011363958    -0.000010053457
      22       -0.000021840452    -0.000002946171     0.000008245049
      23        0.000018135498     0.000032288496     0.000006900223

  **** Optimization is complete! (in 9 steps) ****
    Final optimized geometry and variables:
    Molecular point group: c1

    Geometry (in Angstrom), charge = 0, multiplicity = 1:

    O           -2.942376453925     0.812618674237    -0.454125373964
    C           -2.523476829990    -0.278745546492    -0.264264304167
    C           -3.393735377991    -1.503277718582    -0.175053166268
    O           -1.242890095211    -0.552685379391    -0.107617105134
    H           -3.955956526311    -1.593731156383    -1.094757728455
    H           -2.815101645203    -2.397433211425    -0.006717510495
    H           -4.101606940620    -1.364033045809     0.631080027955
    C           -0.322224790525     0.528406683470    -0.171474266453
    C            1.068995549189    -0.031414398157     0.036134471769
    H           -0.416752958122     1.014899474331    -1.132509368621
    H           -0.575952212427     1.252628293488     0.590680741907
    C            2.125907353880     1.073947824517     0.004061201157
    H            1.271136848962    -0.764148434702    -0.739248769861
    H            1.090649986879    -0.559672427807     0.981381468253
    C            3.580031171353     0.581571518849     0.064012287606
    H            1.991092334001     1.612905121969    -0.929255408838
    H            1.939391400477     1.771183122984     0.814798360418
    C            3.842714547020    -0.559143386980     1.047637814780
    H            4.202584846198     1.413316556284     0.376924157596
    H            3.907198356512     0.282129072583    -0.925853240463
    H            3.515372003979    -0.298870695146     2.049211733977
    H            4.903623945203    -0.775518313128     1.096289182207
    H            3.336922133087    -1.472701331761     0.760999400048

  Mulliken Charges: (a.u.)
   Center  Symbol    Alpha    Beta     Spin     Total
       1     O     4.20241  4.20241  0.00000 -0.40482
       2     C     2.81545  2.81545  0.00000  0.36910
       3     C     3.13990  3.13990  0.00000 -0.27980
       4     O     4.14451  4.14451  0.00000 -0.28901
       5     H     0.44205  0.44205  0.00000  0.11591
       6     H     0.44192  0.44192  0.00000  0.11615
       7     H     0.44220  0.44220  0.00000  0.11560
       8     C     2.98047  2.98047  0.00000  0.03906
       9     C     3.08567  3.08567  0.00000 -0.17134
      10     H     0.45312  0.45312  0.00000  0.09376
      11     H     0.45431  0.45431  0.00000  0.09137
      12     C     3.10518  3.10518  0.00000 -0.21036
      13     H     0.44997  0.44997  0.00000  0.10006
      14     H     0.44788  0.44788  0.00000  0.10425
      15     C     3.08895  3.08895  0.00000 -0.17789
      16     H     0.44969  0.44969  0.00000  0.10061
      17     H     0.44955  0.44955  0.00000  0.10091
      18     C     3.15752  3.15752  0.00000 -0.31504
      19     H     0.44914  0.44914  0.00000  0.10172
      20     H     0.45079  0.45079  0.00000  0.09842
      21     H     0.45339  0.45339  0.00000  0.09321
      22     H     0.44448  0.44448  0.00000  0.11105
      23     H     0.45146  0.45146  0.00000  0.09708

   Total alpha = 36.00000, Total beta = 36.00000, Total charge =  0.00000

*** Psi4 exiting successfully. Buy a developer a beer!
