  ==> Input File <==

--------------------------------------------------------------------------
set {
	reference rhf
	basis 6-31G*
}

set_num_threads( 4 )
memory 2 gb

molecule MOL {
0 1

H	 2.866480	 -0.465706	 0.876907
C	 2.405773	 -0.024801	 0.000000
N	 0.988830	 -0.304158	 0.000000
H	 2.866480	 -0.465706	 -0.876907
H	 2.629928	 1.045948	 0.000000
C	 0.491012	 -0.639750	 1.321183
C	 0.627318	 -1.331114	 -0.959499
H	 0.969505	 -1.542457	 1.714455
H	 0.714542	 0.175465	 2.002142
C	 -1.012295	 -0.855990	 1.263761
H	 0.950657	 -1.022148	 -1.948558
H	 1.115743	 -2.284201	 -0.732419
C	 -0.879604	 -1.529020	 -0.956440
H	 -1.387565	 -1.193792	 2.220881
H	 -1.506011	 0.079797	 1.007795
O	 -1.340583	 -1.843687	 0.327474
H	 -1.159165	 -2.352274	 -1.600735
H	 -1.367077	 -0.624899	 -1.316864

	symmetry c1
}
set optking {
	frozen_dihedral = ("
		6 3 2 5
	")
}

ee = optimize('scf')
oeprop('DIPOLE', 'QUADRUPOLE', 'MULLIKEN_CHARGES')
f=open( 'psi4out.xyz', 'w' )
f.write( "18  " )
f.write( str(ee) + "\n" )
f.write( MOL.save_string_xyz() )
f.close()
--------------------------------------------------------------------------

    Molecular point group: c1
  Charge       = 0
  Multiplicity = 1
  Basis Set: 6-31G*
  Basis Set:
  @DF-RHF Final Energy:  -325.02270064449982
    Total Energy =                       -325.0227006444999915
    Molecular point group: c1
  Basis Set: 6-31G*
  Basis Set:
  Basis Set: 6-31G*
  Basis Set:
  @DF-RHF Final Energy:  -325.02338401983661
    Total Energy =                       -325.0233840198367261
  Basis Set: 6-31G*
  Basis Set:
  Basis Set: 6-31G*
  Basis Set:
  @DF-RHF Final Energy:  -325.02351707560138
    Total Energy =                       -325.0235170756013758
  Basis Set: 6-31G*
  Basis Set:
  Basis Set: 6-31G*
  Basis Set:
  @DF-RHF Final Energy:  -325.02352016585507
    Total Energy =                       -325.0235201658551887
  Basis Set: 6-31G*
  Basis Set:
  Charge       = 0
  Multiplicity = 1
  Basis Set: 6-31G*
  Basis Set:

    Orbital Energies (a.u.)
    -----------------------

    Doubly Occupied:

       1A    -20.553364     2A    -15.547604     3A    -11.265462
       4A    -11.265429     5A    -11.243930     6A    -11.243778
       7A    -11.240698     8A     -1.382810     9A     -1.228350
      10A     -1.037710    11A     -0.980294    12A     -0.881831
      13A     -0.869776    14A     -0.774678    15A     -0.682841
      16A     -0.643687    17A     -0.642575    18A     -0.630577
      19A     -0.627323    20A     -0.570610    21A     -0.557472
      22A     -0.546463    23A     -0.526360    24A     -0.500428
      25A     -0.482198    26A     -0.451557    27A     -0.406994
      28A     -0.350664

  @DF-RHF Final Energy:  -325.02352053651975

   => Energetics <=

    Nuclear Repulsion Energy =            341.0755714372993452
    One-Electron Energy =               -1117.9272618040786256
    Two-Electron Energy =                 451.8281698302594123
    DFT Exchange-Correlation Energy =       0.0000000000000000
    Empirical Dispersion Energy =           0.0000000000000000
    PCM Polarization Energy =               0.0000000000000000
    EFP Energy =                            0.0000000000000000
    Total Energy =                       -325.0235205365198681
    Molecular point group: c1
  Basis Set: 6-31G*
  Basis Set:

  -Total Gradient:
     Atom            X                  Y                   Z
    ------   -----------------  -----------------  -----------------
       1       -0.000008040522    -0.000006682495    -0.000006897380
       2        0.000176948286    -0.001130483745     0.005153215394
       3       -0.000858171954     0.004216238665    -0.000363084186
       4        0.000007398283    -0.000013911445    -0.000005281033
       5        0.000028663969    -0.000026429585    -0.004241787242
       6        0.000651552309    -0.003063290506    -0.000585932389
       7        0.000013032571     0.000045330448     0.000029575282
       8        0.000008372695    -0.000005817027     0.000003092939
       9       -0.000003487016    -0.000004335479     0.000004704867
      10       -0.000016381142    -0.000002152167     0.000023086093
      11       -0.000001131482    -0.000004426470     0.000001953874
      12        0.000008464284    -0.000004264760     0.000001904322
      13       -0.000020974073     0.000014832999    -0.000016969564
      14       -0.000006100624    -0.000003692478    -0.000000313812
      15        0.000005804845     0.000002024116     0.000000448938
      16        0.000012892329    -0.000012073121     0.000000751623
      17       -0.000000609701    -0.000002313559     0.000005428905
      18        0.000001766948     0.000001446608    -0.000003896629

  **** Optimization is complete! (in 5 steps) ****
    Final optimized geometry and variables:
    Molecular point group: c1

    Geometry (in Angstrom), charge = 0, multiplicity = 1:

    H            2.748898741241     0.487519792464     0.717384931706
    C            2.234349462793     0.924704918315    -0.136183413028
    N            0.810877292343     0.624678665672    -0.144964047960
    H            2.705280496520     0.533580368540    -1.031259878952
    H            2.400876445021     1.997400211407    -0.141212284816
    C            0.304298029195     0.289719198374     1.173825026768
    C            0.442601692897    -0.408173756001    -1.098688386037
    H            0.772424728841    -0.619497950572     1.563452483296
    H            0.535390843136     1.099046648231     1.859738077711
    C           -1.201194092142     0.092264692805     1.116005642363
    H            0.768799236522    -0.109598775390    -2.089368442025
    H            0.915668829288    -1.367234179403    -0.865516515424
    C           -1.066896886201    -0.585387372256    -1.102187665440
    H           -1.581087026847    -0.241000620000     2.073040313282
    H           -1.682974262507     1.034058077842     0.859747113030
    O           -1.540468726244    -0.891106480458     0.179221086064
    H           -1.354593183100    -1.405257429087    -1.747440091354
    H           -1.538393986133     0.325628518250    -1.466407965706

  Mulliken Charges: (a.u.)
   Center  Symbol    Alpha    Beta     Spin     Total
       1     H     0.42535  0.42535  0.00000  0.14931
       2     C     3.14046  3.14046  0.00000 -0.28093
       3     N     3.78978  3.78978  0.00000 -0.57956
       4     H     0.41963  0.41963  0.00000  0.16073
       5     H     0.41444  0.41444  0.00000  0.17111
       6     C     3.06992  3.06992  0.00000 -0.13983
       7     C     3.06952  3.06952  0.00000 -0.13904
       8     H     0.42801  0.42801  0.00000  0.14397
       9     H     0.41617  0.41617  0.00000  0.16767
      10     C     2.99721  2.99721  0.00000  0.00558
      11     H     0.41641  0.41641  0.00000  0.16718
      12     H     0.42841  0.42841  0.00000  0.14319
      13     C     2.99748  2.99748  0.00000  0.00504
      14     H     0.41356  0.41356  0.00000  0.17288
      15     H     0.42395  0.42395  0.00000  0.15210
      16     O     4.31214  4.31214  0.00000 -0.62427
      17     H     0.41357  0.41357  0.00000  0.17286
      18     H     0.42399  0.42399  0.00000  0.15201

   Total alpha = 28.00000, Total beta = 28.00000, Total charge =  0.00000
