  ==> Input File <==

--------------------------------------------------------------------------
set {
	reference rhf
	basis cc-pvtz
}

set_num_threads( 4 )
memory 2 gb

molecule MOL {
0 1

H	 1.251327	 -0.704668	 -0.949381
C	 0.788096	 -0.429819	 0.000000
N	 -0.537714	 -0.645117	 0.000000
O	 1.425478	 0.007442	 0.905133
C	 -1.522613	 0.412524	 0.000000
H	 -0.845894	 -1.585866	 0.000000
H	 -2.150256	 0.356137	 -0.880771
H	 -1.005621	 1.357208	 0.000000
H	 -2.150256	 0.356137	 0.880771

	symmetry c1
}
set optking {
	frozen_dihedral = ("
		1 2 3 6
	")
}

ee = optimize('scf')
oeprop('DIPOLE', 'QUADRUPOLE', 'MULLIKEN_CHARGES')
f=open( 'psi4out.xyz', 'w' )
f.write( "9  " )
f.write( str(ee) + "\n" )
f.write( MOL.save_string_xyz() )
f.close()
--------------------------------------------------------------------------

    Molecular point group: c1
  Charge       = 0
  Multiplicity = 1
  Basis Set: CC-PVTZ
  Basis Set:
  @DF-RHF Final Energy:  -208.00531963340651
    Total Energy =                       -208.0053196334066001
    Molecular point group: c1
  Basis Set: CC-PVTZ
  Basis Set:
  Basis Set: CC-PVTZ
  Basis Set:
  @DF-RHF Final Energy:  -208.01231549599305
    Total Energy =                       -208.0123154959931071
  Basis Set: CC-PVTZ
  Basis Set:
  Basis Set: CC-PVTZ
  Basis Set:
  @DF-RHF Final Energy:  -208.01823755395003
    Total Energy =                       -208.0182375539499731
  Basis Set: CC-PVTZ
  Basis Set:
  Basis Set: CC-PVTZ
  Basis Set:
  @DF-RHF Final Energy:  -208.02583118793257
    Total Energy =                       -208.0258311879325390
  Basis Set: CC-PVTZ
  Basis Set:
  @DF-RHF Final Energy:  -208.02701616427635
    Total Energy =                       -208.0270161642764037
  @DF-RHF Final Energy:  -208.02816823529088
    Total Energy =                       -208.0281682352908206
  @DF-RHF Final Energy:  -208.02911540633119
    Total Energy =                       -208.0291154063312149
  @DF-RHF Final Energy:  -208.02964532716265
    Total Energy =                       -208.0296453271627115
  @DF-RHF Final Energy:  -208.02996118436420
    Total Energy =                       -208.0299611843640832
  @DF-RHF Final Energy:  -208.03012845259087
    Total Energy =                       -208.0301284525908159
  Basis Set: CC-PVTZ
  Basis Set:
  @DF-RHF Final Energy:  -208.03020633795037
    Total Energy =                       -208.0302063379504034
  Basis Set: CC-PVTZ
  Basis Set:
  Basis Set: CC-PVTZ
  Basis Set:
  @DF-RHF Final Energy:  -208.03028450303572
    Total Energy =                       -208.0302845030357446
  Basis Set: CC-PVTZ
  Basis Set:
  Basis Set: CC-PVTZ
  Basis Set:
  @DF-RHF Final Energy:  -208.03029678541512
    Total Energy =                       -208.0302967854151177
  Basis Set: CC-PVTZ
  Basis Set:
  Charge       = 0
  Multiplicity = 1
  Basis Set: CC-PVTZ
  Basis Set:

    Orbital Energies (a.u.)
    -----------------------

    Doubly Occupied:

       1A    -20.543240     2A    -15.577159     3A    -11.344170
       4A    -11.251771     5A     -1.414684     6A     -1.231260
       7A     -0.953630     8A     -0.808079     9A     -0.732324
      10A     -0.655953    11A     -0.646936    12A     -0.573317
      13A     -0.549311    14A     -0.535693    15A     -0.442792
      16A     -0.413878

  @DF-RHF Final Energy:  -208.03029727147680

   => Energetics <=

    Nuclear Repulsion Energy =            122.9592196409709572
    One-Electron Energy =                -526.6306403631488138
    Two-Electron Energy =                 195.6411234507009453
    DFT Exchange-Correlation Energy =       0.0000000000000000
    Empirical Dispersion Energy =           0.0000000000000000
    PCM Polarization Energy =               0.0000000000000000
    EFP Energy =                            0.0000000000000000
    Total Energy =                       -208.0302972714769112
    Molecular point group: c1
  Basis Set: CC-PVTZ
  Basis Set:

  -Total Gradient:
     Atom            X                  Y                   Z
    ------   -----------------  -----------------  -----------------
       1        0.002523851323     0.010256726616    -0.007197186591
       2       -0.004653741300    -0.012458704829     0.012406707160
       3        0.007603039646    -0.001722577994    -0.017309072509
       4       -0.000061542543     0.000007826425     0.000015700612
       5       -0.000040075867     0.000009047168     0.000005917683
       6       -0.005374932469     0.003902969451     0.012069014500
       7       -0.000003637308     0.000006911611     0.000011891374
       8        0.000003462203     0.000002511162    -0.000000726804
       9        0.000003576320    -0.000004709610    -0.000002245424

  **** Optimization is complete! (in 14 steps) ****
    Final optimized geometry and variables:
    Molecular point group: c1

    Geometry (in Angstrom), charge = 0, multiplicity = 1:

    H            1.541202991553    -0.978168200210    -0.647909572218
    C            0.805483928811    -0.403295829315    -0.083980619192
    N           -0.466478071052    -0.473864872804    -0.629465928277
    O            1.135179218675     0.333228913383     0.780671075701
    C           -1.414199300570     0.515429889006    -0.122556120728
    H           -0.853760264671    -1.387707113036    -0.507161669107
    H           -2.353833321115     0.379739159186    -0.639345076408
    H           -1.042881744568     1.506104395548    -0.336085208810
    H           -1.577566280477     0.440330569111     0.945902704718

  Mulliken Charges: (a.u.)
   Center  Symbol    Alpha    Beta     Spin     Total
       1     H     0.45187  0.45187  0.00000  0.09626
       2     C     2.88495  2.88495  0.00000  0.23010
       3     N     3.61002  3.61002  0.00000 -0.22004
       4     O     4.18579  4.18579  0.00000 -0.37158
       5     C     3.08354  3.08354  0.00000 -0.16707
       6     H     0.43153  0.43153  0.00000  0.13694
       7     H     0.45167  0.45167  0.00000  0.09665
       8     H     0.44542  0.44542  0.00000  0.10916
       9     H     0.45521  0.45521  0.00000  0.08959

   Total alpha = 16.00000, Total beta = 16.00000, Total charge =  0.00000
