                              Psi4 1.0.54 Driver

  ==> Input File <==

--------------------------------------------------------------------------
set {
	reference rhf
	basis cc-pvtz
}

set_num_threads( 4 )
memory 2 gb

molecule MOL {
0 1

H	 2.512615	 -0.756144	 -0.993428
N	 2.433987	 -0.362316	 -0.080024
C	 1.263552	 0.494993	 0.021953
H	 3.270820	 0.155300	 0.090625
C	 -0.016533	 -0.325589	 -0.026925
H	 1.280915	 1.180773	 -0.818522
H	 1.263064	 1.106893	 0.925038
C	 -1.280353	 0.525521	 0.047747
H	 -0.016686	 -0.912532	 -0.939714
H	 -0.014099	 -1.037598	 0.796369
C	 -2.560681	 -0.301323	 -0.007747
H	 -1.279957	 1.241025	 -0.770189
H	 -1.270445	 1.110526	 0.963468
H	 -2.617064	 -0.872870	 -0.928010
H	 -3.439525	 0.331102	 0.043462
H	 -2.609427	 -1.002736	 0.818585

	symmetry c1
}
set optking {
	frozen_dihedral = ("
		1 2 3 6
	")
}

ee,wfn = optimize('scf', return_wfn=True)
oeprop( wfn, 'DIPOLE', 'QUADRUPOLE', 'MULLIKEN_CHARGES')
f=open( 'psi4out.xyz', 'w' )
f.write( "16  " )
f.write( str(ee) + "\n" )
f.write( MOL.save_string_xyz() )
f.close()
--------------------------------------------------------------------------

    Molecular point group: c1
  Charge       = 0
  Multiplicity = 1
  Basis Set: CC-PVTZ
  Basis Set:
  @DF-RHF Final Energy:  -212.39828197936276
    Total Energy =                       -212.3982819793628209
    Molecular point group: c1
  Basis Set: CC-PVTZ
  Basis Set:
  Basis Set: CC-PVTZ
  Basis Set:
  @DF-RHF Final Energy:  -212.39991291881185
    Total Energy =                       -212.3999129188119923
  Basis Set: CC-PVTZ
  Basis Set:
  Basis Set: CC-PVTZ
  Basis Set:
  @DF-RHF Final Energy:  -212.40016437316430
    Total Energy =                       -212.4001643731643298
  Basis Set: CC-PVTZ
  Basis Set:
  Basis Set: CC-PVTZ
  Basis Set:
  @DF-RHF Final Energy:  -212.40016803589535
    Total Energy =                       -212.4001680358953763
  Basis Set: CC-PVTZ
  Basis Set:
  Charge       = 0
  Multiplicity = 1
  Basis Set: CC-PVTZ
  Basis Set:

    Orbital Energies (a.u.)
    -----------------------

    Doubly Occupied:

       1A    -15.527037     2A    -11.238333     3A    -11.212357
       4A    -11.206565     5A    -11.205418     6A     -1.178344
       7A     -1.060341     8A     -0.959595     9A     -0.843789
      10A     -0.791162    11A     -0.668220    12A     -0.634992
      13A     -0.607824    14A     -0.576680    15A     -0.562757
      16A     -0.526861    17A     -0.498555    18A     -0.470114
      19A     -0.465716    20A     -0.462208    21A     -0.384538

  @DF-RHF Final Energy:  -212.40016867804090

   => Energetics <=

    Nuclear Repulsion Energy =            186.4851552832185746
    One-Electron Energy =                -655.6078410845182134
    Two-Electron Energy =                 256.7225171232587400
    DFT Exchange-Correlation Energy =       0.0000000000000000
    Empirical Dispersion Energy =           0.0000000000000000
    PCM Polarization Energy =               0.0000000000000000
    EFP Energy =                            0.0000000000000000
    Total Energy =                       -212.4001686780409273
    Molecular point group: c1
  Basis Set: CC-PVTZ
  Basis Set:

  -Total Gradient:
     Atom            X                  Y                   Z
    ------   -----------------  -----------------  -----------------
       1        0.000635613442     0.000925456098    -0.000362441523
       2       -0.000973694479    -0.001350652127     0.000281545427
       3        0.000908362596     0.001099557529     0.000615718823
       4        0.000023852146     0.000005773010    -0.000001502163
       5        0.000014593411     0.000024845684     0.000023108046
       6       -0.000604131080    -0.000699199800    -0.000583932887
       7       -0.000017241997    -0.000019061437     0.000007988381
       8        0.000001737658    -0.000003451279     0.000011523699
       9        0.000023023437     0.000014916671     0.000002500429
      10        0.000000650028     0.000001295448     0.000009017888
      11       -0.000009385800     0.000006414007    -0.000003868498
      12        0.000005829488    -0.000001143478     0.000001970976
      13       -0.000002568970    -0.000002352392     0.000003787851
      14        0.000001253104    -0.000004188192    -0.000001868272
      15       -0.000008800882    -0.000001503651    -0.000004590098
      16        0.000000907897     0.000003293910     0.000001041924

  **** Optimization is complete! (in 5 steps) ****
    Final optimized geometry and variables:
    Molecular point group: c1

    Geometry (in Angstrom), charge = 0, multiplicity = 1:

    H            2.434478784504    -0.775776153189    -1.196948422398
    N            2.415145782028    -0.397996424919    -0.272622749357
    C            1.265925827138     0.477253301477    -0.094714333862
    H            3.267934605438     0.105974603137    -0.150955460378
    C           -0.023469166741    -0.327378325583    -0.015119581990
    H            1.172185052465     1.217962191875    -0.889707980821
    H            1.403996395354     1.024468896388     0.831414688380
    C           -1.262905165006     0.539481814966     0.183494457653
    H           -0.134193723959    -0.910119994878    -0.927515636456
    H            0.064928482074    -1.042878660486     0.795852910102
    C           -2.551996702985    -0.271593187017     0.263368662577
    H           -1.339509137047     1.255274027622    -0.630623896023
    H           -1.150430933850     1.124210957283     1.092712387068
    H           -2.711903563669    -0.842025022193    -0.645590174950
    H           -3.413054824874     0.371338834829     0.405821110398
    H           -2.521648196017    -0.972767608267     1.090507447828

  Mulliken Charges: (a.u.)
   Center  Symbol    Alpha    Beta     Spin     Total
       1     H     0.43110  0.43110  0.00000  0.13779
       2     N     3.68892  3.68892  0.00000 -0.37783
       3     C     3.03000  3.03000  0.00000 -0.05999
       4     H     0.42977  0.42977  0.00000  0.14046
       5     C     3.07678  3.07678  0.00000 -0.15355
       6     H     0.46780  0.46780  0.00000  0.06440
       7     H     0.45660  0.45660  0.00000  0.08681
       8     C     3.08874  3.08874  0.00000 -0.17748
       9     H     0.46043  0.46043  0.00000  0.07914
      10     H     0.45019  0.45019  0.00000  0.09963
      11     C     3.14932  3.14932  0.00000 -0.29863
      12     H     0.45669  0.45669  0.00000  0.08663
      13     H     0.45520  0.45520  0.00000  0.08960
      14     H     0.45541  0.45541  0.00000  0.08917
      15     H     0.44889  0.44889  0.00000  0.10222
      16     H     0.45418  0.45418  0.00000  0.09164

   Total alpha = 21.00000, Total beta = 21.00000, Total charge = -0.00000

*** Psi4 exiting successfully. Buy a developer a beer!
