  ==> Input File <==

--------------------------------------------------------------------------
set {
	reference rhf
	basis 6-31G*
}

set_num_threads( 1 )
memory 2 gb

molecule MOL {
0 1

H	 1.159212	 -1.054145	 0.743314
O	 1.318910	 -0.614878	 -0.080940
C	 0.707850	 0.642029	 -0.053494
C	 -0.793441	 0.596080	 0.058728
H	 0.989039	 1.135197	 -0.977031
H	 1.108174	 1.249323	 0.757653
C	 -1.530462	 -0.493172	 -0.025500
H	 -1.267442	 1.552467	 0.217251
H	 -1.092586	 -1.461565	 -0.186463
H	 -2.602122	 -0.450675	 0.050101

	symmetry c1
}
set optking {
	frozen_dihedral = ("
		5 3 2 1,
		5 3 4 7
	")
}

ee = energy('scf')
oeprop('DIPOLE', 'QUADRUPOLE', 'MULLIKEN_CHARGES')
f=open( 'psi4out.xyz', 'w' )
f.write( "10  " )
f.write( str(ee) + "\n" )
f.write( MOL.save_string_xyz() )
f.close()
--------------------------------------------------------------------------

    Molecular point group: c1

    Geometry (in Angstrom), charge = 0, multiplicity = 1:

       Center              X                  Y                   Z               Mass
    ------------   -----------------  -----------------  -----------------  -----------------
           H          1.159485173717    -1.055566730342     0.759306983983     1.007825032070
           O          1.319183173717    -0.616299730342    -0.064947016017    15.994914619560
           C          0.708123173717     0.640607269658    -0.037501016017    12.000000000000
           C         -0.793167826283     0.594658269658     0.074720983983    12.000000000000
           H          0.989312173717     1.133775269658    -0.961038016017     1.007825032070
           H          1.108447173717     1.247901269658     0.773645983983     1.007825032070
           C         -1.530188826283    -0.494593730342    -0.009507016017    12.000000000000
           H         -1.267168826283     1.551045269658     0.233243983983     1.007825032070
           H         -1.092312826283    -1.462986730342    -0.170470016017     1.007825032070
           H         -2.601848826283    -0.452096730342     0.066093983983     1.007825032070

  Charge       = 0
  Multiplicity = 1
  Basis Set: 6-31G*
  Basis Set:

    Orbital Energies (a.u.)
    -----------------------

    Doubly Occupied:

       1A    -20.560654     2A    -11.278405     3A    -11.231106
       4A    -11.219459     5A     -1.369273     6A     -1.057941
       7A     -0.928540     8A     -0.768825     9A     -0.687821
      10A     -0.661628    11A     -0.615903    12A     -0.570642
      13A     -0.538279    14A     -0.491967    15A     -0.447932
      16A     -0.364796

  @DF-RHF Final Energy:  -191.91722764644572

   => Energetics <=

    Nuclear Repulsion Energy =            119.3870267925660613
    One-Electron Energy =                -497.0221726565390554
    Two-Electron Energy =                 185.7179182175272274
    DFT Exchange-Correlation Energy =       0.0000000000000000
    Empirical Dispersion Energy =           0.0000000000000000
    PCM Polarization Energy =               0.0000000000000000
    EFP Energy =                            0.0000000000000000
    Total Energy =                       -191.9172276464457525

  Mulliken Charges: (a.u.)
   Center  Symbol    Alpha    Beta     Spin     Total
       1     H     0.28085  0.28085  0.00000  0.43829
       2     O     4.36678  4.36678  0.00000 -0.73357
       3     C     3.00034  3.00034  0.00000 -0.00067
       4     C     3.09371  3.09371  0.00000 -0.18743
       5     H     0.40807  0.40807  0.00000  0.18385
       6     H     0.42579  0.42579  0.00000  0.14843
       7     C     3.19694  3.19694  0.00000 -0.39388
       8     H     0.41020  0.41020  0.00000  0.17961
       9     H     0.40636  0.40636  0.00000  0.18729
      10     H     0.41096  0.41096  0.00000  0.17808

   Total alpha = 16.00000, Total beta = 16.00000, Total charge =  0.00000
