  ==> Input File <==

--------------------------------------------------------------------------
set {
	reference rhf
	basis 6-31G*
}

set_num_threads( 1 )
memory 2 gb

molecule MOL {
0 1

O	 0.074228	 1.262779	 -0.000085
C	 0.028650	 0.075053	 -0.000277
C	 -1.233602	 -0.752807	 0.000328
O	 1.109162	 -0.694619	 -0.000298
C	 -2.501530	 0.091881	 0.000126
H	 -1.193807	 -1.406641	 -0.865785
H	 -1.193516	 -1.405779	 0.867015
H	 -2.545121	 0.729328	 -0.874513
H	 -3.377167	 -0.548497	 0.000561
H	 -2.544818	 0.730135	 0.874258
C	 1.161667	 -1.728482	 -0.966713
H	 0.338690	 -2.415636	 -0.832769
H	 2.101084	 -2.234263	 -0.806889
H	 1.122554	 -1.317502	 -1.965231

	symmetry c1
}
set optking {
	frozen_dihedral = ("
		4 2 3 6
	")
}

ee = energy('scf')
oeprop('DIPOLE', 'QUADRUPOLE', 'MULLIKEN_CHARGES')
f=open( 'psi4out.xyz', 'w' )
f.write( "14  " )
f.write( str(ee) + "\n" )
f.write( MOL.save_string_xyz() )
f.close()
--------------------------------------------------------------------------

    Molecular point group: c1

    Geometry (in Angstrom), charge = 0, multiplicity = 1:

       Center              X                  Y                   Z               Mass
    ------------   -----------------  -----------------  -----------------  -----------------
           O          0.289539718497     1.565042304998     0.172949491977    15.994914619560
           C          0.243961718497     0.377316304998     0.172757491977    12.000000000000
           C         -1.018290281503    -0.450543695002     0.173362491977    12.000000000000
           O          1.324473718497    -0.392355695002     0.172736491977    15.994914619560
           C         -2.286218281503     0.394144304998     0.173160491977    12.000000000000
           H         -0.978495281503    -1.104377695002    -0.692750508023     1.007825032070
           H         -0.978204281503    -1.103515695002     1.040049491977     1.007825032070
           H         -2.329809281503     1.031591304998    -0.701478508023     1.007825032070
           H         -3.161855281503    -0.246233695002     0.173595491977     1.007825032070
           H         -2.329506281503     1.032398304998     1.047292491977     1.007825032070
           C          1.376978718497    -1.426218695002    -0.793678508023    12.000000000000
           H          0.554001718497    -2.113372695002    -0.659734508023     1.007825032070
           H          2.316395718497    -1.931999695002    -0.633854508023     1.007825032070
           H          1.337865718497    -1.015238695002    -1.792196508023     1.007825032070

  Charge       = 0
  Multiplicity = 1
  Basis Set: 6-31G*
  Basis Set:

    Orbital Energies (a.u.)
    -----------------------

    Doubly Occupied:

       1A    -20.596943     2A    -20.552313     3A    -11.375055
       4A    -11.298046     5A    -11.242619     6A    -11.219553
       7A     -1.466549     8A     -1.370563     9A     -1.063246
      10A     -0.987260    11A     -0.902014    12A     -0.768594
      13A     -0.704259    14A     -0.683252    15A     -0.679867
      16A     -0.632441    17A     -0.609558    18A     -0.564058
      19A     -0.548941    20A     -0.524445    21A     -0.514587
      22A     -0.490044    23A     -0.458272    24A     -0.434345

  @DF-RHF Final Energy:  -305.84608521494647

   => Energetics <=

    Nuclear Repulsion Energy =            249.2492787402741214
    One-Electron Energy =                -910.8169963987523943
    Two-Electron Energy =                 355.7216324435316892
    DFT Exchange-Correlation Energy =       0.0000000000000000
    Empirical Dispersion Energy =           0.0000000000000000
    PCM Polarization Energy =               0.0000000000000000
    EFP Energy =                            0.0000000000000000
    Total Energy =                       -305.8460852149465836

  Mulliken Charges: (a.u.)
   Center  Symbol    Alpha    Beta     Spin     Total
       1     O     4.26203  4.26203  0.00000 -0.52406
       2     C     2.60581  2.60581  0.00000  0.78839
       3     C     3.22816  3.22816  0.00000 -0.45631
       4     O     4.30206  4.30206  0.00000 -0.60412
       5     C     3.23657  3.23657  0.00000 -0.47313
       6     H     0.40507  0.40507  0.00000  0.18986
       7     H     0.39836  0.39836  0.00000  0.20329
       8     H     0.40992  0.40992  0.00000  0.18016
       9     H     0.41908  0.41908  0.00000  0.16184
      10     H     0.40780  0.40780  0.00000  0.18440
      11     C     3.10102  3.10102  0.00000 -0.20204
      12     H     0.41501  0.41501  0.00000  0.16997
      13     H     0.39808  0.39808  0.00000  0.20384
      14     H     0.41105  0.41105  0.00000  0.17790

   Total alpha = 24.00000, Total beta = 24.00000, Total charge = -0.00000
