  ==> Input File <==

--------------------------------------------------------------------------
set {
	reference rhf
	basis 6-31G*
}

set_num_threads( 4 )
memory 2 gb

molecule MOL {
0 1

H	 1.116034	 -1.232703	 0.177941
O	 1.291574	 -0.556751	 -0.462471
C	 0.709265	 0.639550	 -0.033818
C	 -0.793441	 0.596080	 0.058728
H	 1.008197	 1.395412	 -0.751115
H	 1.117634	 0.945602	 0.928778
C	 -1.530462	 -0.493172	 -0.025500
H	 -1.268471	 1.554324	 0.202247
H	 -1.092586	 -1.461565	 -0.186463
H	 -2.602122	 -0.450675	 0.050101

	symmetry c1
}
set optking {
	frozen_dihedral = ("
		5 3 4 7
	")
}

ee = optimize('scf')
oeprop('DIPOLE', 'QUADRUPOLE', 'MULLIKEN_CHARGES')
f=open( 'psi4out.xyz', 'w' )
f.write( "10  " )
f.write( str(ee) + "\n" )
f.write( MOL.save_string_xyz() )
f.close()
--------------------------------------------------------------------------

    Molecular point group: c1
  Charge       = 0
  Multiplicity = 1
  Basis Set: 6-31G*
  Basis Set:
  @DF-RHF Final Energy:  -191.91577413978706
    Total Energy =                       -191.9157741397870041
    Molecular point group: c1
  Basis Set: 6-31G*
  Basis Set:
  Basis Set: 6-31G*
  Basis Set:
  @DF-RHF Final Energy:  -191.91612431933885
    Total Energy =                       -191.9161243193388771
  Basis Set: 6-31G*
  Basis Set:
  Basis Set: 6-31G*
  Basis Set:
  @DF-RHF Final Energy:  -191.91622451948774
    Total Energy =                       -191.9162245194877414
  Basis Set: 6-31G*
  Basis Set:
  Basis Set: 6-31G*
  Basis Set:
  @DF-RHF Final Energy:  -191.91622609126796
    Total Energy =                       -191.9162260912679585
  Basis Set: 6-31G*
  Basis Set:
  Charge       = 0
  Multiplicity = 1
  Basis Set: 6-31G*
  Basis Set:

    Orbital Energies (a.u.)
    -----------------------

    Doubly Occupied:

       1A    -20.561571     2A    -11.279077     3A    -11.231060
       4A    -11.219093     5A     -1.370366     6A     -1.058165
       7A     -0.929541     8A     -0.767159     9A     -0.692441
      10A     -0.661301    11A     -0.618375    12A     -0.569361
      13A     -0.531361    14A     -0.500149    15A     -0.446254
      16A     -0.364098

  @DF-RHF Final Energy:  -191.91622634317247

   => Energetics <=

    Nuclear Repulsion Energy =            119.2538361740879935
    One-Electron Energy =                -496.7413810392438904
    Two-Electron Energy =                 185.5713185219834713
    DFT Exchange-Correlation Energy =       0.0000000000000000
    Empirical Dispersion Energy =           0.0000000000000000
    PCM Polarization Energy =               0.0000000000000000
    EFP Energy =                            0.0000000000000000
    Total Energy =                       -191.9162263431724114
    Molecular point group: c1
  Basis Set: 6-31G*
  Basis Set:

  -Total Gradient:
     Atom            X                  Y                   Z
    ------   -----------------  -----------------  -----------------
       1        0.000003798356    -0.000030030942     0.000001817657
       2        0.000015504864     0.000023253324     0.000017000160
       3       -0.000061963031    -0.002818387154    -0.001381806251
       4       -0.000272609965     0.001028192238    -0.003813648130
       5        0.000107744988     0.002109830650     0.002266097640
       6        0.000022125268     0.000002428107     0.000017087747
       7        0.000216371926    -0.000346044092     0.002932984077
       8       -0.000026328651     0.000023640026    -0.000020456127
       9        0.000000580479     0.000005621588    -0.000013934819
      10       -0.000005224237     0.000001496255    -0.000005141953

  **** Optimization is complete! (in 5 steps) ****
    Final optimized geometry and variables:
    Molecular point group: c1

    Geometry (in Angstrom), charge = 0, multiplicity = 1:

    H            1.219118240581    -1.216527524647     0.372686435485
    O            1.306183631211    -0.580745982292    -0.323769539395
    C            0.716450430916     0.621265240467     0.072547800591
    C           -0.785440912660     0.584809412301     0.170678940784
    H            1.019116217942     1.377607107446    -0.642268994512
    H            1.116650134548     0.947947677946     1.033191902261
    C           -1.536404043759    -0.494357837432     0.086381408637
    H           -1.244643608135     1.538603376757     0.380893297738
    H           -1.121302518728    -1.461310968411    -0.133948559491
    H           -2.603862982714    -0.443749684657     0.203315687543

  Mulliken Charges: (a.u.)
   Center  Symbol    Alpha    Beta     Spin     Total
       1     H     0.27963  0.27963  0.00000  0.44074
       2     O     4.36521  4.36521  0.00000 -0.73042
       3     C     3.00487  3.00487  0.00000 -0.00974
       4     C     3.08462  3.08462  0.00000 -0.16924
       5     H     0.40967  0.40967  0.00000  0.18066
       6     H     0.42479  0.42479  0.00000  0.15041
       7     C     3.19901  3.19901  0.00000 -0.39801
       8     H     0.41060  0.41060  0.00000  0.17880
       9     H     0.41087  0.41087  0.00000  0.17826
      10     H     0.41073  0.41073  0.00000  0.17854

   Total alpha = 16.00000, Total beta = 16.00000, Total charge = -0.00000
