  ==> Input File <==

--------------------------------------------------------------------------
set {
	reference rhf
	basis 6-31G*
}

set_num_threads( 4 )
memory 2 gb

molecule MOL {
0 1

H	 -2.324536	 1.113979	 1.822212
C	 -1.658479	 1.212835	 2.677044
O	 -0.372610	 0.777349	 2.373352
H	 -1.593044	 2.256798	 2.950907
H	 -2.083331	 0.656514	 3.511572
C	 -0.296709	 -0.563617	 2.005524
C	 1.120400	 -0.889705	 1.596044
H	 -0.584025	 -1.201966	 2.841979
H	 -0.967619	 -0.775920	 1.175577
O	 1.392611	 -0.295398	 0.366430
H	 1.806290	 -0.529750	 2.360240
H	 1.233147	 -1.972327	 1.525948
C	 2.706965	 -0.449871	 -0.062409
H	 2.756559	 -0.644779	 -1.131878
H	 3.305899	 0.433456	 0.155466
H	 3.125548	 -1.294566	 0.467107

	symmetry c1
}
set optking {
	frozen_dihedral = ("
		7 10 13 14
	")
}

ee = optimize('scf')
oeprop('DIPOLE', 'QUADRUPOLE', 'MULLIKEN_CHARGES')
f=open( 'psi4out.xyz', 'w' )
f.write( "16  " )
f.write( str(ee) + "\n" )
f.write( MOL.save_string_xyz() )
f.close()
--------------------------------------------------------------------------

    Molecular point group: c1
  Charge       = 0
  Multiplicity = 1
  Basis Set: 6-31G*
  Basis Set:
  @DF-RHF Final Energy:  -306.97357144767039
    Total Energy =                       -306.9735714476705084
    Molecular point group: c1
  Basis Set: 6-31G*
  Basis Set:
  Basis Set: 6-31G*
  Basis Set:
  @DF-RHF Final Energy:  -306.97448968650019
    Total Energy =                       -306.9744896865003057
  Basis Set: 6-31G*
  Basis Set:
  Basis Set: 6-31G*
  Basis Set:
  @DF-RHF Final Energy:  -306.97476786619973
    Total Energy =                       -306.9747678661997270
  Basis Set: 6-31G*
  Basis Set:
  Charge       = 0
  Multiplicity = 1
  Basis Set: 6-31G*
  Basis Set:

    Orbital Energies (a.u.)
    -----------------------

    Doubly Occupied:

       1A    -20.553228     2A    -20.550453     3A    -11.269169
       4A    -11.268110     5A    -11.263271     6A    -11.263090
       7A     -1.386358     8A     -1.368226     9A     -1.030478
      10A     -0.936026    11A     -0.891989    12A     -0.823679
      13A     -0.682994    14A     -0.679248    15A     -0.655874
      16A     -0.633994    17A     -0.628981    18A     -0.595424
      19A     -0.553586    20A     -0.538116    21A     -0.507228
      22A     -0.476685    23A     -0.461869    24A     -0.417698
      25A     -0.408131

  @DF-RHF Final Energy:  -306.97476947469494

   => Energetics <=

    Nuclear Repulsion Energy =            258.5966242933951094
    One-Electron Energy =                -931.4549792473435446
    Two-Electron Energy =                 365.8835854792537248
    DFT Exchange-Correlation Energy =       0.0000000000000000
    Empirical Dispersion Energy =           0.0000000000000000
    PCM Polarization Energy =               0.0000000000000000
    EFP Energy =                            0.0000000000000000
    Total Energy =                       -306.9747694746947673
    Molecular point group: c1
  Basis Set: 6-31G*
  Basis Set:

  -Total Gradient:
     Atom            X                  Y                   Z
    ------   -----------------  -----------------  -----------------
       1        0.000001600322    -0.000000452039    -0.000000760927
       2       -0.000001693365    -0.000004640002     0.000003160369
       3       -0.000001749901    -0.000007724208     0.000011153775
       4        0.000002313643    -0.000001352020    -0.000000925344
       5       -0.000002091013     0.000001271234     0.000000547162
       6       -0.000006935713     0.000058139730    -0.000090694564
       7       -0.000475564795    -0.001912121809    -0.001016939382
       8        0.000024841495    -0.000003548511    -0.000000951014
       9       -0.000014741377    -0.000004820162     0.000001740112
      10        0.000851434400     0.002036553288     0.001515770345
      11        0.000013751325     0.000001433704    -0.000024043958
      12        0.000011013482     0.000016523321    -0.000032870814
      13       -0.000122915089     0.002501094798    -0.000874994141
      14       -0.000248914390    -0.002665811332     0.000487904881
      15       -0.000044463597     0.000019274835    -0.000003261596
      16        0.000014114568    -0.000033820828     0.000025165098

  **** Optimization is complete! (in 4 steps) ****
    Final optimized geometry and variables:
    Molecular point group: c1

    Geometry (in Angstrom), charge = 0, multiplicity = 1:

    H           -2.801338717102     1.155116005007     0.310638305215
    C           -2.144762932289     1.247728285135     1.173466913291
    O           -0.857877641373     0.805806605700     0.883678611407
    H           -2.076837787181     2.290482977621     1.451294115947
    H           -2.582259669577     0.691077993142     2.001159351163
    C           -0.785166555127    -0.534574976145     0.512933576843
    C            0.634170672778    -0.867953873805     0.117643239123
    H           -1.084890781097    -1.173600140741     1.344605885635
    H           -1.448220278869    -0.740943225313    -0.324719498296
    O            0.918104916820    -0.272305787687    -1.109605301558
    H            1.311484259810    -0.513744893907     0.891621972224
    H            0.740478685679    -1.950375942286     0.045311122775
    C            2.231643795392    -0.418981937494    -1.557880625258
    H            2.211402961691    -0.601438432184    -2.625211295193
    H            2.813044061365     0.474716469129    -1.352411248449
    H            2.724693248310    -1.266405987639    -1.087690094944

  Mulliken Charges: (a.u.)
   Center  Symbol    Alpha    Beta     Spin     Total
       1     H     0.42808  0.42808  0.00000  0.14385
       2     C     3.07944  3.07944  0.00000 -0.15888
       3     O     4.30089  4.30089  0.00000 -0.60177
       4     H     0.41137  0.41137  0.00000  0.17726
       5     H     0.43196  0.43196  0.00000  0.13608
       6     C     2.99345  2.99345  0.00000  0.01309
       7     C     2.99343  2.99343  0.00000  0.01314
       8     H     0.43249  0.43249  0.00000  0.13503
       9     H     0.42280  0.42280  0.00000  0.15440
      10     O     4.30458  4.30458  0.00000 -0.60917
      11     H     0.42267  0.42267  0.00000  0.15465
      12     H     0.43189  0.43189  0.00000  0.13622
      13     C     3.07652  3.07652  0.00000 -0.15304
      14     H     0.41678  0.41678  0.00000  0.16643
      15     H     0.42183  0.42183  0.00000  0.15634
      16     H     0.43181  0.43181  0.00000  0.13637

   Total alpha = 25.00000, Total beta = 25.00000, Total charge = -0.00000
