  ==> Input File <==

--------------------------------------------------------------------------
set {
	reference rhf
	basis 6-31G*
}

set_num_threads( 4 )
memory 2 gb

molecule MOL {
0 1

H	 -1.121156	 -0.717893	 0.469735
N	 -0.712432	 0.000013	 -0.096310
C	 0.734192	 -0.000004	 0.040609
H	 -1.097122	 0.870371	 0.215696
H	 1.139899	 -0.873598	 -0.456463
H	 1.139939	 0.873831	 -0.456100
H	 1.096456	 -0.000300	 1.069655

	symmetry c1
}
set optking {
	frozen_dihedral = ("
		1 2 3 7
	")
}

ee = optimize('scf')
oeprop('DIPOLE', 'QUADRUPOLE', 'MULLIKEN_CHARGES')
f=open( 'psi4out.xyz', 'w' )
f.write( "7  " )
f.write( str(ee) + "\n" )
f.write( MOL.save_string_xyz() )
f.close()
--------------------------------------------------------------------------

    Molecular point group: c1
  Charge       = 0
  Multiplicity = 1
  Basis Set: 6-31G*
  Basis Set:
  @DF-RHF Final Energy:   -95.20957715996191
    Total Energy =                        -95.2095771599619667
    Molecular point group: c1
  Basis Set: 6-31G*
  Basis Set:
  Basis Set: 6-31G*
  Basis Set:
  @DF-RHF Final Energy:   -95.20959338747680
    Total Energy =                        -95.2095933874768434
  Basis Set: 6-31G*
  Basis Set:
  Charge       = 0
  Multiplicity = 1
  Basis Set: 6-31G*
  Basis Set:

    Orbital Energies (a.u.)
    -----------------------

    Doubly Occupied:

       1A    -15.535229     2A    -11.237563     3A     -1.171219
       4A     -0.896771     5A     -0.663992     6A     -0.603112
       7A     -0.556792     8A     -0.517506     9A     -0.384654

  @DF-RHF Final Energy:   -95.20959409791169

   => Energetics <=

    Nuclear Repulsion Energy =             42.3259688291337000
    One-Electron Energy =                -211.9374493968771844
    Two-Electron Energy =                  74.4018864698317799
    DFT Exchange-Correlation Energy =       0.0000000000000000
    Empirical Dispersion Energy =           0.0000000000000000
    PCM Polarization Energy =               0.0000000000000000
    EFP Energy =                            0.0000000000000000
    Total Energy =                        -95.2095940979117046
    Molecular point group: c1
  Basis Set: 6-31G*
  Basis Set:

  -Total Gradient:
     Atom            X                  Y                   Z
    ------   -----------------  -----------------  -----------------
       1       -0.000067439704     0.000927110138     0.001068156166
       2        0.000197461023    -0.001494707970    -0.001358569529
       3       -0.000171302731     0.001946075348     0.000276556487
       4       -0.000007236446    -0.000013378185     0.000001670586
       5        0.000038946839    -0.000005471727     0.000009803903
       6       -0.000034759214    -0.000008367870    -0.000009787703
       7        0.000044330232    -0.001351259735     0.000012170089

  **** Optimization is complete! (in 3 steps) ****
    Final optimized geometry and variables:
    Molecular point group: c1

    Geometry (in Angstrom), charge = 0, multiplicity = 1:

    H           -1.120567434101    -0.723824019507     0.467903904077
    N           -0.712963164956    -0.004794951476    -0.097940988092
    C            0.734410655541    -0.004293440228     0.041903753465
    H           -1.094600066997     0.861705032672     0.229020108758
    H            1.142150244402    -0.881432456675    -0.448179273818
    H            1.141529913631     0.866089547779    -0.458850115419
    H            1.093145426385    -0.004794111692     1.071990956865

  Mulliken Charges: (a.u.)
   Center  Symbol    Alpha    Beta     Spin     Total
       1     H     0.33397  0.33397  0.00000  0.33206
       2     N     3.91603  3.91603  0.00000 -0.83205
       3     C     3.14833  3.14833  0.00000 -0.29666
       4     H     0.33417  0.33417  0.00000  0.33165
       5     H     0.41664  0.41664  0.00000  0.16671
       6     H     0.41763  0.41763  0.00000  0.16475
       7     H     0.43323  0.43323  0.00000  0.13354

   Total alpha =  9.00000, Total beta =  9.00000, Total charge = -0.00000
