  ==> Input File <==

--------------------------------------------------------------------------
set {
	reference rhf
	basis 6-31G*
}

set_num_threads( 1 )
memory 2 gb

molecule MOL {
0 1

H	 -0.809003	 -1.263153	 -0.404455
O	 -1.422729	 -0.573567	 -0.196946
C	 -0.731407	 0.539437	 0.309156
C	 0.680193	 0.672443	 -0.251532
H	 -1.319765	 1.404033	 0.030086
H	 -0.700012	 0.506517	 1.397677
C	 1.599139	 -0.492137	 0.118598
H	 0.616402	 0.758534	 -1.332349
H	 1.107032	 1.602637	 0.117369
H	 1.239738	 -1.428634	 -0.297334
H	 2.601428	 -0.335055	 -0.265730
H	 1.674954	 -0.608418	 1.197020

	symmetry c1
}
set optking {
	frozen_dihedral = ("
		8 4 3 2
	")
}

ee = energy('scf')
oeprop('DIPOLE', 'QUADRUPOLE', 'MULLIKEN_CHARGES')
f=open( 'psi4out.xyz', 'w' )
f.write( "12  " )
f.write( str(ee) + "\n" )
f.write( MOL.save_string_xyz() )
f.close()
--------------------------------------------------------------------------

    Molecular point group: c1

    Geometry (in Angstrom), charge = 0, multiplicity = 1:

       Center              X                  Y                   Z               Mass
    ------------   -----------------  -----------------  -----------------  -----------------
           H         -0.813398113031    -1.264888039060    -0.394635653172     1.007825032070
           O         -1.427124113031    -0.575302039060    -0.187126653172    15.994914619560
           C         -0.735802113031     0.537701960940     0.318975346828    12.000000000000
           C          0.675797886969     0.670707960940    -0.241712653172    12.000000000000
           H         -1.324160113031     1.402297960940     0.039905346828     1.007825032070
           H         -0.704407113031     0.504781960940     1.407496346828     1.007825032070
           C          1.594743886969    -0.493872039060     0.128417346828    12.000000000000
           H          0.612006886969     0.756798960940    -1.322529653172     1.007825032070
           H          1.102636886969     1.600901960940     0.127188346828     1.007825032070
           H          1.235342886969    -1.430369039060    -0.287514653172     1.007825032070
           H          2.597032886969    -0.336790039060    -0.255910653172     1.007825032070
           H          1.670558886969    -0.610153039060     1.206839346828     1.007825032070

  Charge       = 0
  Multiplicity = 1
  Basis Set: 6-31G*
  Basis Set:

    Orbital Energies (a.u.)
    -----------------------

    Doubly Occupied:

       1A    -20.550267     2A    -11.267020     3A    -11.225826
       4A    -11.224457     5A     -1.358607     6A     -1.055953
       7A     -0.931046     8A     -0.816639     9A     -0.681564
      10A     -0.644297    11A     -0.616288    12A     -0.585118
      13A     -0.549946    14A     -0.510026    15A     -0.496554
      16A     -0.467453    17A     -0.430719

  @DF-RHF Final Energy:  -193.10761125678167

   => Energetics <=

    Nuclear Repulsion Energy =            133.3829826498274258
    One-Electron Energy =                -526.1577015559863639
    Two-Electron Energy =                 199.6671076493772148
    DFT Exchange-Correlation Energy =       0.0000000000000000
    Empirical Dispersion Energy =           0.0000000000000000
    PCM Polarization Energy =               0.0000000000000000
    EFP Energy =                            0.0000000000000000
    Total Energy =                       -193.1076112567816949

  Mulliken Charges: (a.u.)
   Center  Symbol    Alpha    Beta     Spin     Total
       1     H     0.27818  0.27818  0.00000  0.44363
       2     O     4.37668  4.37668  0.00000 -0.75336
       3     C     2.98168  2.98168  0.00000  0.03665
       4     C     3.17919  3.17919  0.00000 -0.35837
       5     H     0.41771  0.41771  0.00000  0.16458
       6     H     0.43076  0.43076  0.00000  0.13848
       7     C     3.24739  3.24739  0.00000 -0.49477
       8     H     0.41446  0.41446  0.00000  0.17108
       9     H     0.41779  0.41779  0.00000  0.16443
      10     H     0.42817  0.42817  0.00000  0.14366
      11     H     0.41196  0.41196  0.00000  0.17608
      12     H     0.41604  0.41604  0.00000  0.16792

   Total alpha = 17.00000, Total beta = 17.00000, Total charge = -0.00000
