  ==> Input File <==

--------------------------------------------------------------------------
set {
	reference rhf
	basis 6-31G*
}

set_num_threads( 4 )
memory 2 gb

molecule MOL {
0 1

H	 0.572572	 4.776128	 0.184161
N	 -0.223952	 4.176433	 0.086897
C	 0.182041	 2.778473	 0.066824
H	 -0.669676	 4.424979	 -0.775881
C	 -1.038622	 1.865654	 0.016852
H	 0.738279	 2.583703	 0.978703
H	 0.849310	 2.537265	 -0.764421
C	 -0.679275	 0.379305	 0.025956
H	 -1.678719	 2.102381	 0.861879
H	 -1.615339	 2.091471	 -0.879665
C	 -1.903357	 -0.536963	 -0.023547
H	 -0.100339	 0.153584	 0.920233
H	 -0.031356	 0.155767	 -0.820258
C	 -3.225172	 0.228290	 0.028445
H	 -1.867824	 -1.134999	 -0.931459
H	 -1.860449	 -1.239604	 0.805977
H	 -3.313397	 0.915643	 -0.808262
H	 -4.073500	 -0.448134	 -0.008893
H	 -3.306061	 0.809945	 0.942516

	symmetry c1
}
set optking {
	frozen_dihedral = ("
		12 8 11 15
	")
}

ee = optimize('scf')
oeprop('DIPOLE', 'QUADRUPOLE', 'MULLIKEN_CHARGES')
f=open( 'psi4out.xyz', 'w' )
f.write( "19  " )
f.write( str(ee) + "\n" )
f.write( MOL.save_string_xyz() )
f.close()
--------------------------------------------------------------------------

    Molecular point group: c1
  Charge       = 0
  Multiplicity = 1
  Basis Set: 6-31G*
  Basis Set:
  @DF-RHF Final Energy:  -251.33748655420385
    Total Energy =                       -251.3374865542037924
    Molecular point group: c1
  Basis Set: 6-31G*
  Basis Set:
  Basis Set: 6-31G*
  Basis Set:
  @DF-RHF Final Energy:  -251.33762860007022
    Total Energy =                       -251.3376286000700475
  Basis Set: 6-31G*
  Basis Set:
  Basis Set: 6-31G*
  Basis Set:
  @DF-RHF Final Energy:  -251.34135941763009
    Total Energy =                       -251.3413594176298602
  Basis Set: 6-31G*
  Basis Set:
  Basis Set: 6-31G*
  Basis Set:
  @DF-RHF Final Energy:  -251.34192803848404
    Total Energy =                       -251.3419280384841272
  Basis Set: 6-31G*
  Basis Set:
  @DF-RHF Final Energy:  -251.34199658749628
    Total Energy =                       -251.3419965874960553
  Basis Set: 6-31G*
  Basis Set:
  @DF-RHF Final Energy:  -251.34200713638847
    Total Energy =                       -251.3420071363883608
  Basis Set: 6-31G*
  Basis Set:
  Basis Set: 6-31G*
  Basis Set:
  @DF-RHF Final Energy:  -251.34200895913594
    Total Energy =                       -251.3420089591357964
  Basis Set: 6-31G*
  Basis Set:
  Basis Set: 6-31G*
  Basis Set:
  @DF-RHF Final Energy:  -251.34201324817712
    Total Energy =                       -251.3420132481771248
  Basis Set: 6-31G*
  Basis Set:
  Charge       = 0
  Multiplicity = 1
  Basis Set: 6-31G*
  Basis Set:

    Orbital Energies (a.u.)
    -----------------------

    Doubly Occupied:

       1A    -15.532366     2A    -11.239530     3A    -11.214455
       4A    -11.213111     5A    -11.209092     6A    -11.206160
       7A     -1.176470     8A     -1.067728     9A     -0.994369
      10A     -0.904326    11A     -0.826740    12A     -0.770169
      13A     -0.663773    14A     -0.639113    15A     -0.610242
      16A     -0.596879    17A     -0.575129    18A     -0.535098
      19A     -0.526670    20A     -0.504523    21A     -0.490314
      22A     -0.459110    23A     -0.451651    24A     -0.443571
      25A     -0.380980

  @DF-RHF Final Energy:  -251.34201323720634

   => Energetics <=

    Nuclear Repulsion Energy =            249.2205223526576106
    One-Electron Energy =                -832.6619318196795803
    Two-Electron Energy =                 332.0993962298156248
    DFT Exchange-Correlation Energy =       0.0000000000000000
    Empirical Dispersion Energy =           0.0000000000000000
    PCM Polarization Energy =               0.0000000000000000
    EFP Energy =                            0.0000000000000000
    Total Energy =                       -251.3420132372062881
    Molecular point group: c1
  Basis Set: 6-31G*
  Basis Set:

  -Total Gradient:
     Atom            X                  Y                   Z
    ------   -----------------  -----------------  -----------------
       1        0.000000014239     0.000002105286    -0.000000421520
       2        0.000003530357     0.000002058733     0.000001159260
       3       -0.000002735744     0.000000234034    -0.000009095984
       4        0.000000738049    -0.000001202858     0.000000403426
       5       -0.000001128214    -0.000004036314     0.000013217536
       6       -0.000003476985     0.000002227888    -0.000000984249
       7        0.000003278323    -0.000000458909     0.000000438034
       8       -0.001333522614     0.001506751661     0.001768020205
       9        0.000002732086     0.000000085474    -0.000000233183
      10       -0.000004397229    -0.000001111871    -0.000000450206
      11       -0.001248649020     0.001682440182    -0.001684942457
      12        0.001315310287    -0.001538553673    -0.001223523662
      13        0.000002028744     0.000000048455     0.000001123220
      14        0.000001141990     0.000000879500    -0.000006038805
      15        0.001264401982    -0.001648938126     0.001135739080
      16       -0.000000861162    -0.000003311140    -0.000000564972
      17       -0.000001973385    -0.000005023725     0.000000460409
      18        0.000000188293    -0.000000572536     0.000005059931
      19        0.000003380004     0.000006377941     0.000000633936

  **** Optimization is complete! (in 9 steps) ****
    Final optimized geometry and variables:
    Molecular point group: c1

    Geometry (in Angstrom), charge = 0, multiplicity = 1:

    H            1.859993333895     3.239367707456     0.157211662455
    N            1.036820225104     2.679495042637     0.045413358582
    C            1.372536958695     1.262743532351     0.047412682827
    H            0.625434329202     2.941681175581    -0.830295770228
    C            0.107868899947     0.412240570676    -0.021537899949
    H            1.898074056988     1.049982721258     0.973439738940
    H            2.045304726843     0.980433156689    -0.766185963423
    C            0.418147603738    -1.086916300323     0.009304741445
    H           -0.533880567366     0.695978556800     0.805301490871
    H           -0.431788705054     0.660865359335    -0.933544053386
    C           -0.789844992753    -2.062506300826    -0.065912397489
    H            0.995042430861    -1.306777006364     0.904180051890
    H            1.089205080619    -1.309054922206    -0.817154781387
    C           -2.190010930591    -1.451186457142     0.027952877279
    H           -0.721466513320    -2.641801270028    -0.982233165200
    H           -0.691497137278    -2.791667100574     0.733529709562
    H           -2.388694196310    -0.756424957504    -0.781023636147
    H           -2.939012377277    -2.235579344015    -0.024706854318
    H           -2.337774676752    -0.921931606016     0.963593394137

  Mulliken Charges: (a.u.)
   Center  Symbol    Alpha    Beta     Spin     Total
       1     H     0.33249  0.33249  0.00000  0.33502
       2     N     3.92204  3.92204  0.00000 -0.84408
       3     C     3.06001  3.06001  0.00000 -0.12002
       4     H     0.33542  0.33542  0.00000  0.32915
       5     C     3.15358  3.15358  0.00000 -0.30716
       6     H     0.42094  0.42094  0.00000  0.15811
       7     H     0.43484  0.43484  0.00000  0.13033
       8     C     3.16088  3.16088  0.00000 -0.32176
       9     H     0.41130  0.41130  0.00000  0.17739
      10     H     0.42689  0.42689  0.00000  0.14621
      11     C     3.15473  3.15473  0.00000 -0.30945
      12     H     0.42123  0.42123  0.00000  0.15755
      13     H     0.42249  0.42249  0.00000  0.15502
      14     C     3.24161  3.24161  0.00000 -0.48323
      15     H     0.42115  0.42115  0.00000  0.15770
      16     H     0.42058  0.42058  0.00000  0.15883
      17     H     0.42055  0.42055  0.00000  0.15891
      18     H     0.41979  0.41979  0.00000  0.16041
      19     H     0.41947  0.41947  0.00000  0.16106

   Total alpha = 25.00000, Total beta = 25.00000, Total charge =  0.00000
