  ==> Input File <==

--------------------------------------------------------------------------
set {
	reference rhf
	basis 6-31G*
}

set_num_threads( 1 )
memory 2 gb

molecule MOL {
0 1

H	 -3.261111	 -0.295142	 1.469456
C	 -3.306842	 -0.277400	 0.373456
C	 -2.660244	 0.921717	 -0.272021
O	 -3.838538	 -1.161155	 -0.216482
C	 -1.220012	 1.144545	 0.209990
H	 -2.705793	 0.797307	 -1.347733
H	 -3.263782	 1.790044	 -0.010477
C	 -0.252658	 0.041456	 -0.226725
H	 -0.873521	 2.100229	 -0.171974
H	 -1.211708	 1.231594	 1.295398
C	 1.180775	 0.282413	 0.250794
H	 -0.266029	 -0.034465	 -1.312038
H	 -0.597733	 -0.921000	 0.146291
C	 2.148627	 -0.814315	 -0.201312
H	 1.516199	 1.249228	 -0.115937
H	 1.192670	 0.346017	 1.338083
C	 3.580890	 -0.659131	 0.322722
H	 2.166869	 -0.852443	 -1.289387
H	 1.762857	 -1.776509	 0.128956
C	 3.962307	 0.768711	 0.716940
H	 4.266994	 -1.002357	 -0.447606
H	 3.726500	 -1.320532	 1.174349
H	 3.811154	 1.455802	 -0.111508
H	 3.377025	 1.128758	 1.556455
H	 5.008288	 0.822606	 1.003321

	symmetry c1
}
set optking {
	frozen_dihedral = ("
		6 3 5 8,
		6 3 2 4,
		3 5 8 12,
		12 8 11 14,
		8 11 14 18
	")
}

ee = energy('scf')
oeprop('DIPOLE', 'QUADRUPOLE', 'MULLIKEN_CHARGES')
f=open( 'psi4out.xyz', 'w' )
f.write( "25  " )
f.write( str(ee) + "\n" )
f.write( MOL.save_string_xyz() )
f.close()
--------------------------------------------------------------------------

    Molecular point group: c1

    Geometry (in Angstrom), charge = 0, multiplicity = 1:

       Center              X                  Y                   Z               Mass
    ------------   -----------------  -----------------  -----------------  -----------------
           H         -3.218655023276    -0.319177580284     1.360534518870     1.007825032070
           C         -3.264386023276    -0.301435580284     0.264534518870    12.000000000000
           C         -2.617788023276     0.897681419716    -0.380942481130    12.000000000000
           O         -3.796082023276    -1.185190580284    -0.325403481130    15.994914619560
           C         -1.177556023276     1.120509419716     0.101068518870    12.000000000000
           H         -2.663337023276     0.773271419716    -1.456654481130     1.007825032070
           H         -3.221326023276     1.766008419716    -0.119398481130     1.007825032070
           C         -0.210202023276     0.017420419716    -0.335646481130    12.000000000000
           H         -0.831065023276     2.076193419716    -0.280895481130     1.007825032070
           H         -1.169252023276     1.207558419716     1.186476518870     1.007825032070
           C          1.223230976724     0.258377419716     0.141872518870    12.000000000000
           H         -0.223573023276    -0.058500580284    -1.420959481130     1.007825032070
           H         -0.555277023276    -0.945035580284     0.037369518870     1.007825032070
           C          2.191082976724    -0.838350580284    -0.310233481130    12.000000000000
           H          1.558654976724     1.225192419716    -0.224858481130     1.007825032070
           H          1.235125976724     0.321981419716     1.229161518870     1.007825032070
           C          3.623345976724    -0.683166580284     0.213800518870    12.000000000000
           H          2.209324976724    -0.876478580284    -1.398308481130     1.007825032070
           H          1.805312976724    -1.800544580284     0.020034518870     1.007825032070
           C          4.004762976724     0.744675419716     0.608018518870    12.000000000000
           H          4.309449976724    -1.026392580284    -0.556527481130     1.007825032070
           H          3.768955976724    -1.344567580284     1.065427518870     1.007825032070
           H          3.853609976724     1.431766419716    -0.220429481130     1.007825032070
           H          3.419480976724     1.104722419716     1.447533518870     1.007825032070
           H          5.050743976724     0.798570419716     0.894399518870     1.007825032070

  Charge       = 0
  Multiplicity = 1
  Basis Set: 6-31G*
  Basis Set:

    Orbital Energies (a.u.)
    -----------------------

    Doubly Occupied:

       1A    -20.561858     2A    -11.326009     3A    -11.235078
       4A    -11.234420     5A    -11.223282     6A    -11.219332
       7A    -11.216961     8A    -11.215953     9A    -11.210478
      10A     -1.401839    11A     -1.104226    12A     -1.070443
      13A     -1.011395    14A     -0.940888    15A     -0.879894
      16A     -0.823571    17A     -0.787723    18A     -0.772541
      19A     -0.665086    20A     -0.663542    21A     -0.638394
      22A     -0.624148    23A     -0.602661    24A     -0.590192
      25A     -0.574249    26A     -0.551882    27A     -0.535513
      28A     -0.521204    29A     -0.516244    30A     -0.495695
      31A     -0.488715    32A     -0.482168    33A     -0.461287
      34A     -0.450935    35A     -0.442118    36A     -0.409387

  @DF-RHF Final Energy:  -387.11511220848837

   => Energetics <=

    Nuclear Repulsion Energy =            441.8080009206569798
    One-Electron Energy =               -1399.9476890759376602
    Two-Electron Energy =                 571.0245759467912876
    DFT Exchange-Correlation Energy =       0.0000000000000000
    Empirical Dispersion Energy =           0.0000000000000000
    PCM Polarization Energy =               0.0000000000000000
    EFP Energy =                            0.0000000000000000
    Total Energy =                       -387.1151122084894496

  Mulliken Charges: (a.u.)
   Center  Symbol    Alpha    Beta     Spin     Total
       1     H     0.43266  0.43266  0.00000  0.13469
       2     C     2.83079  2.83079  0.00000  0.33842
       3     C     3.20809  3.20809  0.00000 -0.41619
       4     O     4.23780  4.23780  0.00000 -0.47559
       5     C     3.16649  3.16649  0.00000 -0.33299
       6     H     0.39973  0.39973  0.00000  0.20055
       7     H     0.40676  0.40676  0.00000  0.18648
       8     C     3.15389  3.15389  0.00000 -0.30777
       9     H     0.41297  0.41297  0.00000  0.17406
      10     H     0.41980  0.41980  0.00000  0.16041
      11     C     3.15713  3.15713  0.00000 -0.31425
      12     H     0.41828  0.41828  0.00000  0.16344
      13     H     0.41868  0.41868  0.00000  0.16263
      14     C     3.15473  3.15473  0.00000 -0.30945
      15     H     0.41979  0.41979  0.00000  0.16042
      16     H     0.42298  0.42298  0.00000  0.15403
      17     C     3.15355  3.15355  0.00000 -0.30710
      18     H     0.42131  0.42131  0.00000  0.15738
      19     H     0.41973  0.41973  0.00000  0.16054
      20     C     3.24474  3.24474  0.00000 -0.48949
      21     H     0.41965  0.41965  0.00000  0.16070
      22     H     0.42096  0.42096  0.00000  0.15808
      23     H     0.42170  0.42170  0.00000  0.15661
      24     H     0.41975  0.41975  0.00000  0.16049
      25     H     0.41805  0.41805  0.00000  0.16390

   Total alpha = 36.00000, Total beta = 36.00000, Total charge = -0.00000
