  ==> Input File <==

--------------------------------------------------------------------------
set {
	reference rhf
	basis 6-31G*
}

set_num_threads( 4 )
memory 2 gb

molecule MOL {
0 1

O	 3.225979	 0.970355	 -0.599647
C	 2.701189	 0.057885	 -0.047330
C	 1.245376	 -0.013843	 0.345420
O	 3.347903	 -1.046386	 0.304773
C	 0.455112	 1.231400	 -0.050772
H	 0.838542	 -0.913825	 -0.103701
H	 1.208210	 -0.175333	 1.419774
C	 -0.998893	 1.219485	 0.433193
H	 0.482531	 1.345121	 -1.130325
H	 0.957290	 2.103070	 0.354729
C	 -1.883438	 0.145884	 -0.207175
H	 -1.431207	 2.195402	 0.224832
H	 -1.019646	 1.105716	 1.516076
C	 -3.347647	 0.245583	 0.225435
H	 -1.822183	 0.231698	 -1.291012
H	 -1.510341	 -0.844814	 0.042401
C	 -4.239992	 -0.825570	 -0.404234
H	 -3.732888	 1.230466	 -0.033079
H	 -3.408585	 0.170602	 1.310038
C	 -3.555506	 -1.578835	 -1.544310
H	 -4.547637	 -1.533724	 0.362261
H	 -5.152070	 -0.362369	 -0.774828
H	 -4.212789	 -2.330754	 -1.969989
H	 -2.657510	 -2.082575	 -1.197835
H	 -3.266094	 -0.902031	 -2.343341
C	 4.728119	 -1.109107	 -0.004993
H	 4.882018	 -1.033965	 -1.071845
H	 5.068212	 -2.067527	 0.355250
H	 5.265056	 -0.311663	 0.488280

	symmetry c1
}
set optking {
	frozen_dihedral = ("
		21 17 14 11
	")
}

ee = optimize('scf')
oeprop('DIPOLE', 'QUADRUPOLE', 'MULLIKEN_CHARGES')
f=open( 'psi4out.xyz', 'w' )
f.write( "29  " )
f.write( str(ee) + "\n" )
f.write( MOL.save_string_xyz() )
f.close()
--------------------------------------------------------------------------

    Molecular point group: c1
  Charge       = 0
  Multiplicity = 1
  Basis Set: 6-31G*
  Basis Set:
  @DF-RHF Final Energy:  -501.03095727212201
    Total Energy =                       -501.0309572721221230
    Molecular point group: c1
  Basis Set: 6-31G*
  Basis Set:
  Basis Set: 6-31G*
  Basis Set:
  @DF-RHF Final Energy:  -501.03125148392598
    Total Energy =                       -501.0312514839257574
  Basis Set: 6-31G*
  Basis Set:
  Basis Set: 6-31G*
  Basis Set:
  @DF-RHF Final Energy:  -501.03458926130111
    Total Energy =                       -501.0345892613006527
  Basis Set: 6-31G*
  Basis Set:
  Basis Set: 6-31G*
  Basis Set:
  @DF-RHF Final Energy:  -501.03506223680245
    Total Energy =                       -501.0350622368019913
  Basis Set: 6-31G*
  Basis Set:
  @DF-RHF Final Energy:  -501.03510982150669
    Total Energy =                       -501.0351098215068077
  Basis Set: 6-31G*
  Basis Set:
  @DF-RHF Final Energy:  -501.03511855708132
    Total Energy =                       -501.0351185570816597
  Basis Set: 6-31G*
  Basis Set:
  Basis Set: 6-31G*
  Basis Set:
  @DF-RHF Final Energy:  -501.03512076087566
    Total Energy =                       -501.0351207608762252
  Basis Set: 6-31G*
  Basis Set:
  Basis Set: 6-31G*
  Basis Set:
  @DF-RHF Final Energy:  -501.03512623776362
    Total Energy =                       -501.0351262377623698
  Basis Set: 6-31G*
  Basis Set:
  Charge       = 0
  Multiplicity = 1
  Basis Set: 6-31G*
  Basis Set:

    Orbital Energies (a.u.)
    -----------------------

    Doubly Occupied:

       1A    -20.603312     2A    -20.545134     3A    -11.371938
       4A    -11.280614     5A    -11.234655     6A    -11.218932
       7A    -11.217352     8A    -11.216318     9A    -11.215522
      10A    -11.214843    11A    -11.209406    12A     -1.469002
      13A     -1.362446    14A     -1.097019    15A     -1.063556
      16A     -1.017277    17A     -0.975614    18A     -0.928062
      19A     -0.873690    20A     -0.804690    21A     -0.773727
      22A     -0.763072    23A     -0.700406    24A     -0.682204
      25A     -0.672086    26A     -0.648094    27A     -0.627330
      28A     -0.602169    29A     -0.600431    30A     -0.587617
      31A     -0.557346    32A     -0.548883    33A     -0.542155
      34A     -0.525096    35A     -0.520689    36A     -0.505007
      37A     -0.503752    38A     -0.477437    39A     -0.472713
      40A     -0.457614    41A     -0.454891    42A     -0.445531
      43A     -0.442521    44A     -0.435784

  @DF-RHF Final Energy:  -501.03512717458148

   => Energetics <=

    Nuclear Repulsion Energy =            617.6382127022461646
    One-Electron Energy =               -1906.4147992478383458
    Two-Electron Energy =                 787.7414593710103645
    DFT Exchange-Correlation Energy =       0.0000000000000000
    Empirical Dispersion Energy =           0.0000000000000000
    PCM Polarization Energy =               0.0000000000000000
    EFP Energy =                            0.0000000000000000
    Total Energy =                       -501.0351271745818167
    Molecular point group: c1
  Basis Set: 6-31G*
  Basis Set:

  -Total Gradient:
     Atom            X                  Y                   Z
    ------   -----------------  -----------------  -----------------
       1       -0.000005012256    -0.000013547479    -0.000032888778
       2        0.000022752365     0.000042333017     0.000080472518
       3       -0.000010787974    -0.000006839092    -0.000039466315
       4       -0.000002547677    -0.000015478942    -0.000027077383
       5        0.000006548237    -0.000004820798     0.000049195049
       6        0.000007049309    -0.000001729673     0.000000480871
       7       -0.000006350511     0.000000709882     0.000000639519
       8        0.000005436384    -0.000002861476    -0.000058504258
       9       -0.000015744842    -0.000026767032     0.000011529713
      10       -0.000000657756     0.000029628568    -0.000010305779
      11       -0.000636172793     0.001960768350    -0.002500947461
      12       -0.000006096363     0.000017329828     0.000011945603
      13        0.000020726638    -0.000032754832    -0.000023726100
      14        0.000049677727    -0.002271605162     0.003857745427
      15       -0.000000004236    -0.000007798338    -0.000015434763
      16        0.000012140405    -0.000009967103    -0.000000614638
      17        0.003907080936    -0.002312532602    -0.002245366268
      18       -0.000015777776     0.000006111601     0.000008446805
      19        0.000001719367     0.000006104096    -0.000005598574
      20        0.000025103909     0.000018874990     0.000016700759
      21       -0.003374625214     0.002623860125     0.000915311077
      22       -0.000011318899    -0.000006756097     0.000005643423
      23        0.000003255527     0.000004515242    -0.000004264349
      24        0.000005589754    -0.000006172761     0.000000216491
      25        0.000017018683     0.000009153130     0.000002756803
      26        0.000001530992     0.000001909324     0.000006066230
      27       -0.000001522272    -0.000000160964    -0.000000500709
      28       -0.000000247188    -0.000000710849    -0.000001197070
      29        0.000001235529    -0.000000794949    -0.000001257845

  **** Optimization is complete! (in 9 steps) ****
    Final optimized geometry and variables:
    Molecular point group: c1

    Geometry (in Angstrom), charge = 0, multiplicity = 1:

    O            3.054791297701     1.088947858187    -0.411655290014
    C            2.535952442760     0.164815007116     0.126725371180
    C            1.076668998504     0.070003709454     0.501336925934
    O            3.193338156080    -0.933792289724     0.476850381381
    C            0.274016169744     1.307431491383     0.105603697132
    H            0.687713209946    -0.831820721488     0.040257547847
    H            1.028888651532    -0.100663820833     1.573859693569
    C           -1.184763751031     1.273145966434     0.573933040971
    H            0.311405545925     1.429175792110    -0.972773389076
    H            0.760248239233     2.182830076782     0.522435281560
    C           -2.048754631591     0.194265044779    -0.086490429414
    H           -1.626501142107     2.245941971497     0.370266253090
    H           -1.215107532545     1.149160419365     1.655434941998
    C           -3.517526308579     0.298061934829     0.339394801858
    H           -1.968467289494     0.290069812669    -1.166018131331
    H           -1.663846294072    -0.790854783790     0.164972228237
    C           -4.496281274812    -0.749433711561    -0.255511036794
    H           -3.864733330389     1.292370648436     0.068578468911
    H           -3.571359502120     0.254999519106     1.423850849370
    C           -4.011318198576    -1.552460014512    -1.463912256823
    H           -4.813141316806    -1.431511123671     0.528799527530
    H           -5.406451648208    -0.230797166417    -0.545421864091
    H           -4.793187327176    -2.227934631368    -1.797260059684
    H           -3.137881497358    -2.153182043154    -1.234074898901
    H           -3.760398369218    -0.907544461812    -2.300318733651
    C            4.577807709617    -0.975307317125     0.182923760116
    H            4.743171925144    -0.888639778819    -0.881340637048
    H            4.926507892101    -1.932266255788     0.538782578885
    H            5.098152876315    -0.175186462296     0.689466914499

  Mulliken Charges: (a.u.)
   Center  Symbol    Alpha    Beta     Spin     Total
       1     O     4.28597  4.28597  0.00000 -0.57195
       2     C     2.60482  2.60482  0.00000  0.79036
       3     C     3.20964  3.20964  0.00000 -0.41928
       4     O     4.30748  4.30748  0.00000 -0.61496
       5     C     3.15354  3.15354  0.00000 -0.30708
       6     H     0.39894  0.39894  0.00000  0.20212
       7     H     0.40128  0.40128  0.00000  0.19745
       8     C     3.15673  3.15673  0.00000 -0.31346
       9     H     0.41323  0.41323  0.00000  0.17353
      10     H     0.40875  0.40875  0.00000  0.18250
      11     C     3.15745  3.15745  0.00000 -0.31490
      12     H     0.41843  0.41843  0.00000  0.16315
      13     H     0.42396  0.42396  0.00000  0.15207
      14     C     3.15515  3.15515  0.00000 -0.31029
      15     H     0.42045  0.42045  0.00000  0.15909
      16     H     0.42317  0.42317  0.00000  0.15366
      17     C     3.15544  3.15544  0.00000 -0.31089
      18     H     0.42193  0.42193  0.00000  0.15614
      19     H     0.42083  0.42083  0.00000  0.15834
      20     C     3.24176  3.24176  0.00000 -0.48352
      21     H     0.42102  0.42102  0.00000  0.15796
      22     H     0.42046  0.42046  0.00000  0.15907
      23     H     0.41886  0.41886  0.00000  0.16227
      24     H     0.42069  0.42069  0.00000  0.15862
      25     H     0.42085  0.42085  0.00000  0.15830
      26     C     3.09240  3.09240  0.00000 -0.18481
      27     H     0.40908  0.40908  0.00000  0.18184
      28     H     0.40853  0.40853  0.00000  0.18295
      29     H     0.40914  0.40914  0.00000  0.18173

   Total alpha = 44.00000, Total beta = 44.00000, Total charge = -0.00000
