  ==> Input File <==

--------------------------------------------------------------------------
set {
	reference rhf
	basis 6-31G*
}

set_num_threads( 4 )
memory 2 gb

molecule MOL {
0 1

H	 2.556920	 1.993440	 -1.972176
O	 1.619488	 1.902900	 -2.070313
C	 1.088455	 1.214815	 -1.036420
C	 1.862573	 0.726324	 0.008291
C	 -0.279132	 1.002444	 -1.042231
H	 2.926693	 0.892694	 0.010889
C	 1.269254	 0.026465	 1.045518
H	 -0.878231	 1.379225	 -1.848576
C	 -0.865228	 0.300799	 0.000000
H	 1.878633	 -0.346724	 1.848491
C	 -0.096794	 -0.190421	 1.047847
C	 -2.333960	 0.069074	 0.000000
H	 -0.559737	 -0.733771	 1.852496
O	 -2.847347	 -1.003763	 0.000000
H	 -2.943845	 0.977528	 0.000000

	symmetry c1
}
set optking {
	frozen_dihedral = ("
		11 9 12 14
	")
}

ee = optimize('scf')
oeprop('DIPOLE', 'QUADRUPOLE', 'MULLIKEN_CHARGES')
f=open( 'psi4out.xyz', 'w' )
f.write( "15  " )
f.write( str(ee) + "\n" )
f.write( MOL.save_string_xyz() )
f.close()
--------------------------------------------------------------------------

    Molecular point group: c1
  Charge       = 0
  Multiplicity = 1
  Basis Set: 6-31G*
  Basis Set:
  @DF-RHF Final Energy:  -418.27674824889084
    Total Energy =                       -418.2767482488904989
    Molecular point group: c1
  Basis Set: 6-31G*
  Basis Set:
  Basis Set: 6-31G*
  Basis Set:
  @DF-RHF Final Energy:  -418.27601160566974
    Total Energy =                       -418.2760116056699644
  Basis Set: 6-31G*
  Basis Set:
  Basis Set: 6-31G*
  Basis Set:
  @DF-RHF Final Energy:  -418.27699448299853
    Total Energy =                       -418.2769944829982478
  Basis Set: 6-31G*
  Basis Set:
  Basis Set: 6-31G*
  Basis Set:
  @DF-RHF Final Energy:  -418.27741825167590
    Total Energy =                       -418.2774182516765222
  Basis Set: 6-31G*
  Basis Set:
  Basis Set: 6-31G*
  Basis Set:
  @DF-RHF Final Energy:  -418.27742076849574
    Total Energy =                       -418.2774207684951762
  Basis Set: 6-31G*
  Basis Set:
  Charge       = 0
  Multiplicity = 1
  Basis Set: 6-31G*
  Basis Set:

    Orbital Energies (a.u.)
    -----------------------

    Doubly Occupied:

       1A    -20.603870     2A    -20.570791     3A    -11.335474
       4A    -11.314419     5A    -11.256076     6A    -11.251561
       7A    -11.244398     8A    -11.242288     9A    -11.239564
      10A     -1.423516    11A     -1.410120    12A     -1.168454
      13A     -1.049366    14A     -1.023762    15A     -0.899977
      16A     -0.843310    17A     -0.815981    18A     -0.738482
      19A     -0.700056    20A     -0.670756    21A     -0.668631
      22A     -0.633984    23A     -0.613417    24A     -0.601962
      25A     -0.582041    26A     -0.541703    27A     -0.533898
      28A     -0.513639    29A     -0.490054    30A     -0.423490
      31A     -0.354041    32A     -0.324200

  @DF-RHF Final Energy:  -418.27742116652365

   => Energetics <=

    Nuclear Repulsion Energy =            401.7903097119744302
    One-Electron Energy =               -1365.9689045813975099
    Two-Electron Energy =                 545.9011737028996549
    DFT Exchange-Correlation Energy =       0.0000000000000000
    Empirical Dispersion Energy =           0.0000000000000000
    PCM Polarization Energy =               0.0000000000000000
    EFP Energy =                            0.0000000000000000
    Total Energy =                       -418.2774211665233679
    Molecular point group: c1
  Basis Set: 6-31G*
  Basis Set:

  -Total Gradient:
     Atom            X                  Y                   Z
    ------   -----------------  -----------------  -----------------
       1        0.000000397293     0.000003781723    -0.000000427869
       2        0.000010159698    -0.000000673913     0.000012638955
       3       -0.000093034844    -0.000003700454    -0.000052998749
       4        0.000009521961    -0.000032639302     0.000097739294
       5        0.000045656301     0.000012875618    -0.000019306831
       6       -0.000002188391     0.000007792903    -0.000002130665
       7        0.000095647274     0.000010655521    -0.000079847325
       8        0.000006433669     0.000002540502    -0.000004214318
       9        0.000831390609    -0.007169758886    -0.006654099335
      10       -0.000005700307     0.000003575234     0.000008960402
      11       -0.000668679377     0.004825529934     0.002545742619
      12       -0.000253566048     0.002562151317     0.010810665550
      13        0.000000434560     0.000000217250    -0.000003976200
      14       -0.000007758024    -0.000221607833    -0.006668240757
      15        0.000031285629    -0.000000739612     0.000009495228

  **** Optimization is complete! (in 6 steps) ****
    Final optimized geometry and variables:
    Molecular point group: c1

    Geometry (in Angstrom), charge = 0, multiplicity = 1:

    H            2.621453174068     1.535328708029    -1.717990524266
    O            1.682645446680     1.446421272384    -1.805273727694
    C            1.166179049761     0.750665187392    -0.769618010415
    C            1.945067782739     0.270739277397     0.271589633211
    C           -0.204237734828     0.536357012491    -0.766601229149
    H            3.007070435533     0.449128768208     0.277033349870
    C            1.351247033360    -0.431757204768     1.308430213152
    H           -0.792995798782     0.937023085424    -1.572210065460
    C           -0.781141617201    -0.198008574524     0.255155581778
    H            1.960591520025    -0.791466237344     2.117747889152
    C           -0.010222438088    -0.671237317626     1.310168590988
    C           -2.266025068069    -0.383097328373     0.268566059711
    H           -0.470213435501    -1.226328407103     2.106326305418
    O           -2.802347482134    -1.442318786771     0.308430791567
    H           -2.853939777234     0.535500869050     0.187733529590

  Mulliken Charges: (a.u.)
   Center  Symbol    Alpha    Beta     Spin     Total
       1     H     0.27003  0.27003  0.00000  0.45995
       2     O     4.37682  4.37682  0.00000 -0.75364
       3     C     2.79181  2.79181  0.00000  0.41638
       4     C     3.14003  3.14003  0.00000 -0.28005
       5     C     3.13060  3.13060  0.00000 -0.26121
       6     H     0.40011  0.40011  0.00000  0.19978
       7     C     3.09051  3.09051  0.00000 -0.18103
       8     H     0.38570  0.38570  0.00000  0.22860
       9     C     3.02531  3.02531  0.00000 -0.05061
      10     H     0.39310  0.39310  0.00000  0.21379
      11     C     3.11166  3.11166  0.00000 -0.22332
      12     C     2.84770  2.84770  0.00000  0.30461
      13     H     0.38733  0.38733  0.00000  0.22534
      14     O     4.22795  4.22795  0.00000 -0.45590
      15     H     0.42134  0.42134  0.00000  0.15731

   Total alpha = 32.00000, Total beta = 32.00000, Total charge = -0.00000
