  ==> Input File <==

--------------------------------------------------------------------------
set {
	reference rhf
	basis 6-31G*
}

set_num_threads( 1 )
memory 2 gb

molecule MOL {
0 1

H	 -0.949262	 6.459695	 3.505282
C	 -1.815057	 5.805968	 3.465749
C	 -1.631493	 4.708963	 2.417866
H	 -1.953352	 5.380063	 4.455103
H	 -2.683739	 6.420369	 3.245061
C	 -2.838586	 3.772356	 2.331209
H	 -0.742791	 4.132801	 2.654185
H	 -1.460599	 5.166456	 1.444630
C	 -2.691422	 2.674330	 1.277667
H	 -3.012083	 3.312313	 3.297595
H	 -3.725137	 4.356384	 2.094607
C	 -1.678750	 1.595874	 1.633574
H	 -3.645849	 2.169099	 1.137732
H	 -2.438027	 3.097396	 0.308140
C	 -1.181045	 0.701995	 0.511084
O	 -1.298661	 1.440071	 2.755029
C	 -2.285934	 -0.139295	 -0.145128
H	 -0.420201	 0.056796	 0.933635
H	 -0.707309	 1.326427	 -0.244127
C	 -3.651768	 0.085446	 0.506485
H	 -2.346596	 0.110469	 -1.202272
H	 -2.034737	 -1.195320	 -0.088721
C	 -4.759797	 -0.746382	 -0.137905
H	 -3.908762	 1.140117	 0.445781
H	 -3.588286	 -0.154158	 1.565709
H	 -4.868882	 -0.505166	 -1.191300
H	 -4.548009	 -1.809175	 -0.062213
H	 -5.715422	 -0.564821	 0.343442

	symmetry c1
}
set optking {
	frozen_dihedral = ("
		10 6 3 2,
		16 12 15 17
	")
}

ee = energy('scf')
oeprop('DIPOLE', 'QUADRUPOLE', 'MULLIKEN_CHARGES')
f=open( 'psi4out.xyz', 'w' )
f.write( "28  " )
f.write( str(ee) + "\n" )
f.write( MOL.save_string_xyz() )
f.close()
--------------------------------------------------------------------------

    Molecular point group: c1

    Geometry (in Angstrom), charge = 0, multiplicity = 1:

       Center              X                  Y                   Z               Mass
    ------------   -----------------  -----------------  -----------------  -----------------
           H          1.444989025900     4.463371210204     2.033357528205     1.007825032070
           C          0.579194025900     3.809644210204     1.993824528205    12.000000000000
           C          0.762758025900     2.712639210204     0.945941528205    12.000000000000
           H          0.440899025900     3.383739210204     2.983178528205     1.007825032070
           H         -0.289487974100     4.424045210204     1.773136528205     1.007825032070
           C         -0.444334974100     1.776032210204     0.859284528205    12.000000000000
           H          1.651460025900     2.136477210204     1.182260528205     1.007825032070
           H          0.933652025900     3.170132210204    -0.027294471795     1.007825032070
           C         -0.297170974100     0.678006210204    -0.194257471795    12.000000000000
           H         -0.617831974100     1.315989210204     1.825670528205     1.007825032070
           H         -1.330885974100     2.360060210204     0.622682528205     1.007825032070
           C          0.715501025900    -0.400449789796     0.161649528205    12.000000000000
           H         -1.251597974100     0.172775210204    -0.334192471795     1.007825032070
           H         -0.043775974100     1.101072210204    -1.163784471795     1.007825032070
           C          1.213206025900    -1.294328789796    -0.960840471795    12.000000000000
           O          1.095590025900    -0.556252789796     1.283104528205    15.994914619560
           C          0.108317025900    -2.135618789796    -1.617052471795    12.000000000000
           H          1.974050025900    -1.939527789796    -0.538289471795     1.007825032070
           H          1.686942025900    -0.669896789796    -1.716051471795     1.007825032070
           C         -1.257516974100    -1.910877789796    -0.965439471795    12.000000000000
           H          0.047655025900    -1.885854789796    -2.674196471795     1.007825032070
           H          0.359514025900    -3.191643789796    -1.560645471795     1.007825032070
           C         -2.365545974100    -2.742705789796    -1.609829471795    12.000000000000
           H         -1.514510974100    -0.856206789796    -1.026143471795     1.007825032070
           H         -1.194034974100    -2.150481789796     0.093784528205     1.007825032070
           H         -2.474630974100    -2.501489789796    -2.663224471795     1.007825032070
           H         -2.153757974100    -3.805498789796    -1.534137471795     1.007825032070
           H         -3.321170974100    -2.561144789796    -1.128482471795     1.007825032070

  Charge       = 0
  Multiplicity = 1
  Basis Set: 6-31G*
  Basis Set:

    Orbital Energies (a.u.)
    -----------------------

    Doubly Occupied:

       1A    -20.548796     2A    -11.322314     3A    -11.231149
       4A    -11.227397     5A    -11.223660     6A    -11.221421
       7A    -11.215227     8A    -11.214755     9A    -11.210957
      10A    -11.204749    11A     -1.394035    12A     -1.103540
      13A     -1.074146    14A     -1.016140    15A     -0.995997
      16A     -0.904851    17A     -0.885378    18A     -0.816644
      19A     -0.792530    20A     -0.726742    21A     -0.664048
      22A     -0.654365    23A     -0.641967    24A     -0.625868
      25A     -0.610651    26A     -0.581727    27A     -0.575787
      28A     -0.572496    29A     -0.556542    30A     -0.532037
      31A     -0.516548    32A     -0.508321    33A     -0.503560
      34A     -0.490306    35A     -0.479416    36A     -0.469137
      37A     -0.466401    38A     -0.462804    39A     -0.428873
      40A     -0.394053

  @DF-RHF Final Energy:  -426.12783373209436

   => Energetics <=

    Nuclear Repulsion Energy =            552.8195387020620046
    One-Electron Energy =               -1673.7639139970326596
    Two-Electron Energy =                 694.8165415628775463
    DFT Exchange-Correlation Energy =       0.0000000000000000
    Empirical Dispersion Energy =           0.0000000000000000
    PCM Polarization Energy =               0.0000000000000000
    EFP Energy =                            0.0000000000000000
    Total Energy =                       -426.1278337320929950

  Mulliken Charges: (a.u.)
   Center  Symbol    Alpha    Beta     Spin     Total
       1     H     0.41968  0.41968  0.00000  0.16063
       2     C     3.24005  3.24005  0.00000 -0.48010
       3     C     3.15641  3.15641  0.00000 -0.31282
       4     H     0.41864  0.41864  0.00000  0.16271
       5     H     0.42395  0.42395  0.00000  0.15209
       6     C     3.14567  3.14567  0.00000 -0.29134
       7     H     0.41102  0.41102  0.00000  0.17796
       8     H     0.42812  0.42812  0.00000  0.14375
       9     C     3.21909  3.21909  0.00000 -0.43818
      10     H     0.40762  0.40762  0.00000  0.18476
      11     H     0.42309  0.42309  0.00000  0.15382
      12     C     2.73587  2.73587  0.00000  0.52826
      13     H     0.39412  0.39412  0.00000  0.21175
      14     H     0.41342  0.41342  0.00000  0.17317
      15     C     3.20287  3.20287  0.00000 -0.40575
      16     O     4.26598  4.26598  0.00000 -0.53196
      17     C     3.15461  3.15461  0.00000 -0.30923
      18     H     0.39758  0.39758  0.00000  0.20484
      19     H     0.40990  0.40990  0.00000  0.18020
      20     C     3.17678  3.17678  0.00000 -0.35356
      21     H     0.41762  0.41762  0.00000  0.16476
      22     H     0.41051  0.41051  0.00000  0.17897
      23     C     3.23565  3.23565  0.00000 -0.47129
      24     H     0.42004  0.42004  0.00000  0.15992
      25     H     0.41171  0.41171  0.00000  0.17658
      26     H     0.42159  0.42159  0.00000  0.15681
      27     H     0.42019  0.42019  0.00000  0.15962
      28     H     0.41820  0.41820  0.00000  0.16360

   Total alpha = 40.00000, Total beta = 40.00000, Total charge =  0.00000
