                              Psi4 1.0.54 Driver

  ==> Input File <==

--------------------------------------------------------------------------
set {
	reference rhf
	basis cc-pvtz
}

set_num_threads( 4 )
memory 2 gb

molecule MOL {
0 1

H	 5.269878	 0.195679	 1.068175
C	 4.673900	 -0.208485	 0.258034
C	 3.190199	 -0.204714	 0.610086
H	 4.865136	 0.391893	 -0.624684
H	 5.027838	 -1.214511	 0.056939
C	 2.319208	 -0.778154	 -0.505491
H	 2.876954	 0.809861	 0.827925
H	 3.035335	 -0.782733	 1.518235
C	 0.962731	 -1.287510	 -0.028612
H	 2.164736	 -0.024881	 -1.268083
H	 2.845881	 -1.602534	 -0.977505
C	 -0.020713	 -0.198790	 0.366367
H	 0.482425	 -1.854927	 -0.821777
H	 1.076833	 -1.979875	 0.800320
C	 -1.214974	 -0.606759	 1.207006
O	 0.122199	 0.928295	 0.016324
C	 -2.162066	 -1.582965	 0.501030
H	 -1.742387	 0.300300	 1.469529
H	 -0.849679	 -1.059461	 2.125057
C	 -3.400664	 -1.898368	 1.335334
H	 -2.469087	 -1.157022	 -0.450236
H	 -1.642610	 -2.508441	 0.273740
C	 -4.355573	 -2.863342	 0.641001
H	 -3.923037	 -0.974022	 1.562893
H	 -3.092681	 -2.318032	 2.289065
H	 -4.705399	 -2.456867	 -0.301910
H	 -3.871916	 -3.811833	 0.432433
H	 -5.224366	 -3.064105	 1.256797

	symmetry c1
}
set optking {
	frozen_dihedral = ("
		10 6 3 2
	")
}

ee,wfn = optimize('scf', return_wfn=True)
oeprop( wfn, 'DIPOLE', 'QUADRUPOLE', 'MULLIKEN_CHARGES')
f=open( 'psi4out.xyz', 'w' )
f.write( "28  " )
f.write( str(ee) + "\n" )
f.write( MOL.save_string_xyz() )
f.close()
--------------------------------------------------------------------------

    Molecular point group: c1
  Charge       = 0
  Multiplicity = 1
  Basis Set: CC-PVTZ
  Basis Set:
  @DF-RHF Final Energy:  -426.31822098950784
    Total Energy =                       -426.3182209895082906
    Molecular point group: c1
  Basis Set: CC-PVTZ
  Basis Set:
  Basis Set: CC-PVTZ
  Basis Set:
  @DF-RHF Final Energy:  -426.31838181342732
    Total Energy =                       -426.3183818134265266
  Basis Set: CC-PVTZ
  Basis Set:
  Basis Set: CC-PVTZ
  Basis Set:
  @DF-RHF Final Energy:  -426.31676465629448
    Total Energy =                       -426.3167646562943673
  Basis Set: CC-PVTZ
  Basis Set:
  Basis Set: CC-PVTZ
  Basis Set:
  @DF-RHF Final Energy:  -426.31839653764746
    Total Energy =                       -426.3183965376476863
  Basis Set: CC-PVTZ
  Basis Set:
  @DF-RHF Final Energy:  -426.31842668348236
    Total Energy =                       -426.3184266834823575
  Basis Set: CC-PVTZ
  Basis Set:
  @DF-RHF Final Energy:  -426.31844283352962
    Total Energy =                       -426.3184428335293887
  Basis Set: CC-PVTZ
  Basis Set:
  Basis Set: CC-PVTZ
  Basis Set:
  @DF-RHF Final Energy:  -426.31843918848949
    Total Energy =                       -426.3184391884901743
  Basis Set: CC-PVTZ
  Basis Set:
  Basis Set: CC-PVTZ
  Basis Set:
  @DF-RHF Final Energy:  -426.31844607072378
    Total Energy =                       -426.3184460707243488
  Basis Set: CC-PVTZ
  Basis Set:
  Charge       = 0
  Multiplicity = 1
  Basis Set: CC-PVTZ
  Basis Set:

    Orbital Energies (a.u.)
    -----------------------

    Doubly Occupied:

       1A    -20.536702     2A    -11.316517     3A    -11.229785
       4A    -11.228079     5A    -11.226820     6A    -11.223786
       7A    -11.214876     8A    -11.214224     9A    -11.210500
      10A    -11.204932    11A     -1.396545    12A     -1.096088
      13A     -1.078340    14A     -1.023485    15A     -0.991900
      16A     -0.908111    17A     -0.873848    18A     -0.809362
      19A     -0.800774    20A     -0.723939    21A     -0.669955
      22A     -0.654247    23A     -0.632525    24A     -0.621914
      25A     -0.607887    26A     -0.586283    27A     -0.580872
      28A     -0.576838    29A     -0.542845    30A     -0.535656
      31A     -0.520296    32A     -0.505449    33A     -0.502604
      34A     -0.485687    35A     -0.480364    36A     -0.476640
      37A     -0.473392    38A     -0.463847    39A     -0.456514
      40A     -0.394068

  @DF-RHF Final Energy:  -426.31844632837601

   => Energetics <=

    Nuclear Repulsion Energy =            531.7413898291881651
    One-Electron Energy =               -1631.9666695431847074
    Two-Electron Energy =                 673.9068333856200752
    DFT Exchange-Correlation Energy =       0.0000000000000000
    Empirical Dispersion Energy =           0.0000000000000000
    PCM Polarization Energy =               0.0000000000000000
    EFP Energy =                            0.0000000000000000
    Total Energy =                       -426.3184463283764671
    Molecular point group: c1
  Basis Set: CC-PVTZ
  Basis Set:

  -Total Gradient:
     Atom            X                  Y                   Z
    ------   -----------------  -----------------  -----------------
       1       -0.000002751191    -0.000003018983    -0.000003234722
       2        0.000286409510    -0.002264923571     0.001213066121
       3       -0.001067085867     0.003403589440    -0.001306950965
       4        0.000000242392    -0.000002078694     0.000004680292
       5       -0.000001589791     0.000005630783    -0.000002295778
       6        0.003780638935    -0.002332069808    -0.001492039084
       7       -0.000007240111     0.000004036759     0.000004632739
       8        0.000001371994     0.000002540322    -0.000006948835
       9        0.000002776314    -0.000023774593     0.000037234878
      10       -0.002956082028     0.001179629564     0.001580800262
      11       -0.000005074181     0.000001497544     0.000004861096
      12       -0.000010274880     0.000016737734    -0.000002893468
      13       -0.000004818013     0.000009221119    -0.000009532986
      14        0.000002108706     0.000002816700    -0.000013465025
      15       -0.000000699860     0.000003882546     0.000006099549
      16       -0.000021637092    -0.000007719550    -0.000005437167
      17        0.000004561184     0.000004319700    -0.000000721782
      18       -0.000002266566    -0.000002963560    -0.000000794850
      19        0.000001645040     0.000004231069    -0.000002468098
      20       -0.000004859199    -0.000004908431     0.000003856121
      21       -0.000006328283    -0.000003043595     0.000002425251
      22        0.000000228183     0.000002179843    -0.000002828744
      23        0.000005136764     0.000003453468    -0.000007034516
      24        0.000004234943    -0.000002080316    -0.000001526114
      25        0.000004043316     0.000004247029    -0.000002338495
      26       -0.000000743489    -0.000003606418     0.000002629560
      27       -0.000002450445     0.000002072705     0.000000313916
      28        0.000000503713     0.000000101195    -0.000000089152

  **** Optimization is complete! (in 9 steps) ****
    Final optimized geometry and variables:
    Molecular point group: c1

    Geometry (in Angstrom), charge = 0, multiplicity = 1:

    H            5.219455015161     1.200625732731     0.566622468855
    C            4.648233333998     0.689515008693    -0.199824894852
    C            3.159662606185     0.683337080415     0.133307006223
    H            4.838447313326     1.192588305173    -1.142406683368
    H            5.032945519824    -0.321460645939    -0.282456859453
    C            2.313250853092    -0.000029754091    -0.944237437173
    H            2.806679591081     1.695688541425     0.283422891905
    H            3.023071189215     0.164353914738     1.079595769956
    C            0.946642583536    -0.468016563362    -0.449402661941
    H            2.151054109989     0.687505092890    -1.765085523517
    H            2.844754313400    -0.862340390924    -1.333336235133
    C           -0.022621596754     0.652192332412    -0.112227215770
    H            0.462139127605    -1.064733155277    -1.218414535450
    H            1.047514189930    -1.121778095170     0.411615598482
    C           -1.220249506862     0.305927870438     0.750695038282
    O            0.133413755360     1.756420033807    -0.524304092189
    C           -2.179267412173    -0.696693353135     0.100071054035
    H           -1.736705882211     1.232195863552     0.963090602691
    H           -0.858977845228    -0.099728655772     1.691989516016
    C           -3.418449674381    -0.954464557250     0.952975467491
    H           -2.484786742395    -0.318791014162    -0.871716400409
    H           -1.669852897412    -1.638200858331    -0.078939673513
    C           -4.383167434657    -1.948131638325     0.315076658681
    H           -3.932333782492    -0.014424552944     1.129906699097
    H           -3.111704990856    -1.323272665762     1.927869966845
    H           -4.732666028889    -1.591017200392    -0.647714665353
    H           -3.907757608296    -2.910513661622     0.157458697733
    H           -5.251584309725    -2.107773482687     0.943300489325

  Mulliken Charges: (a.u.)
   Center  Symbol    Alpha    Beta     Spin     Total
       1     H     0.44865  0.44865  0.00000  0.10270
       2     C     3.15031  3.15031  0.00000 -0.30063
       3     C     3.09007  3.09007  0.00000 -0.18015
       4     H     0.45341  0.45341  0.00000  0.09318
       5     H     0.45714  0.45714  0.00000  0.08572
       6     C     3.08746  3.08746  0.00000 -0.17491
       7     H     0.43960  0.43960  0.00000  0.12079
       8     H     0.45936  0.45936  0.00000  0.08128
       9     C     3.13245  3.13245  0.00000 -0.26491
      10     H     0.44397  0.44397  0.00000  0.11206
      11     H     0.44755  0.44755  0.00000  0.10490
      12     C     2.86210  2.86210  0.00000  0.27579
      13     H     0.43495  0.43495  0.00000  0.13010
      14     H     0.44232  0.44232  0.00000  0.11536
      15     C     3.09247  3.09247  0.00000 -0.18494
      16     O     4.17853  4.17853  0.00000 -0.35707
      17     C     3.10116  3.10116  0.00000 -0.20231
      18     H     0.43812  0.43812  0.00000  0.12375
      19     H     0.44908  0.44908  0.00000  0.10184
      20     C     3.08728  3.08728  0.00000 -0.17456
      21     H     0.44565  0.44565  0.00000  0.10871
      22     H     0.45031  0.45031  0.00000  0.09938
      23     C     3.14917  3.14917  0.00000 -0.29835
      24     H     0.44978  0.44978  0.00000  0.10043
      25     H     0.45365  0.45365  0.00000  0.09269
      26     H     0.45343  0.45343  0.00000  0.09314
      27     H     0.45521  0.45521  0.00000  0.08959
      28     H     0.44681  0.44681  0.00000  0.10639

   Total alpha = 40.00000, Total beta = 40.00000, Total charge = -0.00000

*** Psi4 exiting successfully. Buy a developer a beer!
