                              Psi4 1.0.54 Driver

  ==> Input File <==

--------------------------------------------------------------------------
set {
	reference rhf
	basis cc-pvtz
}

set_num_threads( 4 )
memory 2 gb

molecule MOL {
0 1

H	 3.321509	 -0.485627	 -1.037091
C	 2.609393	 -0.682114	 -0.246166
C	 1.322304	 0.099773	 -0.484271
H	 2.423624	 -1.750010	 -0.224780
H	 3.072065	 -0.403001	 0.693712
C	 0.308557	 -0.162619	 0.622645
H	 0.885385	 -0.181566	 -1.434367
H	 1.532732	 1.161448	 -0.523044
N	 -1.069352	 -0.004081	 0.085342
H	 0.371632	 -1.172932	 0.991288
H	 0.400391	 0.548875	 1.426218
O	 -1.584901	 -0.965470	 -0.377818
O	 -1.548033	 1.079343	 0.130056

	symmetry c1
}
set optking {
	frozen_dihedral = ("
		7 3 6 9
	")
}

ee,wfn = optimize('scf', return_wfn=True)
oeprop( wfn, 'DIPOLE', 'QUADRUPOLE', 'MULLIKEN_CHARGES')
f=open( 'psi4out.xyz', 'w' )
f.write( "13  " )
f.write( str(ee) + "\n" )
f.write( MOL.save_string_xyz() )
f.close()
--------------------------------------------------------------------------

    Molecular point group: c1
  Charge       = 0
  Multiplicity = 1
  Basis Set: CC-PVTZ
  Basis Set:
  @DF-RHF Final Energy:  -321.85884736122478
    Total Energy =                       -321.8588473612247185
    Molecular point group: c1
  Basis Set: CC-PVTZ
  Basis Set:
  Basis Set: CC-PVTZ
  Basis Set:
  @DF-RHF Final Energy:  -321.85802651074403
    Total Energy =                       -321.8580265107439118
  Basis Set: CC-PVTZ
  Basis Set:
  Basis Set: CC-PVTZ
  Basis Set:
  @DF-RHF Final Energy:  -321.85572977447077
    Total Energy =                       -321.8557297744708308
  Basis Set: CC-PVTZ
  Basis Set:
  Basis Set: CC-PVTZ
  Basis Set:
  @DF-RHF Final Energy:  -321.85881284192754
    Total Energy =                       -321.8588128419276586
  Basis Set: CC-PVTZ
  Basis Set:
  @DF-RHF Final Energy:  -321.85889433134219
    Total Energy =                       -321.8588943313421851
  Basis Set: CC-PVTZ
  Basis Set:
  @DF-RHF Final Energy:  -321.85910977929586
    Total Energy =                       -321.8591097792959772
  Basis Set: CC-PVTZ
  Basis Set:
  Basis Set: CC-PVTZ
  Basis Set:
  @DF-RHF Final Energy:  -321.85911541475105
    Total Energy =                       -321.8591154147508178
  Basis Set: CC-PVTZ
  Basis Set:
  Basis Set: CC-PVTZ
  Basis Set:
  @DF-RHF Final Energy:  -321.85911721419961
    Total Energy =                       -321.8591172141997276
  Basis Set: CC-PVTZ
  Basis Set:
  Charge       = 0
  Multiplicity = 1
  Basis Set: CC-PVTZ
  Basis Set:

    Orbital Energies (a.u.)
    -----------------------

    Doubly Occupied:

       1A    -20.590474     2A    -20.590355     3A    -15.836959
       4A    -11.297264     5A    -11.254777     6A    -11.236697
       7A     -1.636007     8A     -1.420280     9A     -1.133120
      10A     -1.028006    11A     -0.884403    12A     -0.834898
      13A     -0.762027    14A     -0.738450    15A     -0.727700
      16A     -0.667783    17A     -0.607058    18A     -0.591553
      19A     -0.548098    20A     -0.521185    21A     -0.513131
      22A     -0.485923    23A     -0.475171    24A     -0.453448

  @DF-RHF Final Energy:  -321.85911806178535

   => Energetics <=

    Nuclear Repulsion Energy =            248.1455293680536442
    One-Electron Energy =                -930.3397589094581690
    Two-Electron Energy =                 360.3351114796190018
    DFT Exchange-Correlation Energy =       0.0000000000000000
    Empirical Dispersion Energy =           0.0000000000000000
    PCM Polarization Energy =               0.0000000000000000
    EFP Energy =                            0.0000000000000000
    Total Energy =                       -321.8591180617855230
    Molecular point group: c1
  Basis Set: CC-PVTZ
  Basis Set:

  -Total Gradient:
     Atom            X                  Y                   Z
    ------   -----------------  -----------------  -----------------
       1        0.000016668364     0.000010049385    -0.000009766948
       2       -0.000023711103     0.000027496760    -0.000003983233
       3        0.001880401975    -0.005883279285     0.000199743962
       4       -0.000007007717    -0.000017341935     0.000003184953
       5       -0.000001522185    -0.000006615690     0.000011095786
       6       -0.000261749788     0.004904660939     0.001017878324
       7       -0.001538707885     0.003933088301    -0.000358865598
       8        0.000003368022     0.000027011956    -0.000018819922
       9       -0.000061102325    -0.002829179331    -0.000728781796
      10        0.000003049326    -0.000048011802    -0.000001877105
      11        0.000006736157    -0.000001546497    -0.000011396874
      12       -0.000009833592    -0.000097679803    -0.000072195404
      13       -0.000006589249    -0.000018652997    -0.000026216146

  **** Optimization is complete! (in 9 steps) ****
    Final optimized geometry and variables:
    Molecular point group: c1

    Geometry (in Angstrom), charge = 0, multiplicity = 1:

    H            3.382469413476    -0.259584349583    -0.957697105653
    C            2.657286378514    -0.526322207516    -0.199719109151
    C            1.347818948689     0.216564602037    -0.430270978091
    H            2.510823155310    -1.599331192554    -0.238368107540
    H            3.084136761216    -0.280520187700     0.766691490995
    C            0.323946906790    -0.080883013969     0.668637849137
    H            0.921192805636    -0.038020238586    -1.392534291767
    H            1.526117577673     1.284389461130    -0.457677128031
    N           -1.052030219371     0.087651695094     0.131727236322
    H            0.379013942938    -1.106597655907     0.992685756668
    H            0.413151429647     0.590434280163     1.505720677366
    O           -1.582672850853    -0.874091957481    -0.313443247319
    O           -1.513903387836     1.179223402599     0.155337185660

  Mulliken Charges: (a.u.)
   Center  Symbol    Alpha    Beta     Spin     Total
       1     H     0.44261  0.44261  0.00000  0.11478
       2     C     3.14995  3.14995  0.00000 -0.29989
       3     C     3.09311  3.09311  0.00000 -0.18622
       4     H     0.44955  0.44955  0.00000  0.10090
       5     H     0.45222  0.45222  0.00000  0.09556
       6     C     3.03725  3.03725  0.00000 -0.07450
       7     H     0.43879  0.43879  0.00000  0.12242
       8     H     0.44120  0.44120  0.00000  0.11760
       9     N     3.27927  3.27927  0.00000  0.44146
      10     H     0.43723  0.43723  0.00000  0.12553
      11     H     0.43314  0.43314  0.00000  0.13372
      12     O     4.17229  4.17229  0.00000 -0.34457
      13     O     4.17340  4.17340  0.00000 -0.34680

   Total alpha = 24.00000, Total beta = 24.00000, Total charge = -0.00000

*** Psi4 exiting successfully. Buy a developer a beer!
