  ==> Input File <==

--------------------------------------------------------------------------
set {
	reference rhf
	basis 6-31G*
}

set_num_threads( 4 )
memory 2 gb

molecule MOL {
0 1

H	 -3.407059	 -1.043082	 0.000000
O	 -3.119761	 -0.140267	 0.000000
C	 -1.777559	 -0.059267	 0.000000
C	 -1.001972	 -0.602438	 -1.020015
C	 -1.177450	 0.595014	 1.068575
H	 -1.475035	 -1.107944	 -1.844627
C	 0.371411	 -0.489047	 -0.967267
H	 -1.797112	 1.005551	 1.843010
C	 0.197274	 0.700287	 1.107148
H	 0.982072	 -0.903389	 -1.747339
C	 0.987519	 0.163089	 0.095932
H	 0.662821	 1.207216	 1.935007
C	 2.457714	 0.283586	 0.150864
O	 3.205644	 -0.146860	 -0.671373
H	 2.845197	 0.813816	 1.027152

	symmetry c1
}
set optking {
	frozen_dihedral = ("
		5 3 2 1
	")
}

ee = optimize('scf')
oeprop('DIPOLE', 'QUADRUPOLE', 'MULLIKEN_CHARGES')
f=open( 'psi4out.xyz', 'w' )
f.write( "15  " )
f.write( str(ee) + "\n" )
f.write( MOL.save_string_xyz() )
f.close()
--------------------------------------------------------------------------

    Molecular point group: c1
  Charge       = 0
  Multiplicity = 1
  Basis Set: 6-31G*
  Basis Set:
  @DF-RHF Final Energy:  -418.28502656226556
    Total Energy =                       -418.2850265622653296
    Molecular point group: c1
  Basis Set: 6-31G*
  Basis Set:
  Basis Set: 6-31G*
  Basis Set:
  @DF-RHF Final Energy:  -418.28542939510868
    Total Energy =                       -418.2854293951083946
  Basis Set: 6-31G*
  Basis Set:
  Basis Set: 6-31G*
  Basis Set:
  @DF-RHF Final Energy:  -418.28538318651528
    Total Energy =                       -418.2853831865148777
  Basis Set: 6-31G*
  Basis Set:
  Basis Set: 6-31G*
  Basis Set:
  @DF-RHF Final Energy:  -418.28532945767040
    Total Energy =                       -418.2853294576704002
  Basis Set: 6-31G*
  Basis Set:
  Basis Set: 6-31G*
  Basis Set:
  @DF-RHF Final Energy:  -418.28547828991748
    Total Energy =                       -418.2854782899169095
  Basis Set: 6-31G*
  Basis Set:
  Charge       = 0
  Multiplicity = 1
  Basis Set: 6-31G*
  Basis Set:

    Orbital Energies (a.u.)
    -----------------------

    Doubly Occupied:

       1A    -20.596989     2A    -20.559915     3A    -11.330809
       4A    -11.315366     5A    -11.260257     6A    -11.254513
       7A    -11.243730     8A    -11.243241     9A    -11.241586
      10A     -1.415170    11A     -1.400960    12A     -1.170703
      13A     -1.041368    14A     -1.037326    15A     -0.887151
      16A     -0.860475    17A     -0.795538    18A     -0.751879
      19A     -0.710057    20A     -0.666817    21A     -0.647758
      22A     -0.630302    23A     -0.617081    24A     -0.607215
      25A     -0.561085    26A     -0.552782    27A     -0.540925
      28A     -0.499133    29A     -0.483163    30A     -0.421435
      31A     -0.355791    32A     -0.337436

  @DF-RHF Final Energy:  -418.28547912110866

   => Energetics <=

    Nuclear Repulsion Energy =            400.9046638869187973
    One-Electron Energy =               -1364.3043715658877773
    Two-Electron Energy =                 545.1142285578603150
    DFT Exchange-Correlation Energy =       0.0000000000000000
    Empirical Dispersion Energy =           0.0000000000000000
    PCM Polarization Energy =               0.0000000000000000
    EFP Energy =                            0.0000000000000000
    Total Energy =                       -418.2854791211086649
    Molecular point group: c1
  Basis Set: 6-31G*
  Basis Set:

  -Total Gradient:
     Atom            X                  Y                   Z
    ------   -----------------  -----------------  -----------------
       1       -0.000091912476     0.000000568018     0.002838279126
       2        0.000081536830    -0.000901827284    -0.003017459193
       3       -0.000069896563     0.002626063243    -0.001036324081
       4       -0.000162119676    -0.000021886590     0.000089907916
       5        0.000202646069    -0.001718396256     0.001109846596
       6        0.000005449961     0.000004493854    -0.000006178829
       7        0.000128203947     0.000088282442     0.000065930642
       8       -0.000001424650    -0.000004150453    -0.000015966997
       9       -0.000096702287    -0.000033056309     0.000096575090
      10       -0.000010674988    -0.000006607096    -0.000001875409
      11        0.000005655493    -0.000061846326    -0.000124296538
      12        0.000017697125     0.000010358180    -0.000010178243
      13        0.000012783533     0.000042105431     0.000003009843
      14       -0.000014268484    -0.000016303685     0.000002444692
      15       -0.000006973822    -0.000007797169     0.000006285388

  **** Optimization is complete! (in 6 steps) ****
    Final optimized geometry and variables:
    Molecular point group: c1

    Geometry (in Angstrom), charge = 0, multiplicity = 1:

    H           -3.409436610279    -1.067284341183     0.008796766509
    O           -3.129861279502    -0.161457587552     0.012355899608
    C           -1.771699079311    -0.079065446181     0.045274492033
    C           -1.001518641112    -0.623740333665    -0.976935805304
    C           -1.172210255480     0.571469095061     1.110448752946
    H           -1.487896245260    -1.114504865282    -1.800737800889
    C            0.371864007771    -0.513801575636    -0.928929134611
    H           -1.789616305730     0.980575038980     1.887688797379
    C            0.206234208078     0.686974396492     1.143740502426
    H            0.982439694216    -0.927280796087    -1.709444077573
    C            0.987780894522     0.145057374354     0.132538843891
    H            0.675422172395     1.195755556942     1.968308618159
    C            2.461022777694     0.268062236416     0.184496276589
    O            3.206047941179    -0.172010132392    -0.634243813481
    H            2.849853772231     0.808033977411     1.053803745364

  Mulliken Charges: (a.u.)
   Center  Symbol    Alpha    Beta     Spin     Total
       1     H     0.26869  0.26869  0.00000  0.46262
       2     O     4.38309  4.38309  0.00000 -0.76617
       3     C     2.80268  2.80268  0.00000  0.39464
       4     C     3.13016  3.13016  0.00000 -0.26033
       5     C     3.12272  3.12272  0.00000 -0.24544
       6     H     0.39165  0.39165  0.00000  0.21671
       7     C     3.08300  3.08300  0.00000 -0.16600
       8     H     0.38724  0.38724  0.00000  0.22552
       9     C     3.09737  3.09737  0.00000 -0.19474
      10     H     0.37490  0.37490  0.00000  0.25020
      11     C     3.06233  3.06233  0.00000 -0.12467
      12     H     0.38988  0.38988  0.00000  0.22023
      13     C     2.83076  2.83076  0.00000  0.33849
      14     O     4.25187  4.25187  0.00000 -0.50374
      15     H     0.42365  0.42365  0.00000  0.15269

   Total alpha = 32.00000, Total beta = 32.00000, Total charge = -0.00000
