                              Psi4 1.0.54 Driver

  ==> Input File <==

--------------------------------------------------------------------------
set {
	reference rhf
	basis cc-pvtz
}

set_num_threads( 4 )
memory 2 gb

molecule MOL {
0 1

H	 -3.170410	 0.260073	 -1.572277
O	 -2.383187	 -0.263081	 -1.589767
C	 -1.457835	 0.343820	 -0.851979
C	 -0.166800	 -0.428708	 -0.830522
O	 -1.666139	 1.368182	 -0.299474
C	 0.926581	 0.227233	 0.000178
H	 0.144946	 -0.558001	 -1.861941
H	 -0.396738	 -1.424300	 -0.464950
C	 2.220156	 -0.582071	 -0.000088
H	 1.116432	 1.224090	 -0.381487
H	 0.574088	 0.356734	 1.017233
C	 3.466689	 0.296012	 -0.000457
H	 2.239073	 -1.234095	 -0.869382
H	 2.239505	 -1.233985	 0.869270
H	 3.493549	 0.935857	 -0.875887
H	 4.368821	 -0.304526	 -0.001199
H	 3.494559	 0.935166	 0.875458

	symmetry c1
}
set optking {
	frozen_dihedral = ("
		10 6 9 13
	")
}

ee,wfn = optimize('scf', return_wfn=True)
oeprop( wfn, 'DIPOLE', 'QUADRUPOLE', 'MULLIKEN_CHARGES')
f=open( 'psi4out.xyz', 'w' )
f.write( "17  " )
f.write( str(ee) + "\n" )
f.write( MOL.save_string_xyz() )
f.close()
--------------------------------------------------------------------------

    Molecular point group: c1
  Charge       = 0
  Multiplicity = 1
  Basis Set: CC-PVTZ
  Basis Set:
  @DF-RHF Final Energy:  -345.04494990820183
    Total Energy =                       -345.0449499082019429
    Molecular point group: c1
  Basis Set: CC-PVTZ
  Basis Set:
  Basis Set: CC-PVTZ
  Basis Set:
  @DF-RHF Final Energy:  -345.04525537818608
    Total Energy =                       -345.0452553781861411
  Basis Set: CC-PVTZ
  Basis Set:
  Basis Set: CC-PVTZ
  Basis Set:
  @DF-RHF Final Energy:  -345.04506866439698
    Total Energy =                       -345.0450686643969789
  Basis Set: CC-PVTZ
  Basis Set:
  Basis Set: CC-PVTZ
  Basis Set:
  @DF-RHF Final Energy:  -345.04534500744069
    Total Energy =                       -345.0453450074404600
  Basis Set: CC-PVTZ
  Basis Set:
  Basis Set: CC-PVTZ
  Basis Set:
  @DF-RHF Final Energy:  -345.04534683660108
    Total Energy =                       -345.0453468366007996
  Basis Set: CC-PVTZ
  Basis Set:
  Charge       = 0
  Multiplicity = 1
  Basis Set: CC-PVTZ
  Basis Set:

    Orbital Energies (a.u.)
    -----------------------

    Doubly Occupied:

       1A    -20.604226     2A    -20.540873     3A    -11.373739
       4A    -11.240026     5A    -11.220963     6A    -11.220367
       7A    -11.211438     8A     -1.477817     9A     -1.369370
      10A     -1.091383    11A     -1.019819    12A     -0.915068
      13A     -0.826104    14A     -0.791426    15A     -0.704066
      16A     -0.689918    17A     -0.668943    18A     -0.627105
      19A     -0.595292    20A     -0.590021    21A     -0.572171
      22A     -0.536760    23A     -0.514594    24A     -0.484723
      25A     -0.483319    26A     -0.478435    27A     -0.466213
      28A     -0.445997

  @DF-RHF Final Energy:  -345.04534706077715

   => Energetics <=

    Nuclear Repulsion Energy =            304.7054317820600886
    One-Electron Energy =               -1073.9812098654952024
    Two-Electron Energy =                 424.2304310226582515
    DFT Exchange-Correlation Energy =       0.0000000000000000
    Empirical Dispersion Energy =           0.0000000000000000
    PCM Polarization Energy =               0.0000000000000000
    EFP Energy =                            0.0000000000000000
    Total Energy =                       -345.0453470607769191
    Molecular point group: c1
  Basis Set: CC-PVTZ
  Basis Set:

  -Total Gradient:
     Atom            X                  Y                   Z
    ------   -----------------  -----------------  -----------------
       1        0.000022689462     0.000000124871     0.000006346932
       2       -0.000017931893    -0.000023501700    -0.000014437643
       3        0.000001950832     0.000044296191     0.000023055321
       4       -0.000023085079    -0.000002215677     0.000006954175
       5        0.000016542600    -0.000030522667    -0.000015726352
       6       -0.001520225443    -0.002563053328    -0.004608061280
       7        0.000001478160     0.000008897863     0.000001866292
       8        0.000002087540     0.000006991634    -0.000002300905
       9        0.002749245561     0.004322819328    -0.001892907439
      10        0.000818746013     0.001435909162     0.004146538934
      11       -0.000006357269    -0.000004390055     0.000005592879
      12        0.000010539110    -0.000002004606     0.000000800621
      13       -0.002054993933    -0.003181114107     0.002333703664
      14        0.000005736499    -0.000004327016     0.000007928083
      15       -0.000005742929    -0.000004532667    -0.000001585623
      16        0.000005919192    -0.000003372198     0.000001980044
      17       -0.000006598426    -0.000000005025     0.000000252297

  **** Optimization is complete! (in 6 steps) ****
    Final optimized geometry and variables:
    Molecular point group: c1

    Geometry (in Angstrom), charge = 0, multiplicity = 1:

    H           -3.291611567645     0.084440084945    -0.990368333680
    O           -2.498130389638    -0.427932456241    -1.030152138522
    C           -1.561659837152     0.191101387662    -0.316763861436
    C           -0.260312495459    -0.564173185938    -0.330971133125
    O           -1.769542041157     1.210917193311     0.244145753840
    C            0.846737258905     0.104938103970     0.468044895591
    H            0.024588174731    -0.690857369768    -1.370210682521
    H           -0.466075037578    -1.562408168978     0.042393702963
    C            2.145851642839    -0.713917708378     0.494120638814
    H            1.036748767992     1.101084255434     0.085699911293
    H            0.500379340571     0.263938763022     1.482632741601
    C            3.402118132823     0.144867963892     0.566022720729
    H            2.189061063796    -1.374916052547    -0.366910710215
    H            2.122700250615    -1.380299089659     1.351738561408
    H            3.495114144651     0.774815485814    -0.312022471133
    H            4.293670379005    -0.467752053427     0.632857112054
    H            3.379714221976     0.793617952349     1.435275746273

  Mulliken Charges: (a.u.)
   Center  Symbol    Alpha    Beta     Spin     Total
       1     H     0.38236  0.38236  0.00000  0.23529
       2     O     4.15990  4.15990  0.00000 -0.31981
       3     C     2.80556  2.80556  0.00000  0.38887
       4     C     3.11062  3.11062  0.00000 -0.22124
       5     O     4.19085  4.19085  0.00000 -0.38169
       6     C     3.08590  3.08590  0.00000 -0.17180
       7     H     0.43773  0.43773  0.00000  0.12455
       8     H     0.43695  0.43695  0.00000  0.12609
       9     C     3.08709  3.08709  0.00000 -0.17418
      10     H     0.44655  0.44655  0.00000  0.10689
      11     H     0.44493  0.44493  0.00000  0.11014
      12     C     3.14734  3.14734  0.00000 -0.29468
      13     H     0.45616  0.45616  0.00000  0.08767
      14     H     0.45223  0.45223  0.00000  0.09554
      15     H     0.45470  0.45470  0.00000  0.09059
      16     H     0.44879  0.44879  0.00000  0.10241
      17     H     0.45233  0.45233  0.00000  0.09535

   Total alpha = 28.00000, Total beta = 28.00000, Total charge = -0.00000

*** Psi4 exiting successfully. Buy a developer a beer!
