                              Psi4 1.0.54 Driver

  ==> Input File <==

--------------------------------------------------------------------------
set {
	reference rhf
	basis cc-pvtz
}

set_num_threads( 4 )
memory 2 gb

molecule MOL {
0 1

H	 0.253979	 -3.242245	 1.470189
O	 0.737639	 -2.543737	 1.055634
C	 -0.072261	 -1.498015	 0.914355
C	 0.626018	 -0.337582	 0.258241
O	 -1.197859	 -1.522070	 1.275313
C	 -0.267326	 0.883135	 0.076490
H	 1.499553	 -0.117995	 0.860385
H	 1.004269	 -0.692600	 -0.695342
C	 -1.726822	 0.642622	 0.463839
H	 -0.210803	 1.217591	 -0.953497
H	 0.129920	 1.693110	 0.675679
C	 -2.480891	 -0.340606	 -0.429852
H	 -2.243098	 1.597649	 0.438609
H	 -1.776542	 0.301208	 1.495542
C	 -3.955933	 -0.460128	 -0.060472
H	 -2.393755	 -0.020485	 -1.464726
H	 -2.024244	 -1.323637	 -0.374360
H	 -4.467673	 -1.160944	 -0.709827
H	 -4.458917	 0.497287	 -0.144505
H	 -4.076458	 -0.806900	 0.960497

	symmetry c1
}
set optking {
	frozen_dihedral = ("
		7 4 6 10
	")
}

ee,wfn = optimize('scf', return_wfn=True)
oeprop( wfn, 'DIPOLE', 'QUADRUPOLE', 'MULLIKEN_CHARGES')
f=open( 'psi4out.xyz', 'w' )
f.write( "20  " )
f.write( str(ee) + "\n" )
f.write( MOL.save_string_xyz() )
f.close()
--------------------------------------------------------------------------

    Molecular point group: c1
  Charge       = 0
  Multiplicity = 1
  Basis Set: CC-PVTZ
  Basis Set:
  @DF-RHF Final Energy:  -384.04523222639352
    Total Energy =                       -384.0452322263937504
    Molecular point group: c1
  Basis Set: CC-PVTZ
  Basis Set:
  Basis Set: CC-PVTZ
  Basis Set:
  @DF-RHF Final Energy:  -384.06388752700298
    Total Energy =                       -384.0638875270032031
  Basis Set: CC-PVTZ
  Basis Set:
  Basis Set: CC-PVTZ
  Basis Set:
  @DF-RHF Final Energy:  -384.07427801627068
    Total Energy =                       -384.0742780162701138
  Basis Set: CC-PVTZ
  Basis Set:
  Basis Set: CC-PVTZ
  Basis Set:
  @DF-RHF Final Energy:  -384.07845081715448
    Total Energy =                       -384.0784508171544758
  Basis Set: CC-PVTZ
  Basis Set:
  @DF-RHF Final Energy:  -384.07829154980709
    Total Energy =                       -384.0782915498072043
  @DF-RHF Final Energy:  -384.08152793981498
    Total Energy =                       -384.0815279398152597
  @DF-RHF Final Energy:  -384.08199204455406
    Total Energy =                       -384.0819920445542266
  @DF-RHF Final Energy:  -384.08236607344952
    Total Energy =                       -384.0823660734498617
  @DF-RHF Final Energy:  -384.08279558400261
    Total Energy =                       -384.0827955840030654
  @DF-RHF Final Energy:  -384.08302895212825
    Total Energy =                       -384.0830289521284158
  @DF-RHF Final Energy:  -384.08351068694515
    Total Energy =                       -384.0835106869453739
  @DF-RHF Final Energy:  -384.08316558756690
    Total Energy =                       -384.0831655875666684
  @DF-RHF Final Energy:  -384.08409170360142
    Total Energy =                       -384.0840917036013025
  @DF-RHF Final Energy:  -384.08426202663696
    Total Energy =                       -384.0842620266372478
  @DF-RHF Final Energy:  -384.08450282617650
    Total Energy =                       -384.0845028261762764
  @DF-RHF Final Energy:  -384.08458858491230
    Total Energy =                       -384.0845885849130354
  Basis Set: CC-PVTZ
  Basis Set:
  @DF-RHF Final Energy:  -384.08463342340872
    Total Energy =                       -384.0846334234087180
  Basis Set: CC-PVTZ
  Basis Set:
  Basis Set: CC-PVTZ
  Basis Set:
  @DF-RHF Final Energy:  -384.08465107765346
    Total Energy =                       -384.0846510776534615
  Basis Set: CC-PVTZ
  Basis Set:
  Basis Set: CC-PVTZ
  Basis Set:
  @DF-RHF Final Energy:  -384.08465651402753
    Total Energy =                       -384.0846565140275288
  Basis Set: CC-PVTZ
  Basis Set:
  Charge       = 0
  Multiplicity = 1
  Basis Set: CC-PVTZ
  Basis Set:

    Orbital Energies (a.u.)
    -----------------------

    Doubly Occupied:

       1A    -20.606453     2A    -20.538017     3A    -11.374578
       4A    -11.239158     5A    -11.229087     6A    -11.214643
       7A    -11.211732     8A    -11.206123     9A     -1.478629
      10A     -1.368453    11A     -1.092420    12A     -1.037630
      13A     -0.960437    14A     -0.872905    15A     -0.815790
      16A     -0.780766    17A     -0.706934    18A     -0.681946
      19A     -0.660628    20A     -0.635888    21A     -0.609943
      22A     -0.591957    23A     -0.575490    24A     -0.557769
      25A     -0.539903    26A     -0.509865    27A     -0.499207
      28A     -0.482884    29A     -0.471897    30A     -0.463607
      31A     -0.454759    32A     -0.436981

  @DF-RHF Final Energy:  -384.08465775282156

   => Energetics <=

    Nuclear Repulsion Energy =            394.6467804476290553
    One-Electron Energy =               -1305.6499134703617528
    Two-Electron Energy =                 526.9184752699111414
    DFT Exchange-Correlation Energy =       0.0000000000000000
    Empirical Dispersion Energy =           0.0000000000000000
    PCM Polarization Energy =               0.0000000000000000
    EFP Energy =                            0.0000000000000000
    Total Energy =                       -384.0846577528216130
    Molecular point group: c1
  Basis Set: CC-PVTZ
  Basis Set:

  -Total Gradient:
     Atom            X                  Y                   Z
    ------   -----------------  -----------------  -----------------
       1       -0.000004152388     0.000009542614    -0.000002230213
       2       -0.000008618298    -0.000020418619    -0.000008772825
       3        0.000056849439     0.000009967075    -0.000031546136
       4        0.001788491386     0.000567105885    -0.004578108563
       5       -0.000054762181     0.000006274926     0.000023528844
       6        0.003792470241     0.002324409136     0.001810540574
       7       -0.002054946729    -0.000827651321     0.003607848143
       8        0.000003322927     0.000010799777    -0.000000426629
       9        0.000001777847    -0.000027672403    -0.000016146775
      10       -0.003546738097    -0.002048566085    -0.000826913704
      11        0.000001436043    -0.000004055669     0.000002300435
      12       -0.000029640982     0.000004896311     0.000026753399
      13       -0.000008348628     0.000000869819    -0.000004692314
      14        0.000006647334     0.000012860636    -0.000004908181
      15        0.000061641129     0.000000142688     0.000019512246
      16        0.000003020686    -0.000012252680    -0.000012098755
      17       -0.000001574617    -0.000007821762     0.000001547707
      18       -0.000013863512    -0.000002119981    -0.000002232834
      19        0.000004693371     0.000006906840    -0.000004605491
      20        0.000002295027    -0.000003217189     0.000000651073

  **** Optimization is complete! (in 20 steps) ****
    Final optimized geometry and variables:
    Molecular point group: c1

    Geometry (in Angstrom), charge = 0, multiplicity = 1:

    H            0.492323593549    -2.795219872113     0.412859148807
    O            0.890155273568    -2.149089660070    -0.151808162449
    C            0.983880953356    -1.007512629354     0.522958808743
    C            1.671022268391     0.082447132875    -0.261047399039
    O            0.599811915243    -0.909284851377     1.638315030846
    C            0.915601892457     1.435758942143    -0.381906534397
    H            2.584883703964     0.243656257415     0.299386811852
    H            1.936533624156    -0.304911896722    -1.231737562171
    C           -0.567109830676     1.474093661732     0.001536137674
    H            0.979443150160     1.742026722408    -1.420157741794
    H            1.440425033386     2.178759995132     0.202849347537
    C           -1.481421899131     0.680850893573    -0.930912633263
    H           -0.875935727837     2.515429368725    -0.022942453609
    H           -0.699468965925     1.138265418397     1.021335307996
    C           -2.948354324208     0.759551512539    -0.521216286045
    H           -1.369126567357     1.056904590224    -1.944721465657
    H           -1.180669645435    -0.361522384260    -0.962914596427
    H           -3.577848247313     0.201147997799    -1.204578781769
    H           -3.297396965085     1.786817639794    -0.514290358780
    H           -3.096350027207     0.354124321059     0.473690744419

  Mulliken Charges: (a.u.)
   Center  Symbol    Alpha    Beta     Spin     Total
       1     H     0.38035  0.38035  0.00000  0.23930
       2     O     4.16360  4.16360  0.00000 -0.32720
       3     C     2.79488  2.79488  0.00000  0.41024
       4     C     3.10740  3.10740  0.00000 -0.21480
       5     O     4.20143  4.20143  0.00000 -0.40287
       6     C     3.10309  3.10309  0.00000 -0.20619
       7     H     0.43594  0.43594  0.00000  0.12812
       8     H     0.43356  0.43356  0.00000  0.13289
       9     C     3.10872  3.10872  0.00000 -0.21744
      10     H     0.44862  0.44862  0.00000  0.10276
      11     H     0.44009  0.44009  0.00000  0.11981
      12     C     3.08467  3.08467  0.00000 -0.16934
      13     H     0.44562  0.44562  0.00000  0.10877
      14     H     0.43716  0.43716  0.00000  0.12567
      15     C     3.15166  3.15166  0.00000 -0.30332
      16     H     0.45396  0.45396  0.00000  0.09208
      17     H     0.45417  0.45417  0.00000  0.09167
      18     H     0.44876  0.44876  0.00000  0.10249
      19     H     0.45496  0.45496  0.00000  0.09008
      20     H     0.45135  0.45135  0.00000  0.09730

   Total alpha = 32.00000, Total beta = 32.00000, Total charge = -0.00000

*** Psi4 exiting successfully. Buy a developer a beer!
