  ==> Input File <==

--------------------------------------------------------------------------
set {
	reference rhf
	basis 6-31G*
}

set_num_threads( 4 )
memory 2 gb

molecule MOL {
0 1

H	 -3.269016	 -0.876744	 0.468090
C	 -2.809304	 0.000122	 0.025886
N	 -1.391456	 0.000019	 0.300661
H	 -3.037557	 -0.000063	 -1.044252
H	 -3.269223	 0.876956	 0.468000
C	 -0.655889	 -0.862400	 -0.603199
C	 -1.098358	 -0.332322	 1.681042
H	 -0.965676	 -1.907174	 -0.503275
H	 -0.860636	 -0.554460	 -1.623402
C	 0.837930	 -0.759689	 -0.337633
H	 -1.625833	 0.362211	 2.326760
H	 -1.437435	 -1.342008	 1.932177
C	 0.395461	 -0.229610	 1.946608
H	 1.365405	 -1.454221	 -0.983350
H	 1.177006	 0.249998	 -0.588767
N	 1.131028	 -1.092029	 1.042749
H	 0.600208	 -0.537551	 2.966811
H	 0.705248	 0.815164	 1.846684
C	 2.548875	 -1.092133	 1.317524
H	 3.049863	 -1.795511	 0.661747
H	 2.724913	 -1.405893	 2.340457
H	 3.011425	 -0.110211	 1.179054

	symmetry c1
}
set optking {
	frozen_dihedral = ("
		6 3 2 4
	")
}

ee = optimize('scf')
oeprop('DIPOLE', 'QUADRUPOLE', 'MULLIKEN_CHARGES')
f=open( 'psi4out.xyz', 'w' )
f.write( "22  " )
f.write( str(ee) + "\n" )
f.write( MOL.save_string_xyz() )
f.close()
--------------------------------------------------------------------------

    Molecular point group: c1
  Charge       = 0
  Multiplicity = 1
  Basis Set: 6-31G*
  Basis Set:
  @DF-RHF Final Energy:  -344.22856652255007
    Total Energy =                       -344.2285665225500679
    Molecular point group: c1
  Basis Set: 6-31G*
  Basis Set:
  Basis Set: 6-31G*
  Basis Set:
  @DF-RHF Final Energy:  -344.22939287180822
    Total Energy =                       -344.2293928718083862
  Basis Set: 6-31G*
  Basis Set:
  Basis Set: 6-31G*
  Basis Set:
  @DF-RHF Final Energy:  -344.22950572614394
    Total Energy =                       -344.2295057261439979
  Basis Set: 6-31G*
  Basis Set:
  Basis Set: 6-31G*
  Basis Set:
  @DF-RHF Final Energy:  -344.22950868890166
    Total Energy =                       -344.2295086889017739
  Basis Set: 6-31G*
  Basis Set:
  Charge       = 0
  Multiplicity = 1
  Basis Set: 6-31G*
  Basis Set:

    Orbital Energies (a.u.)
    -----------------------

    Doubly Occupied:

       1A    -15.541899     2A    -15.540392     3A    -11.238886
       4A    -11.238674     5A    -11.238134     6A    -11.238038
       7A    -11.236000     8A    -11.235865     9A     -1.254704
      10A     -1.203476    11A     -1.024907    12A     -0.991529
      13A     -0.911542    14A     -0.867268    15A     -0.835276
      16A     -0.754110    17A     -0.665272    18A     -0.636609
      19A     -0.630500    20A     -0.626570    21A     -0.620354
      22A     -0.580335    23A     -0.550653    24A     -0.546163
      25A     -0.542737    26A     -0.517628    27A     -0.496449
      28A     -0.490238    29A     -0.465690    30A     -0.455948
      31A     -0.349406    32A     -0.341906

  @DF-RHF Final Energy:  -344.22950913255374

   => Energetics <=

    Nuclear Repulsion Energy =            421.2735940517037534
    One-Electron Energy =               -1301.2718897118124914
    Two-Electron Energy =                 535.7687865275547665
    DFT Exchange-Correlation Energy =       0.0000000000000000
    Empirical Dispersion Energy =           0.0000000000000000
    PCM Polarization Energy =               0.0000000000000000
    EFP Energy =                            0.0000000000000000
    Total Energy =                       -344.2295091325539715
    Molecular point group: c1
  Basis Set: 6-31G*
  Basis Set:

  -Total Gradient:
     Atom            X                  Y                   Z
    ------   -----------------  -----------------  -----------------
       1       -0.000006043041     0.000002617812     0.000006961719
       2        0.000212470472     0.005322421890    -0.000584342427
       3       -0.000518991364    -0.003862091090     0.002340754155
       4       -0.000065888678    -0.003563846230    -0.000082630430
       5        0.000023488932    -0.000021824310     0.000004813112
       6        0.000366835153     0.002100315114    -0.001683851610
       7       -0.000010815877     0.000010051061     0.000015653055
       8       -0.000009232053     0.000013495093     0.000007062852
       9        0.000004356770     0.000000305597     0.000002662811
      10        0.000010988010     0.000007732202    -0.000003001546
      11       -0.000007144424    -0.000000314039    -0.000001950453
      12        0.000008773315     0.000010893833    -0.000010242188
      13       -0.000009063696    -0.000014170338    -0.000003040131
      14        0.000006707524    -0.000001225972    -0.000000040135
      15       -0.000000499610     0.000001602075    -0.000001690806
      16       -0.000004526706    -0.000000207016    -0.000007299589
      17        0.000007074339    -0.000000007223     0.000005575919
      18       -0.000006977542    -0.000005765770    -0.000001018481
      19        0.000001274878    -0.000001007737    -0.000004204725
      20       -0.000002103763     0.000000965160     0.000000371902
      21       -0.000000923815    -0.000000176071     0.000000555549
      22        0.000000241169     0.000000235960    -0.000001098555

  **** Optimization is complete! (in 5 steps) ****
    Final optimized geometry and variables:
    Molecular point group: c1

    Geometry (in Angstrom), charge = 0, multiplicity = 1:

    H           -3.206759438439    -0.325648933180    -0.250273899217
    C           -2.684631690479     0.555564015307    -0.635739163239
    N           -1.265101001665     0.522174445348    -0.369261563175
    H           -2.859155363101     0.581325350214    -1.704820810737
    H           -3.132093384480     1.434955236077    -0.185397630590
    C           -0.524837347105    -0.327170389735    -1.279784652410
    C           -0.966041760710     0.213090373361     1.012686985958
    H           -0.822032782640    -1.376944588626    -1.191406025529
    H           -0.730013455396    -0.010741481488    -2.296801048234
    C            0.967777100641    -0.211712378237    -1.011414396767
    H           -1.495123969220     0.915204763585     1.649462796710
    H           -1.302500397614    -0.793509854634     1.279671991946
    C            0.528062669910     0.323645443868     1.272531320578
    H            1.502317182351    -0.901562420568    -1.656354190319
    H            1.298182182314     0.801040944389    -1.262008472247
    N            1.263002571574    -0.540674621754     0.369594760198
    H            0.738281057665     0.021505526738     2.293364872635
    H            0.834037219789     1.368879475829     1.165961820338
    C            2.681328579106    -0.537629300626     0.641830775984
    H            3.182556599632    -1.242233094414    -0.012466589369
    H            2.859596729852    -0.847827580967     1.665454277989
    H            3.142127961885     0.444622387535     0.499663239139

  Mulliken Charges: (a.u.)
   Center  Symbol    Alpha    Beta     Spin     Total
       1     H     0.43318  0.43318  0.00000  0.13364
       2     C     3.13868  3.13868  0.00000 -0.27736
       3     N     3.78988  3.78988  0.00000 -0.57976
       4     H     0.41837  0.41837  0.00000  0.16325
       5     H     0.41579  0.41579  0.00000  0.16841
       6     C     3.05431  3.05431  0.00000 -0.10862
       7     C     3.05465  3.05465  0.00000 -0.10930
       8     H     0.42916  0.42916  0.00000  0.14167
       9     H     0.41804  0.41804  0.00000  0.16392
      10     C     3.05692  3.05692  0.00000 -0.11384
      11     H     0.41814  0.41814  0.00000  0.16372
      12     H     0.42857  0.42857  0.00000  0.14286
      13     C     3.05649  3.05649  0.00000 -0.11298
      14     H     0.41805  0.41805  0.00000  0.16389
      15     H     0.42867  0.42867  0.00000  0.14267
      16     N     3.78715  3.78715  0.00000 -0.57430
      17     H     0.41802  0.41802  0.00000  0.16396
      18     H     0.42870  0.42870  0.00000  0.14261
      19     C     3.14021  3.14021  0.00000 -0.28043
      20     H     0.41677  0.41677  0.00000  0.16646
      21     H     0.41677  0.41677  0.00000  0.16647
      22     H     0.43348  0.43348  0.00000  0.13304

   Total alpha = 32.00000, Total beta = 32.00000, Total charge = -0.00000
