  ==> Input File <==

--------------------------------------------------------------------------
set {
	reference rhf
	basis 6-31G*
}

set_num_threads( 4 )
memory 2 gb

molecule MOL {
0 1

O	 -1.276010	 1.052711	 -0.768302
C	 -1.204840	 0.067374	 -0.106123
C	 -2.388195	 -0.672128	 0.458071
O	 -0.067104	 -0.527208	 0.221609
H	 -2.388023	 -1.694060	 0.097175
H	 -3.300579	 -0.174919	 0.164318
H	 -2.315377	 -0.706351	 1.539059
C	 0.487138	 -0.300352	 1.525173
C	 1.980599	 -0.539190	 1.390566
C	 -0.175584	 -1.226045	 2.533408
H	 0.295567	 0.728360	 1.792679
H	 2.410149	 0.128532	 0.652406
H	 2.474375	 -0.363202	 2.340590
H	 2.179519	 -1.560657	 1.084477
H	 0.255707	 -1.075456	 3.517953
H	 -1.237976	 -1.027698	 2.596312
H	 -0.027439	 -2.263308	 2.250306

	symmetry c1
}
set optking {
	frozen_dihedral = ("
		8 4 2 1
	")
}

ee = optimize('scf')
oeprop('DIPOLE', 'QUADRUPOLE', 'MULLIKEN_CHARGES')
f=open( 'psi4out.xyz', 'w' )
f.write( "17  " )
f.write( str(ee) + "\n" )
f.write( MOL.save_string_xyz() )
f.close()
--------------------------------------------------------------------------

    Molecular point group: c1
  Charge       = 0
  Multiplicity = 1
  Basis Set: 6-31G*
  Basis Set:
  @DF-RHF Final Energy:  -344.88000070632938
    Total Energy =                       -344.8800007063294402
    Molecular point group: c1
  Basis Set: 6-31G*
  Basis Set:
  Basis Set: 6-31G*
  Basis Set:
  @DF-RHF Final Energy:  -344.88966873768408
    Total Energy =                       -344.8896687376841896
  Basis Set: 6-31G*
  Basis Set:
  Basis Set: 6-31G*
  Basis Set:
  @DF-RHF Final Energy:  -344.89150628133575
    Total Energy =                       -344.8915062813356371
  Basis Set: 6-31G*
  Basis Set:
  Basis Set: 6-31G*
  Basis Set:
  @DF-RHF Final Energy:  -344.89237159736331
    Total Energy =                       -344.8923715973634785
  Basis Set: 6-31G*
  Basis Set:
  @DF-RHF Final Energy:  -344.89282380043699
    Total Energy =                       -344.8928238004372133
  @DF-RHF Final Energy:  -344.89327708219020
    Total Energy =                       -344.8932770821900817
  @DF-RHF Final Energy:  -344.89361455366571
    Total Energy =                       -344.8936145536657705
  @DF-RHF Final Energy:  -344.89415309495632
    Total Energy =                       -344.8941530949559819
  @DF-RHF Final Energy:  -344.89459341395929
    Total Energy =                       -344.8945934139593987
  @DF-RHF Final Energy:  -344.89471186204116
    Total Energy =                       -344.8947118620411629
  @DF-RHF Final Energy:  -344.89474718798277
    Total Energy =                       -344.8947471879829436
  Basis Set: 6-31G*
  Basis Set:
  @DF-RHF Final Energy:  -344.89476929529496
    Total Energy =                       -344.8947692952949637
  Basis Set: 6-31G*
  Basis Set:
  Basis Set: 6-31G*
  Basis Set:
  @DF-RHF Final Energy:  -344.89478496575390
    Total Energy =                       -344.8947849657538427
  Basis Set: 6-31G*
  Basis Set:
  Basis Set: 6-31G*
  Basis Set:
  @DF-RHF Final Energy:  -344.89478899104660
    Total Energy =                       -344.8947889910470508
  Basis Set: 6-31G*
  Basis Set:
  Charge       = 0
  Multiplicity = 1
  Basis Set: 6-31G*
  Basis Set:

    Orbital Energies (a.u.)
    -----------------------

    Doubly Occupied:

       1A    -20.581173     2A    -20.554530     3A    -11.376704
       4A    -11.302683     5A    -11.237249     6A    -11.223092
       7A    -11.217851     8A     -1.455940     9A     -1.365785
      10A     -1.073809    11A     -1.011058    12A     -0.951414
      13A     -0.848117    14A     -0.770340    15A     -0.692698
      16A     -0.673510    17A     -0.653341    18A     -0.618943
      19A     -0.591076    20A     -0.589339    21A     -0.556191
      22A     -0.551807    23A     -0.544800    24A     -0.520244
      25A     -0.507862    26A     -0.478902    27A     -0.447824
      28A     -0.434515

  @DF-RHF Final Energy:  -344.89478949505622

   => Energetics <=

    Nuclear Repulsion Energy =            322.3161978813600399
    One-Electron Energy =               -1108.7603779295841377
    Two-Electron Energy =                 441.5493905531683367
    DFT Exchange-Correlation Energy =       0.0000000000000000
    Empirical Dispersion Energy =           0.0000000000000000
    PCM Polarization Energy =               0.0000000000000000
    EFP Energy =                            0.0000000000000000
    Total Energy =                       -344.8947894950557611
    Molecular point group: c1
  Basis Set: 6-31G*
  Basis Set:

  -Total Gradient:
     Atom            X                  Y                   Z
    ------   -----------------  -----------------  -----------------
       1       -0.000471956466    -0.000882673169    -0.000462230796
       2        0.000319780103     0.001226890042     0.000931686781
       3        0.000017965557     0.000001466621    -0.000023713416
       4        0.000906757189    -0.000217418060    -0.000932513011
       5       -0.000003904271    -0.000011739969    -0.000001451899
       6       -0.000003215049    -0.000009617147     0.000003000348
       7        0.000008111233     0.000004447810     0.000033764975
       8       -0.000753726067    -0.000141460559     0.000478697932
       9       -0.000012265551    -0.000010580886    -0.000009782369
      10        0.000031208112     0.000039625791    -0.000020341593
      11       -0.000011792000     0.000010566857     0.000005437456
      12       -0.000002128341     0.000002223652    -0.000000797306
      13       -0.000009506354    -0.000004083732    -0.000004178704
      14        0.000009376421    -0.000003406260    -0.000003157536
      15        0.000005913846     0.000001289581     0.000007449901
      16       -0.000031845132    -0.000010043970    -0.000002241812
      17        0.000001226768     0.000004513400     0.000000371052

  **** Optimization is complete! (in 15 steps) ****
    Final optimized geometry and variables:
    Molecular point group: c1

    Geometry (in Angstrom), charge = 0, multiplicity = 1:

    O           -0.242345642751     0.523722303976    -2.006858828464
    C           -0.731019139952     0.220137923021    -0.974321813190
    C           -2.118531161247     0.628246386677    -0.548306600046
    O           -0.112488056906    -0.610999848266    -0.109598244053
    H           -2.743351450280    -0.257831690046    -0.509026721198
    H           -2.530129135241     1.333794334314    -1.254726324846
    H           -2.111785339126     1.062456017581     0.444887009341
    C            0.580174727186    -0.058076011399     1.012689369270
    C            1.941974443133     0.464490899693     0.579435591669
    C            0.670962006853    -1.167149762383     2.044631763414
    H           -0.009603161452     0.759661671303     1.418253563214
    H            1.845088967641     1.229760025787    -0.181103295321
    H            2.467529378611     0.889881913979     1.428920376916
    H            2.538071945807    -0.343120506770     0.169914477038
    H            1.182025420133    -0.814992228541     2.934592657504
    H           -0.318518621481    -1.508926990589     2.325328198174
    H            1.221419812769    -2.009151397396     1.640106059256

  Mulliken Charges: (a.u.)
   Center  Symbol    Alpha    Beta     Spin     Total
       1     O     4.25213  4.25213  0.00000 -0.50426
       2     C     2.62477  2.62477  0.00000  0.75045
       3     C     3.28729  3.28729  0.00000 -0.57458
       4     O     4.32179  4.32179  0.00000 -0.64359
       5     H     0.39774  0.39774  0.00000  0.20451
       6     H     0.39655  0.39655  0.00000  0.20690
       7     H     0.40769  0.40769  0.00000  0.18461
       8     C     2.92992  2.92992  0.00000  0.14017
       9     C     3.24338  3.24338  0.00000 -0.48676
      10     C     3.23985  3.23985  0.00000 -0.47970
      11     H     0.42327  0.42327  0.00000  0.15346
      12     H     0.40553  0.40553  0.00000  0.18893
      13     H     0.42087  0.42087  0.00000  0.15826
      14     H     0.40942  0.40942  0.00000  0.18115
      15     H     0.41836  0.41836  0.00000  0.16327
      16     H     0.41228  0.41228  0.00000  0.17543
      17     H     0.40914  0.40914  0.00000  0.18172

   Total alpha = 28.00000, Total beta = 28.00000, Total charge = -0.00000
