                              Psi4 1.0.54 Driver

  ==> Input File <==

--------------------------------------------------------------------------
set {
	reference rhf
	basis cc-pvtz
}

set_num_threads( 4 )
memory 2 gb

molecule MOL {
0 1

H	 2.088631	 1.167801	 -0.440551
C	 1.937502	 0.127533	 -0.175668
N	 0.526300	 -0.128137	 0.000000
H	 2.462093	 -0.054133	 0.753763
H	 2.400225	 -0.482636	 -0.954226
C	 -0.247113	 0.037112	 -1.209233
H	 0.389986	 -1.044352	 0.368277
H	 -0.996493	 -0.743733	 -1.271440
H	 0.397975	 -0.057351	 -2.073512
H	 -0.763794	 0.997171	 -1.271673

	symmetry c1
}
set optking {
	frozen_dihedral = ("
		2 3 6 8
	")
}

ee,wfn = optimize('scf', return_wfn=True)
oeprop( wfn, 'DIPOLE', 'QUADRUPOLE', 'MULLIKEN_CHARGES')
f=open( 'psi4out.xyz', 'w' )
f.write( "10  " )
f.write( str(ee) + "\n" )
f.write( MOL.save_string_xyz() )
f.close()
--------------------------------------------------------------------------

    Molecular point group: c1
  Charge       = 0
  Multiplicity = 1
  Basis Set: CC-PVTZ
  Basis Set:
  @DF-RHF Final Energy:  -134.28916954924568
    Total Energy =                       -134.2891695492455710
    Molecular point group: c1
  Basis Set: CC-PVTZ
  Basis Set:
  Basis Set: CC-PVTZ
  Basis Set:
  @DF-RHF Final Energy:  -134.28971865288952
    Total Energy =                       -134.2897186528895759
  Basis Set: CC-PVTZ
  Basis Set:
  Basis Set: CC-PVTZ
  Basis Set:
  @DF-RHF Final Energy:  -134.28978569945835
    Total Energy =                       -134.2897856994582355
  Basis Set: CC-PVTZ
  Basis Set:
  Charge       = 0
  Multiplicity = 1
  Basis Set: CC-PVTZ
  Basis Set:

    Orbital Energies (a.u.)
    -----------------------

    Doubly Occupied:

       1A    -15.531226     2A    -11.234406     3A    -11.234242
       4A     -1.198444     5A     -0.948333     6A     -0.854685
       7A     -0.661206     8A     -0.613045     9A     -0.590011
      10A     -0.545269    11A     -0.508648    12A     -0.504302
      13A     -0.362870

  @DF-RHF Final Energy:  -134.28978691975351

   => Energetics <=

    Nuclear Repulsion Energy =             84.5713274910712585
    One-Electron Energy =                -348.1488554783704785
    Two-Electron Energy =                 129.2877410675457384
    DFT Exchange-Correlation Energy =       0.0000000000000000
    Empirical Dispersion Energy =           0.0000000000000000
    PCM Polarization Energy =               0.0000000000000000
    EFP Energy =                            0.0000000000000000
    Total Energy =                       -134.2897869197534817
    Molecular point group: c1
  Basis Set: CC-PVTZ
  Basis Set:

  -Total Gradient:
     Atom            X                  Y                   Z
    ------   -----------------  -----------------  -----------------
       1       -0.000008891995    -0.000006126501    -0.000001711871
       2        0.000407691896    -0.002718844122    -0.000592390167
       3        0.000003124328     0.003255162120     0.000315983791
       4        0.000040272653    -0.000000524941     0.000009164295
       5       -0.000022297441     0.000000687309    -0.000007248688
       6       -0.002795293165     0.001433045379     0.002168772800
       7        0.000013179817     0.000047144904     0.000021409105
       8        0.002390724977    -0.002019592535    -0.001887610491
       9       -0.000009111822     0.000009413390    -0.000011285396
      10       -0.000019399247    -0.000000365002    -0.000015083380

  **** Optimization is complete! (in 4 steps) ****
    Final optimized geometry and variables:
    Molecular point group: c1

    Geometry (in Angstrom), charge = 0, multiplicity = 1:

    H            1.318307033663     1.207494203180     0.045203181510
    C            1.194784856953     0.160155546177     0.296832775306
    N           -0.207593058152    -0.140329577910     0.475809169526
    H            1.728002754695    -0.017372522247     1.222390331136
    H            1.669544421603    -0.427217142542    -0.491134876760
    C           -1.012963090945     0.016300775689    -0.722424620398
    H           -0.303181856331    -1.066129943191     0.828078771575
    H           -1.742056959388    -0.781356895144    -0.794973324443
    H           -0.413582172856    -0.031486161236    -1.630690717049
    H           -1.537583176966     0.964821575064    -0.722483439563

  Mulliken Charges: (a.u.)
   Center  Symbol    Alpha    Beta     Spin     Total
       1     H     0.45656  0.45656  0.00000  0.08688
       2     C     3.08300  3.08300  0.00000 -0.16600
       3     N     3.62922  3.62922  0.00000 -0.25844
       4     H     0.45303  0.45303  0.00000  0.09393
       5     H     0.47384  0.47384  0.00000  0.05231
       6     C     3.07606  3.07606  0.00000 -0.15213
       7     H     0.44118  0.44118  0.00000  0.11764
       8     H     0.45815  0.45815  0.00000  0.08370
       9     H     0.47339  0.47339  0.00000  0.05321
      10     H     0.45556  0.45556  0.00000  0.08888

   Total alpha = 13.00000, Total beta = 13.00000, Total charge = -0.00000

*** Psi4 exiting successfully. Buy a developer a beer!
