  ==> Input File <==

--------------------------------------------------------------------------
set {
	reference rhf
	basis 6-31G*
}

set_num_threads( 4 )
memory 2 gb

molecule MOL {
0 1

H	 -2.021884	 0.577820	 -2.550324
N	 -1.060111	 0.439718	 -2.307642
C	 -0.840282	 -0.911764	 -1.823620
H	 -0.837968	 1.094454	 -1.583016
C	 0.610168	 -1.089097	 -1.426274
H	 -1.465605	 -1.179762	 -0.970889
H	 -1.066506	 -1.608407	 -2.625051
O	 0.874168	 -0.245412	 -0.342030
H	 0.800679	 -2.125678	 -1.149067
H	 1.253066	 -0.836124	 -2.266466
C	 2.202317	 -0.244239	 0.074611
H	 2.711377	 -1.041390	 -0.449894
H	 2.692099	 0.699270	 -0.159667
H	 2.283185	 -0.418429	 1.145558

	symmetry c1
}
set optking {
	frozen_dihedral = ("
		5 8 11 13
	")
}

ee = optimize('scf')
oeprop('DIPOLE', 'QUADRUPOLE', 'MULLIKEN_CHARGES')
f=open( 'psi4out.xyz', 'w' )
f.write( "14  " )
f.write( str(ee) + "\n" )
f.write( MOL.save_string_xyz() )
f.close()
--------------------------------------------------------------------------

    Molecular point group: c1
  Charge       = 0
  Multiplicity = 1
  Basis Set: 6-31G*
  Basis Set:
  @DF-RHF Final Energy:  -248.12045507028432
    Total Energy =                       -248.1204550702841516
    Molecular point group: c1
  Basis Set: 6-31G*
  Basis Set:
  Basis Set: 6-31G*
  Basis Set:
  @DF-RHF Final Energy:  -248.12136266831254
    Total Energy =                       -248.1213626683123721
  Basis Set: 6-31G*
  Basis Set:
  Basis Set: 6-31G*
  Basis Set:
  @DF-RHF Final Energy:  -248.12167212001461
    Total Energy =                       -248.1216721200146367
  Basis Set: 6-31G*
  Basis Set:
  Charge       = 0
  Multiplicity = 1
  Basis Set: 6-31G*
  Basis Set:

    Orbital Energies (a.u.)
    -----------------------

    Doubly Occupied:

       1A    -20.553788     2A    -15.527953     3A    -11.266049
       4A    -11.265774     5A    -11.240217     6A     -1.376581
       7A     -1.173065     8A     -0.998872     9A     -0.907430
      10A     -0.814679    11A     -0.682487    12A     -0.671373
      13A     -0.642630    14A     -0.609692    15A     -0.604977
      16A     -0.539196    17A     -0.535221    18A     -0.496413
      19A     -0.471675    20A     -0.411976    21A     -0.379659

  @DF-RHF Final Energy:  -248.12167464111559

   => Energetics <=

    Nuclear Repulsion Energy =            194.3934175928478112
    One-Electron Energy =                -722.6907671052628075
    Two-Electron Energy =                 280.1756748712992362
    DFT Exchange-Correlation Energy =       0.0000000000000000
    Empirical Dispersion Energy =           0.0000000000000000
    PCM Polarization Energy =               0.0000000000000000
    EFP Energy =                            0.0000000000000000
    Total Energy =                       -248.1216746411157033
    Molecular point group: c1
  Basis Set: 6-31G*
  Basis Set:

  -Total Gradient:
     Atom            X                  Y                   Z
    ------   -----------------  -----------------  -----------------
       1        0.000002051645    -0.000012943330     0.000001071949
       2        0.000006267322    -0.000010193417     0.000000745816
       3       -0.000023057844     0.000024106334     0.000015900467
       4        0.000006136081    -0.000011880218     0.000000012200
       5       -0.000250201210    -0.000961572689     0.000780725992
       6        0.000002190248     0.000004317977    -0.000005776056
       7       -0.000009174001    -0.000004270490    -0.000011160864
       8        0.000417576170     0.001650694806    -0.000752106428
       9        0.000007392546     0.000022999612     0.000018361566
      10        0.000000751268     0.000001875410     0.000020887964
      11        0.000369877765    -0.001320267520    -0.001471599721
      12        0.000052021529    -0.000018584212    -0.000012804759
      13       -0.000581316439     0.000602908279     0.001398271944
      14       -0.000000515083     0.000032809458     0.000017469927

  **** Optimization is complete! (in 4 steps) ****
    Final optimized geometry and variables:
    Molecular point group: c1

    Geometry (in Angstrom), charge = 0, multiplicity = 1:

    H           -2.391738256529     0.990493021684    -1.368473208587
    N           -1.427996037972     0.844119661292    -1.138944437005
    C           -1.211675233188    -0.511712134817    -0.665643403460
    H           -1.192162908871     1.492388639678    -0.412866042122
    C            0.242389800046    -0.702947185817    -0.288978283752
    H           -1.827300988997    -0.779825763202     0.194049497149
    H           -1.453842345768    -1.202180799268    -1.467853381092
    O            0.522816472398     0.135502974204     0.796697733408
    H            0.425917949129    -1.741846275810    -0.018354607645
    H            0.873365397758    -0.452175621809    -1.138087470327
    C            1.850522203469     0.150840971606     1.232372835062
    H            2.435088991848    -0.645778042897     0.782918288106
    H            2.313189717125     1.103315524351     0.993427144594
    H            1.868347508102     0.023287374642     2.308826211203

  Mulliken Charges: (a.u.)
   Center  Symbol    Alpha    Beta     Spin     Total
       1     H     0.33295  0.33295  0.00000  0.33411
       2     N     3.92528  3.92528  0.00000 -0.85056
       3     C     3.06896  3.06896  0.00000 -0.13792
       4     H     0.32362  0.32362  0.00000  0.35275
       5     C     2.98988  2.98988  0.00000  0.02025
       6     H     0.42672  0.42672  0.00000  0.14657
       7     H     0.42070  0.42070  0.00000  0.15859
       8     O     4.31431  4.31431  0.00000 -0.62861
       9     H     0.43082  0.43082  0.00000  0.13836
      10     H     0.42238  0.42238  0.00000  0.15523
      11     C     3.07577  3.07577  0.00000 -0.15153
      12     H     0.42842  0.42842  0.00000  0.14315
      13     H     0.42149  0.42149  0.00000  0.15701
      14     H     0.41870  0.41870  0.00000  0.16260

   Total alpha = 21.00000, Total beta = 21.00000, Total charge =  0.00000
