  ==> Input File <==

--------------------------------------------------------------------------
set {
	reference rhf
	basis 6-31G*
}

set_num_threads( 1 )
memory 2 gb

molecule MOL {
0 1

H	 1.136379	 0.211822	 1.465562
C	 1.135357	 0.094285	 0.374742
C	 0.065331	 0.871482	 -0.349150
O	 1.941633	 -0.601957	 -0.151457
C	 0.216620	 0.794694	 -1.875157
H	 0.091691	 1.897052	 0.000743
H	 -0.893991	 0.443438	 -0.061678
C	 1.472569	 1.495913	 -2.394105
H	 -0.661519	 1.240912	 -2.330977
H	 0.222686	 -0.247976	 -2.185707
H	 1.469670	 2.547504	 -2.124523
H	 1.533259	 1.428831	 -3.475370
H	 2.377454	 1.056015	 -1.985372

	symmetry c1
}
set optking {
	frozen_dihedral = ("
		6 3 5 9
	")
}

ee = energy('scf')
oeprop('DIPOLE', 'QUADRUPOLE', 'MULLIKEN_CHARGES')
f=open( 'psi4out.xyz', 'w' )
f.write( "13  " )
f.write( str(ee) + "\n" )
f.write( MOL.save_string_xyz() )
f.close()
--------------------------------------------------------------------------

    Molecular point group: c1

    Geometry (in Angstrom), charge = 0, multiplicity = 1:

       Center              X                  Y                   Z               Mass
    ------------   -----------------  -----------------  -----------------  -----------------
           H          0.150337653087    -0.316824529446     2.355512351209     1.007825032070
           C          0.149315653087    -0.434361529446     1.264692351209    12.000000000000
           C         -0.920710346913     0.342835470554     0.540800351209    12.000000000000
           O          0.955591653087    -1.130603529446     0.738493351209    15.994914619560
           C         -0.769421346913     0.266047470554    -0.985206648791    12.000000000000
           H         -0.894350346913     1.368405470554     0.890693351209     1.007825032070
           H         -1.880032346913    -0.085208529446     0.828272351209     1.007825032070
           C          0.486527653087     0.967266470554    -1.504154648791    12.000000000000
           H         -1.647560346913     0.712265470554    -1.441026648791     1.007825032070
           H         -0.763355346913    -0.776622529446    -1.295756648791     1.007825032070
           H          0.483628653087     2.018857470554    -1.234572648791     1.007825032070
           H          0.547217653087     0.900184470554    -2.585419648791     1.007825032070
           H          1.391412653087     0.527368470554    -1.095421648791     1.007825032070

  Charge       = 0
  Multiplicity = 1
  Basis Set: 6-31G*
  Basis Set:

    Orbital Energies (a.u.)
    -----------------------

    Doubly Occupied:

       1A    -20.565547     2A    -11.329716     3A    -11.237836
       4A    -11.224295     5A    -11.206750     6A     -1.406601
       7A     -1.076055     8A     -0.970586     9A     -0.847832
      10A     -0.765828    11A     -0.686697    12A     -0.640006
      13A     -0.625981    14A     -0.577250    15A     -0.564918
      16A     -0.520836    17A     -0.491986    18A     -0.483474
      19A     -0.480371    20A     -0.411664

  @DF-RHF Final Energy:  -230.98508214015416

   => Energetics <=

    Nuclear Repulsion Energy =            177.5089460632623570
    One-Electron Energy =                -664.7595917066610127
    Two-Electron Energy =                 256.2655635032446639
    DFT Exchange-Correlation Energy =       0.0000000000000000
    Empirical Dispersion Energy =           0.0000000000000000
    PCM Polarization Energy =               0.0000000000000000
    EFP Energy =                            0.0000000000000000
    Total Energy =                       -230.9850821401540202

  Mulliken Charges: (a.u.)
   Center  Symbol    Alpha    Beta     Spin     Total
       1     H     0.42739  0.42739  0.00000  0.14522
       2     C     2.83622  2.83622  0.00000  0.32756
       3     C     3.21338  3.21338  0.00000 -0.42676
       4     O     4.23706  4.23706  0.00000 -0.47412
       5     C     3.15149  3.15149  0.00000 -0.30298
       6     H     0.40776  0.40776  0.00000  0.18448
       7     H     0.40390  0.40390  0.00000  0.19221
       8     C     3.24682  3.24682  0.00000 -0.49364
       9     H     0.41914  0.41914  0.00000  0.16172
      10     H     0.40938  0.40938  0.00000  0.18125
      11     H     0.42631  0.42631  0.00000  0.14738
      12     H     0.41818  0.41818  0.00000  0.16364
      13     H     0.40297  0.40297  0.00000  0.19406

   Total alpha = 20.00000, Total beta = 20.00000, Total charge =  0.00000
