  ==> Input File <==

--------------------------------------------------------------------------
set {
	reference rhf
	basis 6-31G*
}

set_num_threads( 4 )
memory 2 gb

molecule MOL {
0 1

H	 -3.161837	 0.500524	 -0.000234
C	 -2.367097	 -0.232926	 -0.000000
O	 -1.158440	 0.455814	 -0.000122
H	 -2.468853	 -0.861886	 -0.882833
H	 -2.468942	 -0.861421	 0.883154
C	 -0.040680	 -0.346062	 -0.235665
C	 1.202555	 0.525900	 -0.209006
H	 -0.133013	 -0.844402	 -1.201601
H	 0.027974	 -1.126632	 0.523219
C	 2.481467	 -0.271993	 -0.459268
H	 1.093425	 1.303960	 -0.958256
H	 1.253371	 1.023687	 0.754490
H	 2.461272	 -0.759020	 -1.430257
H	 3.352288	 0.374453	 -0.434281
H	 2.622045	 -1.041871	 0.294343

	symmetry c1
}
set optking {
	frozen_dihedral = ("
		6 3 2 4
	")
}

ee = optimize('scf')
oeprop('DIPOLE', 'QUADRUPOLE', 'MULLIKEN_CHARGES')
f=open( 'psi4out.xyz', 'w' )
f.write( "15  " )
f.write( str(ee) + "\n" )
f.write( MOL.save_string_xyz() )
f.close()
--------------------------------------------------------------------------

    Molecular point group: c1
  Charge       = 0
  Multiplicity = 1
  Basis Set: 6-31G*
  Basis Set:
  @DF-RHF Final Energy:  -232.13914410112244
    Total Energy =                       -232.1391441011224970
    Molecular point group: c1
  Basis Set: 6-31G*
  Basis Set:
  Basis Set: 6-31G*
  Basis Set:
  @DF-RHF Final Energy:  -232.13915676945462
    Total Energy =                       -232.1391567694547575
  Basis Set: 6-31G*
  Basis Set:
  Basis Set: 6-31G*
  Basis Set:
  @DF-RHF Final Energy:  -232.13915976800752
    Total Energy =                       -232.1391597680074028
  Basis Set: 6-31G*
  Basis Set:
  Charge       = 0
  Multiplicity = 1
  Basis Set: 6-31G*
  Basis Set:

    Orbital Energies (a.u.)
    -----------------------

    Doubly Occupied:

       1A    -20.553156     2A    -11.266359     3A    -11.264005
       4A    -11.214268     5A    -11.212950     6A     -1.377976
       7A     -1.057263     8A     -0.955292     9A     -0.877340
      10A     -0.809143    11A     -0.674484    12A     -0.653986
      13A     -0.630410    14A     -0.607331    15A     -0.565647
      16A     -0.541235    17A     -0.502759    18A     -0.489444
      19A     -0.478066    20A     -0.461460    21A     -0.413230

  @DF-RHF Final Energy:  -232.13915979760463

   => Energetics <=

    Nuclear Repulsion Energy =            189.7088713911418267
    One-Electron Energy =                -690.4844556002504987
    Two-Electron Energy =                 268.6364244115040378
    DFT Exchange-Correlation Energy =       0.0000000000000000
    Empirical Dispersion Energy =           0.0000000000000000
    PCM Polarization Energy =               0.0000000000000000
    EFP Energy =                            0.0000000000000000
    Total Energy =                       -232.1391597976046342
    Molecular point group: c1
  Basis Set: 6-31G*
  Basis Set:

  -Total Gradient:
     Atom            X                  Y                   Z
    ------   -----------------  -----------------  -----------------
       1        0.000004446703    -0.000001041756    -0.000000473342
       2       -0.000953326374     0.001661486793    -0.001549286167
       3        0.000351904444    -0.000636924096     0.002008640234
       4        0.000701067291    -0.001218797174     0.000797367184
       5       -0.000001707915    -0.000005638758     0.000003307886
       6       -0.000117471605     0.000208021483    -0.001251364838
       7        0.000004934447    -0.000006828818    -0.000001141773
       8        0.000001620666     0.000002477453     0.000003302582
       9       -0.000000625506    -0.000003032760    -0.000001150037
      10        0.000007515039     0.000005852433    -0.000010197406
      11        0.000005971472     0.000002965934     0.000001355428
      12       -0.000008255289    -0.000006771946    -0.000000807240
      13        0.000000554558    -0.000003306495     0.000001358667
      14        0.000004163303    -0.000001956382    -0.000002823522
      15       -0.000000791234     0.000003494088     0.000001912344

  **** Optimization is complete! (in 4 steps) ****
    Final optimized geometry and variables:
    Molecular point group: c1

    Geometry (in Angstrom), charge = 0, multiplicity = 1:

    H           -3.156477281923     0.486482678105     0.185815239544
    C           -2.360389271179    -0.245316548877     0.179457336304
    O           -1.150188562514     0.441533477493     0.174993294030
    H           -2.464076210879    -0.879729496965    -0.698906369267
    H           -2.454556012268    -0.875922810072     1.062243519543
    C           -0.031896573467    -0.361489448817    -0.055395044685
    C            1.211217772425     0.510586365082    -0.027024891910
    H           -0.122966099480    -0.860498170475    -1.020810822996
    H            0.035884342429    -1.141156636698     0.704687587240
    C            2.490414156345    -0.286938235114    -0.277347618708
    H            1.102094404355     1.289373228150    -0.775559962379
    H            1.261628330045     1.007409520262     0.936959706470
    H            2.470284116888    -0.773856788165    -1.248400477691
    H            3.361175231570     0.359630651789    -0.252434155415
    H            2.631176826288    -1.056993786870     0.476058056731

  Mulliken Charges: (a.u.)
   Center  Symbol    Alpha    Beta     Spin     Total
       1     H     0.41235  0.41235  0.00000  0.17529
       2     C     3.07889  3.07889  0.00000 -0.15777
       3     O     4.30619  4.30619  0.00000 -0.61238
       4     H     0.43116  0.43116  0.00000  0.13768
       5     H     0.42958  0.42958  0.00000  0.14084
       6     C     2.98158  2.98158  0.00000  0.03684
       7     C     3.15985  3.15985  0.00000 -0.31971
       8     H     0.43306  0.43306  0.00000  0.13389
       9     H     0.43367  0.43367  0.00000  0.13266
      10     C     3.24792  3.24792  0.00000 -0.49584
      11     H     0.41430  0.41430  0.00000  0.17139
      12     H     0.41433  0.41433  0.00000  0.17133
      13     H     0.42088  0.42088  0.00000  0.15825
      14     H     0.41540  0.41540  0.00000  0.16919
      15     H     0.42084  0.42084  0.00000  0.15832

   Total alpha = 21.00000, Total beta = 21.00000, Total charge = -0.00000
