  ==> Input File <==

--------------------------------------------------------------------------
set {
	reference rhf
	basis 6-31G*
}

set_num_threads( 4 )
memory 2 gb

molecule MOL {
0 1

H	 1.263680	 0.014475	 2.215125
C	 1.669172	 0.105317	 1.200174
C	 0.692068	 0.589600	 0.160137
O	 2.804840	 -0.170066	 0.984418
C	 -0.558097	 -0.297372	 0.091132
H	 1.203139	 0.627441	 -0.794774
H	 0.399753	 1.604731	 0.426390
C	 -1.850991	 0.512573	 -0.019058
H	 -0.476753	 -0.965681	 -0.762987
H	 -0.604799	 -0.930658	 0.975228
C	 -3.096943	 -0.368295	 -0.099594
H	 -1.800724	 1.150330	 -0.898172
H	 -1.931651	 1.177355	 0.838044
H	 -3.060452	 -1.020287	 -0.967456
H	 -3.996858	 0.233488	 -0.175704
H	 -3.191959	 -0.995686	 0.782074

	symmetry c1
}
set optking {
	frozen_dihedral = ("
		6 3 5 9
	")
}

ee = optimize('scf')
oeprop('DIPOLE', 'QUADRUPOLE', 'MULLIKEN_CHARGES')
f=open( 'psi4out.xyz', 'w' )
f.write( "16  " )
f.write( str(ee) + "\n" )
f.write( MOL.save_string_xyz() )
f.close()
--------------------------------------------------------------------------

    Molecular point group: c1
  Charge       = 0
  Multiplicity = 1
  Basis Set: 6-31G*
  Basis Set:
  @DF-RHF Final Energy:  -270.01593669697991
    Total Energy =                       -270.0159366969797361
    Molecular point group: c1
  Basis Set: 6-31G*
  Basis Set:
  Basis Set: 6-31G*
  Basis Set:
  @DF-RHF Final Energy:  -270.01599924595075
    Total Energy =                       -270.0159992459508658
  Basis Set: 6-31G*
  Basis Set:
  Basis Set: 6-31G*
  Basis Set:
  @DF-RHF Final Energy:  -270.01605720299074
    Total Energy =                       -270.0160572029907371
  Basis Set: 6-31G*
  Basis Set:
  Basis Set: 6-31G*
  Basis Set:
  @DF-RHF Final Energy:  -270.01617173589943
    Total Energy =                       -270.0161717358991496
  Basis Set: 6-31G*
  Basis Set:
  @DF-RHF Final Energy:  -270.01620852004271
    Total Energy =                       -270.0162085200430511
  Basis Set: 6-31G*
  Basis Set:
  @DF-RHF Final Energy:  -270.01621743448845
    Total Energy =                       -270.0162174344883397
  Basis Set: 6-31G*
  Basis Set:
  Basis Set: 6-31G*
  Basis Set:
  @DF-RHF Final Energy:  -270.01622181175026
    Total Energy =                       -270.0162218117503130
  Basis Set: 6-31G*
  Basis Set:
  Basis Set: 6-31G*
  Basis Set:
  @DF-RHF Final Energy:  -270.01622435527423
    Total Energy =                       -270.0162243552744030
  Basis Set: 6-31G*
  Basis Set:
  Charge       = 0
  Multiplicity = 1
  Basis Set: 6-31G*
  Basis Set:

    Orbital Energies (a.u.)
    -----------------------

    Doubly Occupied:

       1A    -20.562375     2A    -11.326760     3A    -11.236555
       4A    -11.235272     5A    -11.229795     6A    -11.218731
       7A     -1.402599     8A     -1.095156     9A     -1.018323
      10A     -0.906479    11A     -0.814172    12A     -0.794011
      13A     -0.672178    14A     -0.653112    15A     -0.622966
      16A     -0.604744    17A     -0.581436    18A     -0.553845
      19A     -0.533503    20A     -0.506006    21A     -0.484958
      22A     -0.481663    23A     -0.477825    24A     -0.409287

  @DF-RHF Final Energy:  -270.01622499641439

   => Energetics <=

    Nuclear Repulsion Energy =            228.7121785087237242
    One-Electron Energy =                -818.6133082093203939
    Two-Electron Energy =                 319.8849047041823042
    DFT Exchange-Correlation Energy =       0.0000000000000000
    Empirical Dispersion Energy =           0.0000000000000000
    PCM Polarization Energy =               0.0000000000000000
    EFP Energy =                            0.0000000000000000
    Total Energy =                       -270.0162249964143939
    Molecular point group: c1
  Basis Set: 6-31G*
  Basis Set:

  -Total Gradient:
     Atom            X                  Y                   Z
    ------   -----------------  -----------------  -----------------
       1       -0.000006929471     0.000000036473    -0.000006793380
       2       -0.000036392019     0.000000853320    -0.000011700499
       3       -0.002494067562     0.003863373277    -0.001508076205
       4        0.000002947297    -0.000019522708     0.000001760433
       5        0.002196828513    -0.003378963571     0.002557607993
       6        0.001778310056    -0.002618234769     0.000880649098
       7       -0.000023772688    -0.000014497801    -0.000016707881
       8        0.000025073018     0.000003140771    -0.000013932792
       9       -0.001453626844     0.002184766921    -0.001883745352
      10        0.000016328263    -0.000010495186     0.000003437940
      11       -0.000003229801    -0.000004455214     0.000025713307
      12        0.000000167249    -0.000002550292    -0.000009779668
      13       -0.000000015297    -0.000005891490    -0.000013464356
      14       -0.000002486852     0.000009886330    -0.000005615580
      15       -0.000002567105    -0.000000162001     0.000006414538
      16        0.000003433238    -0.000007284060    -0.000005767597

  **** Optimization is complete! (in 9 steps) ****
    Final optimized geometry and variables:
    Molecular point group: c1

    Geometry (in Angstrom), charge = 0, multiplicity = 1:

    H            1.354575725694    -0.093337582964     1.814686132961
    C            1.750955700735     0.041529209675     0.800769122638
    C            0.749755414756     0.529817272573    -0.217172809996
    O            2.892840729912    -0.190583579230     0.570015329562
    C           -0.514863640303    -0.355142327122    -0.261262323981
    H            1.257210434814     0.553876722536    -1.173287523203
    H            0.484860858429     1.549151970469     0.057458069582
    C           -1.809460168959     0.451173535960    -0.399397555393
    H           -0.440751032758    -1.033742421388    -1.105296977572
    H           -0.577979969535    -0.972261901006     0.632801406160
    C           -3.051148300966    -0.432678615675    -0.499796789712
    H           -1.742982802659     1.085671485168    -1.280412182503
    H           -1.907881267928     1.120265292676     0.452699736383
    H           -2.999163322861    -1.085216474137    -1.366523440201
    H           -3.951651767730     0.166236310622    -0.590378183637
    H           -3.158431851059    -1.060465379634     0.380273470544

  Mulliken Charges: (a.u.)
   Center  Symbol    Alpha    Beta     Spin     Total
       1     H     0.43239  0.43239  0.00000  0.13523
       2     C     2.83202  2.83202  0.00000  0.33596
       3     C     3.20927  3.20927  0.00000 -0.41853
       4     O     4.23735  4.23735  0.00000 -0.47471
       5     C     3.16518  3.16518  0.00000 -0.33036
       6     H     0.39716  0.39716  0.00000  0.20569
       7     H     0.40682  0.40682  0.00000  0.18636
       8     C     3.15391  3.15391  0.00000 -0.30781
       9     H     0.41066  0.41066  0.00000  0.17868
      10     H     0.41746  0.41746  0.00000  0.16508
      11     C     3.24104  3.24104  0.00000 -0.48208
      12     H     0.41890  0.41890  0.00000  0.16221
      13     H     0.42168  0.42168  0.00000  0.15663
      14     H     0.41945  0.41945  0.00000  0.16109
      15     H     0.41642  0.41642  0.00000  0.16716
      16     H     0.42029  0.42029  0.00000  0.15942

   Total alpha = 24.00000, Total beta = 24.00000, Total charge =  0.00000
