                              Psi4 1.0.54 Driver

  ==> Input File <==

--------------------------------------------------------------------------
set {
	reference rhf
	basis cc-pvtz
}

set_num_threads( 4 )
memory 2 gb

molecule MOL {
0 1

O	 -2.081319	 -0.951530	 -0.502732
N	 -1.613558	 0.006676	 0.014756
C	 -0.329345	 -0.171618	 0.743966
O	 -2.068523	 1.100482	 -0.024385
C	 0.576468	 1.025323	 0.483344
H	 0.100024	 -1.087247	 0.372908
H	 -0.587323	 -0.259846	 1.786029
C	 1.908366	 0.884778	 1.215778
H	 0.747326	 1.111683	 -0.583383
H	 0.069369	 1.927179	 0.806214
C	 2.831867	 2.074227	 0.977373
H	 2.402833	 -0.027022	 0.893969
H	 1.725038	 0.777307	 2.280789
H	 3.060143	 2.186584	 -0.076650
H	 2.376304	 2.997189	 1.318429
H	 3.767787	 1.950151	 1.508242

	symmetry c1
}
set optking {
	frozen_dihedral = ("
		5 3 2 1
	")
}

ee,wfn = optimize('scf', return_wfn=True)
oeprop( wfn, 'DIPOLE', 'QUADRUPOLE', 'MULLIKEN_CHARGES')
f=open( 'psi4out.xyz', 'w' )
f.write( "16  " )
f.write( str(ee) + "\n" )
f.write( MOL.save_string_xyz() )
f.close()
--------------------------------------------------------------------------

    Molecular point group: c1
  Charge       = 0
  Multiplicity = 1
  Basis Set: CC-PVTZ
  Basis Set:
  @DF-RHF Final Energy:  -360.90779941489933
    Total Energy =                       -360.9077994148995003
    Molecular point group: c1
  Basis Set: CC-PVTZ
  Basis Set:
  Basis Set: CC-PVTZ
  Basis Set:
  @DF-RHF Final Energy:  -360.78141249425960
    Total Energy =                       -360.7814124942594276
  Basis Set: CC-PVTZ
  Basis Set:
  Basis Set: CC-PVTZ
  Basis Set:
  @DF-RHF Final Energy:  -360.87890813491941
    Total Energy =                       -360.8789081349194703
  Basis Set: CC-PVTZ
  Basis Set:
  Basis Set: CC-PVTZ
  Basis Set:
  @DF-RHF Final Energy:  -360.90625509581866
    Total Energy =                       -360.9062550958184374
  Basis Set: CC-PVTZ
  Basis Set:
  @DF-RHF Final Energy:  -360.69991188429958
    Total Energy =                       -360.6999118842992971
  @DF-RHF Final Energy:  -360.85531173319703
    Total Energy =                       -360.8553117331968565
  @DF-RHF Final Energy:  -360.89948027822430
    Total Energy =                       -360.8994802782242459
  @DF-RHF Final Energy:  -360.90671521989577
    Total Energy =                       -360.9067152198960002
  Basis Set: CC-PVTZ
  Basis Set:
  @DF-RHF Final Energy:  -360.90860938539873
    Total Energy =                       -360.9086093853989041
  Basis Set: CC-PVTZ
  Basis Set:
  Basis Set: CC-PVTZ
  Basis Set:
  @DF-RHF Final Energy:  -360.90884908707955
    Total Energy =                       -360.9088490870793748
  Basis Set: CC-PVTZ
  Basis Set:
  Basis Set: CC-PVTZ
  Basis Set:
  @DF-RHF Final Energy:  -360.90885517431354
    Total Energy =                       -360.9088551743133166
  Basis Set: CC-PVTZ
  Basis Set:
  Charge       = 0
  Multiplicity = 1
  Basis Set: CC-PVTZ
  Basis Set:

    Orbital Energies (a.u.)
    -----------------------

    Doubly Occupied:

       1A    -20.590807     2A    -20.589613     3A    -15.837280
       4A    -11.297460     5A    -11.245881     6A    -11.240376
       7A    -11.224740     8A     -1.636210     9A     -1.420243
      10A     -1.134720    11A     -1.059153    12A     -0.948881
      13A     -0.843508    14A     -0.824289    15A     -0.759789
      16A     -0.744973    17A     -0.730000    18A     -0.672107
      19A     -0.615357    20A     -0.605031    21A     -0.566321
      22A     -0.538152    23A     -0.519447    24A     -0.502592
      25A     -0.495737    26A     -0.485376    27A     -0.469454
      28A     -0.453788

  @DF-RHF Final Energy:  -360.90885605342004

   => Energetics <=

    Nuclear Repulsion Energy =            312.5680588182199813
    One-Electron Energy =               -1110.8512542339099127
    Two-Electron Energy =                 437.3743393622698363
    DFT Exchange-Correlation Energy =       0.0000000000000000
    Empirical Dispersion Energy =           0.0000000000000000
    PCM Polarization Energy =               0.0000000000000000
    EFP Energy =                            0.0000000000000000
    Total Energy =                       -360.9088560534201520
    Molecular point group: c1
  Basis Set: CC-PVTZ
  Basis Set:

  -Total Gradient:
     Atom            X                  Y                   Z
    ------   -----------------  -----------------  -----------------
       1        0.000242404541    -0.000040453250     0.000482365444
       2       -0.000329204998     0.000110063907    -0.000500958909
       3       -0.000017468214    -0.000214535357    -0.000355683332
       4        0.000024318422    -0.000022908235    -0.000030941492
       5        0.000078608856     0.000166943821     0.000391972533
       6       -0.000031293502    -0.000007187255     0.000014054326
       7        0.000017799852     0.000027078124     0.000012893232
       8        0.000009485357    -0.000008718749     0.000001835569
       9        0.000000916279     0.000007034136    -0.000011837870
      10        0.000025271512    -0.000020595297     0.000006910136
      11       -0.000016474501    -0.000003325301    -0.000024455723
      12       -0.000004430230     0.000005308784     0.000007534037
      13       -0.000015005429     0.000007987221     0.000005970841
      14       -0.000005288186    -0.000000971595     0.000000139730
      15        0.000010378524    -0.000011410509     0.000003181330
      16        0.000009981712     0.000005689553    -0.000002979851

  **** Optimization is complete! (in 12 steps) ****
    Final optimized geometry and variables:
    Molecular point group: c1

    Geometry (in Angstrom), charge = 0, multiplicity = 1:

    O           -0.835434762281    -2.462616721446     0.257183741553
    N           -0.731407413918    -1.329155217528     0.585590046589
    C            0.480252259593    -0.596019596428     0.115385752438
    O           -1.493256791072    -0.745491023010     1.280729412025
    C            0.173006642485     0.830155952306    -0.303867847890
    H            0.883198325113    -1.193061424814    -0.684305500130
    H            1.158472157139    -0.625498590896     0.957462811445
    C            1.431368090022     1.537092526549    -0.803248661352
    H           -0.577090004921     0.818097524486    -1.087771432621
    H           -0.251008844650     1.366977398790     0.532881189378
    C            1.157691167288     2.972312067042    -1.238839205713
    H            1.856168244893     0.982636065691    -1.634940289617
    H            2.181813894819     1.535782226101    -0.017717543797
    H            0.434748965786     3.004409402741    -2.046421607336
    H            0.763760691523     3.561048078826    -0.417985128616
    H            2.064665347793     3.451826003934    -1.586379092326

  Mulliken Charges: (a.u.)
   Center  Symbol    Alpha    Beta     Spin     Total
       1     O     4.17030  4.17030  0.00000 -0.34061
       2     N     3.27545  3.27545  0.00000  0.44910
       3     C     3.04561  3.04561  0.00000 -0.09123
       4     O     4.17210  4.17210  0.00000 -0.34421
       5     C     3.09857  3.09857  0.00000 -0.19714
       6     H     0.43104  0.43104  0.00000  0.13792
       7     H     0.43645  0.43645  0.00000  0.12710
       8     C     3.09409  3.09409  0.00000 -0.18818
       9     H     0.44385  0.44385  0.00000  0.11231
      10     H     0.43296  0.43296  0.00000  0.13408
      11     C     3.14796  3.14796  0.00000 -0.29593
      12     H     0.45090  0.45090  0.00000  0.09821
      13     H     0.45141  0.45141  0.00000  0.09717
      14     H     0.45218  0.45218  0.00000  0.09564
      15     H     0.45161  0.45161  0.00000  0.09678
      16     H     0.44550  0.44550  0.00000  0.10899

   Total alpha = 28.00000, Total beta = 28.00000, Total charge =  0.00000

*** Psi4 exiting successfully. Buy a developer a beer!
