                              Psi4 1.0.54 Driver

  ==> Input File <==

--------------------------------------------------------------------------
set {
	reference rhf
	basis cc-pvtz
}

set_num_threads( 4 )
memory 2 gb

molecule MOL {
0 1

O	 2.868453	 1.353349	 -0.000734
C	 2.841259	 0.166180	 -0.000295
C	 1.542794	 -0.614730	 -0.000853
C	 4.113372	 -0.651103	 0.000743
C	 0.288398	 0.247429	 0.000314
H	 1.557171	 -1.273139	 -0.866508
H	 1.557484	 -1.274998	 0.863344
C	 -0.962401	 -0.536193	 -0.387695
H	 0.428110	 1.079209	 -0.680668
H	 0.158771	 0.685066	 0.983576
C	 -2.227446	 0.317025	 -0.390653
H	 -0.824263	 -0.974233	 -1.373754
H	 -1.095059	 -1.369902	 0.298303
C	 -3.482728	 -0.459430	 -0.778106
H	 -2.095899	 1.150533	 -1.076272
H	 -2.366821	 0.754698	 0.594813
C	 -4.742656	 0.399856	 -0.778885
H	 -3.344774	 -0.896285	 -1.763532
H	 -3.615722	 -1.292030	 -0.092534
H	 -4.654744	 1.222419	 -1.480813
H	 -5.614410	 -0.180842	 -1.057912
H	 -4.927838	 0.823529	 0.202570
H	 4.145311	 -1.294584	 -0.871587
H	 4.970080	 0.004978	 -0.000091
H	 4.145223	 -1.291980	 0.874988

	symmetry c1
}
set optking {
	frozen_dihedral = ("
		9 5 3 6
	")
}

ee,wfn = optimize('scf', return_wfn=True)
oeprop( wfn, 'DIPOLE', 'QUADRUPOLE', 'MULLIKEN_CHARGES')
f=open( 'psi4out.xyz', 'w' )
f.write( "25  " )
f.write( str(ee) + "\n" )
f.write( MOL.save_string_xyz() )
f.close()
--------------------------------------------------------------------------

    Molecular point group: c1
  Charge       = 0
  Multiplicity = 1
  Basis Set: CC-PVTZ
  Basis Set:
  @DF-RHF Final Energy:  -387.27384942574480
    Total Energy =                       -387.2738494257449702
    Molecular point group: c1
  Basis Set: CC-PVTZ
  Basis Set:
  Basis Set: CC-PVTZ
  Basis Set:
  @DF-RHF Final Energy:  -387.27393925742206
    Total Energy =                       -387.2739392574221711
  Basis Set: CC-PVTZ
  Basis Set:
  Basis Set: CC-PVTZ
  Basis Set:
  @DF-RHF Final Energy:  -387.27393500187986
    Total Energy =                       -387.2739350018803179
  Basis Set: CC-PVTZ
  Basis Set:
  Basis Set: CC-PVTZ
  Basis Set:
  @DF-RHF Final Energy:  -387.27393608826918
    Total Energy =                       -387.2739360882690107
  Basis Set: CC-PVTZ
  Basis Set:
  Basis Set: CC-PVTZ
  Basis Set:
  @DF-RHF Final Energy:  -387.27396858018034
    Total Energy =                       -387.2739685801800533
  Basis Set: CC-PVTZ
  Basis Set:
  Charge       = 0
  Multiplicity = 1
  Basis Set: CC-PVTZ
  Basis Set:

    Orbital Energies (a.u.)
    -----------------------

    Doubly Occupied:

       1A    -20.539115     2A    -11.320891     3A    -11.230133
       4A    -11.226684     5A    -11.215320     6A    -11.214475
       7A    -11.213569     8A    -11.211548     9A    -11.206474
      10A     -1.399190    11A     -1.095037    12A     -1.057585
      13A     -1.015692    14A     -0.970183    15A     -0.891696
      16A     -0.815079    17A     -0.791595    18A     -0.731506
      19A     -0.663195    20A     -0.653552    21A     -0.632974
      22A     -0.626853    23A     -0.596629    24A     -0.585330
      25A     -0.568707    26A     -0.559484    27A     -0.541383
      28A     -0.527228    29A     -0.513037    30A     -0.493449
      31A     -0.488930    32A     -0.472436    33A     -0.464246
      34A     -0.462668    35A     -0.452697    36A     -0.402076

  @DF-RHF Final Energy:  -387.27396899402493

   => Energetics <=

    Nuclear Repulsion Energy =            439.0735907576856789
    One-Electron Energy =               -1394.9938237977162316
    Two-Electron Energy =                 568.6462640460053990
    DFT Exchange-Correlation Energy =       0.0000000000000000
    Empirical Dispersion Energy =           0.0000000000000000
    PCM Polarization Energy =               0.0000000000000000
    EFP Energy =                            0.0000000000000000
    Total Energy =                       -387.2739689940251537
    Molecular point group: c1
  Basis Set: CC-PVTZ
  Basis Set:

  -Total Gradient:
     Atom            X                  Y                   Z
    ------   -----------------  -----------------  -----------------
       1        0.000031253374    -0.000023636990    -0.000022787341
       2       -0.000016030194    -0.000007751996     0.000046338344
       3        0.001738370865     0.002535085838    -0.001184836766
       4        0.000025381948     0.000022760001    -0.000033794832
       5       -0.001447381010    -0.002163830225    -0.002012047783
       6       -0.001213363953    -0.001740931443     0.001293114034
       7       -0.000008692893    -0.000004392301    -0.000013921643
       8       -0.000004788750     0.000017287861     0.000060520137
       9        0.000929112528     0.001396875448     0.001857609167
      10       -0.000018743719    -0.000021219339     0.000000000303
      11       -0.000019106996    -0.000019320492     0.000003212997
      12        0.000006459854     0.000010075144     0.000014117124
      13       -0.000015988334    -0.000015412586     0.000001026862
      14       -0.000000341316     0.000011030579    -0.000017317691
      15       -0.000001254925     0.000000501246     0.000001855585
      16        0.000008074207    -0.000007728243     0.000003228921
      17       -0.000007088882    -0.000000040674    -0.000006069172
      18       -0.000000226860    -0.000008504020    -0.000007102854
      19        0.000005316046     0.000006239470     0.000004257966
      20       -0.000002656255     0.000003413068    -0.000003697594
      21       -0.000002059420     0.000001468146    -0.000000007285
      22       -0.000000198616     0.000001295189     0.000003210503
      23       -0.000000200187    -0.000004528424     0.000005898366
      24        0.000024060034    -0.000003998700    -0.000002432609
      25       -0.000009906544     0.000015263445     0.000009625262

  **** Optimization is complete! (in 6 steps) ****
    Final optimized geometry and variables:
    Molecular point group: c1

    Geometry (in Angstrom), charge = 0, multiplicity = 1:

    O            2.863977630691     1.322546401142     0.296203501117
    C            2.827365685018     0.135910320995     0.275119901429
    C            1.524473381388    -0.635336828298     0.231752470445
    C            4.092727398106    -0.691653910995     0.294941103058
    C            0.268566634531     0.227315005336     0.207265413436
    H            1.553064324206    -1.304914151976    -0.624871044014
    H            1.513685772650    -1.297269032479     1.095222629568
    C           -0.985666448371    -0.562018633903    -0.153813633424
    H            0.413893515504     1.051573183245    -0.480195769313
    H            0.140881403955     0.687396392582     1.181924685568
    C           -2.253825449130     0.286232531587    -0.137586129965
    H           -0.862144085333    -1.001884262435    -1.140839233089
    H           -1.103161088594    -1.394650093216     0.536537636785
    C           -3.511022102825    -0.493939379904    -0.511046467516
    H           -2.133983758769     1.122145774485    -0.822383554436
    H           -2.382219303820     0.720474544104     0.850914275289
    C           -4.774162733157     0.360427450762    -0.492811494706
    H           -3.384238698050    -0.927178683594    -1.499553072423
    H           -3.631859175086    -1.329185858291     0.173619501681
    H           -4.698566049777     1.185383968348    -1.193368263659
    H           -5.647235471067    -0.222858828778    -0.762193627166
    H           -4.948202818991     0.780498704353     0.492257000019
    H            4.140931815825    -1.322476604353    -0.585781182000
    H            4.954403390981    -0.042730568194     0.324959763430
    H            4.097915281967    -1.345264413631     1.160268129415

  Mulliken Charges: (a.u.)
   Center  Symbol    Alpha    Beta     Spin     Total
       1     O     4.17050  4.17050  0.00000 -0.34100
       2     C     2.86145  2.86145  0.00000  0.27709
       3     C     3.11473  3.11473  0.00000 -0.22946
       4     C     3.15131  3.15131  0.00000 -0.30262
       5     C     3.08515  3.08515  0.00000 -0.17029
       6     H     0.44602  0.44602  0.00000  0.10796
       7     H     0.44461  0.44461  0.00000  0.11078
       8     C     3.09019  3.09019  0.00000 -0.18038
       9     H     0.44183  0.44183  0.00000  0.11634
      10     H     0.44985  0.44985  0.00000  0.10031
      11     C     3.08639  3.08639  0.00000 -0.17279
      12     H     0.45552  0.45552  0.00000  0.08897
      13     H     0.45605  0.45605  0.00000  0.08790
      14     C     3.08415  3.08415  0.00000 -0.16831
      15     H     0.45325  0.45325  0.00000  0.09350
      16     H     0.45408  0.45408  0.00000  0.09183
      17     C     3.15040  3.15040  0.00000 -0.30080
      18     H     0.45508  0.45508  0.00000  0.08984
      19     H     0.45530  0.45530  0.00000  0.08939
      20     H     0.45464  0.45464  0.00000  0.09071
      21     H     0.44867  0.44867  0.00000  0.10267
      22     H     0.45493  0.45493  0.00000  0.09014
      23     H     0.45038  0.45038  0.00000  0.09925
      24     H     0.43532  0.43532  0.00000  0.12935
      25     H     0.45019  0.45019  0.00000  0.09962

   Total alpha = 36.00000, Total beta = 36.00000, Total charge = -0.00000

*** Psi4 exiting successfully. Buy a developer a beer!
