  ==> Input File <==

--------------------------------------------------------------------------
set {
	reference rhf
	basis 6-31G*
}

set_num_threads( 4 )
memory 2 gb

molecule MOL {
0 1

H	 1.418251	 -5.494215	 -0.715462
O	 2.293420	 -5.274866	 -1.000132
C	 2.234539	 -4.271377	 -1.981761
C	 1.871839	 -2.901230	 -1.419736
H	 3.221379	 -4.235040	 -2.425046
H	 1.536249	 -4.550018	 -2.770132
C	 0.470195	 -2.830303	 -0.808809
H	 2.610737	 -2.629249	 -0.670455
H	 1.952894	 -2.172392	 -2.224468
C	 0.115918	 -1.429151	 -0.302766
H	 0.401564	 -3.540182	 0.010780
H	 -0.264981	 -3.137865	 -1.552626
C	 -1.309753	 -1.282496	 0.241564
H	 0.827087	 -1.136297	 0.467508
H	 0.246773	 -0.722761	 -1.119828
C	 -2.037799	 -0.007733	 -0.193645
H	 -1.890610	 -2.142323	 -0.085726
H	 -1.285946	 -1.330893	 1.329189
C	 -3.489788	 0.042957	 0.286558
H	 -2.017067	 0.064384	 -1.280144
H	 -1.513726	 0.868678	 0.179924
C	 -4.216917	 1.317354	 -0.141063
H	 -4.025645	 -0.823308	 -0.095450
H	 -3.513059	 -0.038752	 1.371301
H	 -4.239342	 1.411634	 -1.223113
H	 -5.243387	 1.322503	 0.212445
H	 -3.726170	 2.201406	 0.256408

	symmetry c1
}
set optking {
	frozen_dihedral = ("
		14 10 13 16
	")
}

ee = optimize('scf')
oeprop('DIPOLE', 'QUADRUPOLE', 'MULLIKEN_CHARGES')
f=open( 'psi4out.xyz', 'w' )
f.write( "27  " )
f.write( str(ee) + "\n" )
f.write( MOL.save_string_xyz() )
f.close()
--------------------------------------------------------------------------

    Molecular point group: c1
  Charge       = 0
  Multiplicity = 1
  Basis Set: 6-31G*
  Basis Set:
  @DF-RHF Final Energy:  -388.27856279755571
    Total Energy =                       -388.2785627975559919
    Molecular point group: c1
  Basis Set: 6-31G*
  Basis Set:
  Basis Set: 6-31G*
  Basis Set:
  @DF-RHF Final Energy:  -388.27923268079934
    Total Energy =                       -388.2792326807992822
  Basis Set: 6-31G*
  Basis Set:
  Basis Set: 6-31G*
  Basis Set:
  @DF-RHF Final Energy:  -388.27931978087975
    Total Energy =                       -388.2793197808792911
  Basis Set: 6-31G*
  Basis Set:
  Basis Set: 6-31G*
  Basis Set:
  @DF-RHF Final Energy:  -388.27931738258337
    Total Energy =                       -388.2793173825831445
  Basis Set: 6-31G*
  Basis Set:
  Basis Set: 6-31G*
  Basis Set:
  @DF-RHF Final Energy:  -388.27932263878500
    Total Energy =                       -388.2793226387848335
  Basis Set: 6-31G*
  Basis Set:
  Charge       = 0
  Multiplicity = 1
  Basis Set: 6-31G*
  Basis Set:

    Orbital Energies (a.u.)
    -----------------------

    Doubly Occupied:

       1A    -20.552119     2A    -11.267026     3A    -11.220532
       4A    -11.216898     5A    -11.215794     6A    -11.215296
       7A    -11.215119     8A    -11.214514     9A    -11.209288
      10A     -1.358924    11A     -1.093960    12A     -1.062627
      13A     -1.010988    14A     -0.950528    15A     -0.882403
      16A     -0.820666    17A     -0.792185    18A     -0.790583
      19A     -0.693943    20A     -0.655140    21A     -0.633499
      22A     -0.615507    23A     -0.603301    24A     -0.583537
      25A     -0.577239    26A     -0.555042    27A     -0.534667
      28A     -0.524030    29A     -0.508033    30A     -0.499104
      31A     -0.477598    32A     -0.475649    33A     -0.470329
      34A     -0.462139    35A     -0.456994    36A     -0.441977
      37A     -0.420236

  @DF-RHF Final Energy:  -388.27932309456708

   => Energetics <=

    Nuclear Repulsion Energy =            451.8188734179103676
    One-Electron Energy =               -1421.6415638484475039
    Two-Electron Energy =                 581.5433673359700606
    DFT Exchange-Correlation Energy =       0.0000000000000000
    Empirical Dispersion Energy =           0.0000000000000000
    PCM Polarization Energy =               0.0000000000000000
    EFP Energy =                            0.0000000000000000
    Total Energy =                       -388.2793230945670757
    Molecular point group: c1
  Basis Set: 6-31G*
  Basis Set:

  -Total Gradient:
     Atom            X                  Y                   Z
    ------   -----------------  -----------------  -----------------
       1        0.000004681283     0.000005367788    -0.000005793473
       2        0.000022243978    -0.000027122422     0.000010641006
       3       -0.000045503854     0.000009819818     0.000010502116
       4        0.000021892031    -0.000021834454     0.000049333741
       5       -0.000006601338     0.000000464891     0.000005768141
       6        0.000001373540    -0.000002167108    -0.000009400190
       7        0.000083706041    -0.000049948036    -0.000068281894
       8        0.000027698380     0.000007814401    -0.000001214679
       9       -0.000012502941     0.000008746028     0.000009931894
      10       -0.000643432896     0.003634026783    -0.002166487799
      11        0.000023193328     0.000035979786    -0.000018779718
      12       -0.000023008351     0.000037184096    -0.000018188046
      13        0.001275822344     0.000950049674     0.003126554042
      14        0.000219070277    -0.003414783826     0.001055665758
      15       -0.000046631956    -0.000031688188     0.000040230376
      16       -0.000988303748    -0.001181501843    -0.002081238665
      17        0.000035906402     0.000024341506     0.000009434351
      18        0.000012806313     0.000042351765     0.000014719181
      19        0.000026042263     0.000040680431     0.000022357503
      20        0.000040187526    -0.000028045377    -0.000017679799
      21       -0.000047648019    -0.000024981642     0.000027222363
      22        0.000009004180    -0.000013831680    -0.000014672354
      23        0.000014889556    -0.000006119763     0.000007988387
      24       -0.000011700418     0.000008668957     0.000013001826
      25        0.000005380933     0.000004762314    -0.000003623637
      26        0.000004285096    -0.000012378013    -0.000004765975
      27       -0.000002849954     0.000004144113     0.000006775542

  **** Optimization is complete! (in 6 steps) ****
    Final optimized geometry and variables:
    Molecular point group: c1

    Geometry (in Angstrom), charge = 0, multiplicity = 1:

    H            1.769219606774    -3.586923980069    -0.132909368505
    O            2.669514574371    -3.395090784744    -0.351691532752
    C            2.714491730690    -2.381535592503    -1.323476336616
    C            2.343127535432    -1.007664166593    -0.776222843345
    H            3.734145466802    -2.367398291406    -1.686344612606
    H            2.074396031606    -2.634338011814    -2.167985497952
    C            0.900101796951    -0.905881798178    -0.278521355081
    H            3.027092361344    -0.761672812446     0.031884609972
    H            2.505620323371    -0.273387225764    -1.563702648511
    C            0.527861821790     0.498389684865     0.207007699572
    H            0.745206431435    -1.609412471383     0.537396766214
    H            0.218435091526    -1.199707667632    -1.076488677371
    C           -0.904623768554     0.586750725281     0.769293941344
    H            1.240662862533     0.784433415797     0.976350200058
    H            0.651424875515     1.200179134058    -0.614015484113
    C           -1.643779615330     1.864090019199     0.364256902764
    H           -1.483507024815    -0.265225852929     0.417423067513
    H           -0.881588519245     0.503649836478     1.852923240431
    C           -3.054141938840     1.960335796695     0.947468360365
    H           -1.698674086231     1.910747779297    -0.722103659832
    H           -1.066529421914     2.733302615882     0.676543050944
    C           -3.791761759129     3.229448652496     0.521951459920
    H           -3.630036274610     1.089012908507     0.642196417551
    H           -2.998003035140     1.922825122973     2.033333542154
    H           -3.894158165934     3.279944486526    -0.558450693891
    H           -4.788517548289     3.268009188907     0.950424302961
    H           -3.258641787319     4.119460807774     0.844258784171

  Mulliken Charges: (a.u.)
   Center  Symbol    Alpha    Beta     Spin     Total
       1     H     0.27988  0.27988  0.00000  0.44024
       2     O     4.37099  4.37099  0.00000 -0.74197
       3     C     2.99717  2.99717  0.00000  0.00566
       4     C     3.16195  3.16195  0.00000 -0.32390
       5     H     0.41444  0.41444  0.00000  0.17112
       6     H     0.43207  0.43207  0.00000  0.13587
       7     C     3.16368  3.16368  0.00000 -0.32737
       8     H     0.41503  0.41503  0.00000  0.16994
       9     H     0.42418  0.42418  0.00000  0.15164
      10     C     3.15248  3.15248  0.00000 -0.30497
      11     H     0.42471  0.42471  0.00000  0.15058
      12     H     0.42490  0.42490  0.00000  0.15019
      13     C     3.15452  3.15452  0.00000 -0.30905
      14     H     0.41951  0.41951  0.00000  0.16099
      15     H     0.42059  0.42059  0.00000  0.15883
      16     C     3.15230  3.15230  0.00000 -0.30461
      17     H     0.42327  0.42327  0.00000  0.15346
      18     H     0.42037  0.42037  0.00000  0.15927
      19     C     3.15207  3.15207  0.00000 -0.30415
      20     H     0.42419  0.42419  0.00000  0.15162
      21     H     0.42338  0.42338  0.00000  0.15325
      22     C     3.23920  3.23920  0.00000 -0.47840
      23     H     0.42342  0.42342  0.00000  0.15316
      24     H     0.42282  0.42282  0.00000  0.15436
      25     H     0.42198  0.42198  0.00000  0.15604
      26     H     0.41928  0.41928  0.00000  0.16145
      27     H     0.42162  0.42162  0.00000  0.15676

   Total alpha = 37.00000, Total beta = 37.00000, Total charge =  0.00000
