                              Psi4 1.0.54 Driver

  ==> Input File <==

--------------------------------------------------------------------------
set {
	reference rhf
	basis cc-pvtz
}

set_num_threads( 4 )
memory 2 gb

molecule MOL {
0 1

H	 2.475235	 2.561476	 1.450991
O	 1.539868	 2.505355	 1.524237
C	 1.047619	 1.509630	 0.761550
C	 1.862240	 0.699372	 -0.014694
C	 -0.317513	 1.308712	 0.769757
H	 2.925474	 0.857284	 -0.019902
C	 1.310927	 -0.308402	 -0.779809
H	 -0.949336	 1.932806	 1.368212
C	 -0.861704	 0.296439	 0.000000
H	 1.951002	 -0.929018	 -1.376436
C	 -0.053743	 -0.515975	 -0.777179
C	 -2.330689	 0.069587	 0.000000
H	 -0.485322	 -1.298835	 -1.371113
O	 -2.848621	 -0.993976	 0.000000
H	 -2.934306	 0.982410	 0.000000

	symmetry c1
}
set optking {
	frozen_dihedral = ("
		11 9 12 14
	")
}

ee,wfn = optimize('scf', return_wfn=True)
oeprop( wfn, 'DIPOLE', 'QUADRUPOLE', 'MULLIKEN_CHARGES')
f=open( 'psi4out.xyz', 'w' )
f.write( "15  " )
f.write( str(ee) + "\n" )
f.write( MOL.save_string_xyz() )
f.close()
--------------------------------------------------------------------------

    Molecular point group: c1
  Charge       = 0
  Multiplicity = 1
  Basis Set: CC-PVTZ
  Basis Set:
  @DF-RHF Final Energy:  -418.43419904659123
    Total Energy =                       -418.4341990465914023
    Molecular point group: c1
  Basis Set: CC-PVTZ
  Basis Set:
  Basis Set: CC-PVTZ
  Basis Set:
  @DF-RHF Final Energy:  -418.43307941069145
    Total Energy =                       -418.4330794106913345
  Basis Set: CC-PVTZ
  Basis Set:
  Basis Set: CC-PVTZ
  Basis Set:
  @DF-RHF Final Energy:  -418.43443013190085
    Total Energy =                       -418.4344301319010810
  Basis Set: CC-PVTZ
  Basis Set:
  Basis Set: CC-PVTZ
  Basis Set:
  @DF-RHF Final Energy:  -418.43481529876999
    Total Energy =                       -418.4348152987697631
  Basis Set: CC-PVTZ
  Basis Set:
  Basis Set: CC-PVTZ
  Basis Set:
  @DF-RHF Final Energy:  -418.43482035513529
    Total Energy =                       -418.4348203551352299
  Basis Set: CC-PVTZ
  Basis Set:
  Charge       = 0
  Multiplicity = 1
  Basis Set: CC-PVTZ
  Basis Set:

    Orbital Energies (a.u.)
    -----------------------

    Doubly Occupied:

       1A    -20.598097     2A    -20.558140     3A    -11.329609
       4A    -11.313270     5A    -11.253071     6A    -11.249009
       7A    -11.243968     8A    -11.242221     9A    -11.236598
      10A     -1.429617    11A     -1.413297    12A     -1.173589
      13A     -1.053430    14A     -1.027983    15A     -0.903631
      16A     -0.848507    17A     -0.818768    18A     -0.742323
      19A     -0.704444    20A     -0.678290    21A     -0.668487
      22A     -0.636162    23A     -0.615592    24A     -0.609914
      25A     -0.585644    26A     -0.547689    27A     -0.542507
      28A     -0.518368    29A     -0.494043    30A     -0.427262
      31A     -0.359487    32A     -0.329175

  @DF-RHF Final Energy:  -418.43482160387640

   => Energetics <=

    Nuclear Repulsion Energy =            403.0634527824911970
    One-Electron Energy =               -1368.6921611060579380
    Two-Electron Energy =                 547.1938867196903402
    DFT Exchange-Correlation Energy =       0.0000000000000000
    Empirical Dispersion Energy =           0.0000000000000000
    PCM Polarization Energy =               0.0000000000000000
    EFP Energy =                            0.0000000000000000
    Total Energy =                       -418.4348216038764576
    Molecular point group: c1
  Basis Set: CC-PVTZ
  Basis Set:

  -Total Gradient:
     Atom            X                  Y                   Z
    ------   -----------------  -----------------  -----------------
       1       -0.000003984986    -0.000004426489    -0.000001156587
       2        0.000008955253    -0.000001913977    -0.000011392429
       3       -0.000146407314     0.000056606599     0.000069987879
       4        0.000017309826    -0.000116572425    -0.000120381263
       5        0.000063949231     0.000014782143     0.000026041531
       6       -0.000003145439     0.000003641619    -0.000004533302
       7        0.000105285348     0.000071841417     0.000108992381
       8        0.000009910169     0.000005971064    -0.000007488197
       9        0.000679780327    -0.005169020752     0.007861005964
      10       -0.000007792765    -0.000004122776    -0.000014205478
      11       -0.000517736725     0.003402235180    -0.003547858735
      12       -0.000278142997     0.001938146283    -0.010380835893
      13       -0.000003352002     0.000000842396    -0.000008022587
      14        0.000084003339    -0.000203444610     0.006025485917
      15       -0.000008631261     0.000005434335     0.000004360797

  **** Optimization is complete! (in 6 steps) ****
    Final optimized geometry and variables:
    Molecular point group: c1

    Geometry (in Angstrom), charge = 0, multiplicity = 1:

    H            2.549026709335     2.013694510831     1.297759585726
    O            1.613555982419     1.949336411661     1.366013797020
    C            1.135013233440     0.963694085547     0.581847326352
    C            1.949290975005     0.181300057485    -0.214639854824
    C           -0.233230721927     0.755160449951     0.580207728239
    H            3.010672471424     0.350369188509    -0.227398657974
    C            1.395743902393    -0.812866358813    -1.002551451438
    H           -0.856489637390     1.387366017812     1.183581710296
    C           -0.770534151136    -0.263395107981    -0.180790317434
    H            2.036268143355    -1.405021062620    -1.627362896585
    C            0.038065608179    -1.044724825847    -0.992055600955
    C           -2.248929700392    -0.453274610345    -0.186931264137
    H           -0.396894886363    -1.820012390381    -1.589998246914
    O           -2.783922858242    -1.506129310830    -0.238096096391
    H           -2.835140146022     0.466053765992    -0.090322050020

  Mulliken Charges: (a.u.)
   Center  Symbol    Alpha    Beta     Spin     Total
       1     H     0.38624  0.38624  0.00000  0.22752
       2     O     4.17189  4.17189  0.00000 -0.34378
       3     C     2.84046  2.84046  0.00000  0.31908
       4     C     3.13349  3.13349  0.00000 -0.26698
       5     C     3.13211  3.13211  0.00000 -0.26423
       6     H     0.43183  0.43183  0.00000  0.13633
       7     C     3.05741  3.05741  0.00000 -0.11481
       8     H     0.41910  0.41910  0.00000  0.16180
       9     C     2.94200  2.94200  0.00000  0.11601
      10     H     0.41905  0.41905  0.00000  0.16190
      11     C     3.11124  3.11124  0.00000 -0.22249
      12     C     2.91934  2.91934  0.00000  0.16132
      13     H     0.41331  0.41331  0.00000  0.17338
      14     O     4.16470  4.16470  0.00000 -0.32941
      15     H     0.45783  0.45783  0.00000  0.08435

   Total alpha = 32.00000, Total beta = 32.00000, Total charge =  0.00000

*** Psi4 exiting successfully. Buy a developer a beer!
