  ==> Input File <==

--------------------------------------------------------------------------
set {
	reference rhf
	basis 6-31G*
}

set_num_threads( 4 )
memory 2 gb

molecule MOL {
0 1

H	 0.924572	 1.939180	 -1.441028
O	 1.217206	 1.837063	 -0.545601
C	 0.709265	 0.639550	 -0.033818
C	 -0.793441	 0.596080	 0.058728
H	 1.138405	 0.527286	 0.955343
H	 1.055606	 -0.210144	 -0.621264
C	 -1.530462	 -0.493172	 -0.025500
H	 -1.268471	 1.554324	 0.202247
H	 -1.092586	 -1.461565	 -0.186463
H	 -2.602122	 -0.450675	 0.050101

	symmetry c1
}
set optking {
	frozen_dihedral = ("
		5 3 4 7
	")
}

ee = optimize('scf')
oeprop('DIPOLE', 'QUADRUPOLE', 'MULLIKEN_CHARGES')
f=open( 'psi4out.xyz', 'w' )
f.write( "10  " )
f.write( str(ee) + "\n" )
f.write( MOL.save_string_xyz() )
f.close()
--------------------------------------------------------------------------

    Molecular point group: c1
  Charge       = 0
  Multiplicity = 1
  Basis Set: 6-31G*
  Basis Set:
  @DF-RHF Final Energy:  -191.91564986784255
    Total Energy =                       -191.9156498678424896
    Molecular point group: c1
  Basis Set: 6-31G*
  Basis Set:
  Basis Set: 6-31G*
  Basis Set:
  @DF-RHF Final Energy:  -191.91594745862199
    Total Energy =                       -191.9159474586219574
  Basis Set: 6-31G*
  Basis Set:
  Basis Set: 6-31G*
  Basis Set:
  @DF-RHF Final Energy:  -191.91605000634860
    Total Energy =                       -191.9160500063486552
  Basis Set: 6-31G*
  Basis Set:
  Basis Set: 6-31G*
  Basis Set:
  @DF-RHF Final Energy:  -191.91605304110789
    Total Energy =                       -191.9160530411079435
  Basis Set: 6-31G*
  Basis Set:
  Charge       = 0
  Multiplicity = 1
  Basis Set: 6-31G*
  Basis Set:

    Orbital Energies (a.u.)
    -----------------------

    Doubly Occupied:

       1A    -20.559363     2A    -11.276854     3A    -11.230906
       4A    -11.224462     5A     -1.367020     6A     -1.062682
       7A     -0.920474     8A     -0.775815     9A     -0.703047
      10A     -0.622726    11A     -0.618987    12A     -0.601820
      13A     -0.525033    14A     -0.494828    15A     -0.446211
      16A     -0.368139

  @DF-RHF Final Energy:  -191.91605333751386

   => Energetics <=

    Nuclear Repulsion Energy =            117.1063781973392679
    One-Electron Energy =                -492.4481262945388380
    Two-Electron Energy =                 183.4256947596857117
    DFT Exchange-Correlation Energy =       0.0000000000000000
    Empirical Dispersion Energy =           0.0000000000000000
    PCM Polarization Energy =               0.0000000000000000
    EFP Energy =                            0.0000000000000000
    Total Energy =                       -191.9160533375138584
    Molecular point group: c1
  Basis Set: 6-31G*
  Basis Set:

  -Total Gradient:
     Atom            X                  Y                   Z
    ------   -----------------  -----------------  -----------------
       1       -0.000003343154    -0.000004866525     0.000001325314
       2       -0.000009067570    -0.000032976525     0.000017928979
       3        0.000006535180     0.003632339216     0.001769609931
       4       -0.000189282125    -0.000327650078    -0.004305377337
       5        0.000046648460    -0.003001793141    -0.000298292081
       6        0.000000002334    -0.000001727149    -0.000005732124
       7        0.000156574434    -0.000270077593     0.002825573746
       8       -0.000004155000    -0.000000398367    -0.000004096541
       9       -0.000004052064     0.000005383302    -0.000002353534
      10        0.000000139503     0.000001766857     0.000001413648

  **** Optimization is complete! (in 5 steps) ****
    Final optimized geometry and variables:
    Molecular point group: c1

    Geometry (in Angstrom), charge = 0, multiplicity = 1:

    H            0.960533982795     1.230482540362    -1.277403613998
    O            1.237823101692     1.143253743480    -0.375679717298
    C            0.743741809207    -0.060769528198     0.144513360832
    C           -0.761283556381    -0.090085242557     0.213769265576
    H            1.160317660139    -0.156187367999     1.139957443196
    H            1.108184109006    -0.912238393574    -0.426853094447
    C           -1.496006912298    -1.181772423299     0.138406433389
    H           -1.227094123077     0.863967396390     0.403207631342
    H           -1.060683699743    -2.150786853936    -0.041733629812
    H           -2.564844226284    -1.152140170237     0.251143457218

  Mulliken Charges: (a.u.)
   Center  Symbol    Alpha    Beta     Spin     Total
       1     H     0.28115  0.28115  0.00000  0.43770
       2     O     4.36939  4.36939  0.00000 -0.73878
       3     C     3.00575  3.00575  0.00000 -0.01150
       4     C     3.09019  3.09019  0.00000 -0.18039
       5     H     0.40700  0.40700  0.00000  0.18599
       6     H     0.42417  0.42417  0.00000  0.15167
       7     C     3.19797  3.19797  0.00000 -0.39595
       8     H     0.40241  0.40241  0.00000  0.19518
       9     H     0.41322  0.41322  0.00000  0.17356
      10     H     0.40874  0.40874  0.00000  0.18251

   Total alpha = 16.00000, Total beta = 16.00000, Total charge =  0.00000
