  ==> Input File <==

--------------------------------------------------------------------------
set {
	reference rhf
	basis 6-31G*
}

set_num_threads( 4 )
memory 2 gb

molecule MOL {
0 1

H	 1.086508	 2.040062	 1.235783
O	 1.339530	 1.135473	 1.111079
C	 0.709265	 0.639550	 -0.033818
C	 -0.793441	 0.596080	 0.058728
H	 1.094207	 -0.363188	 -0.180582
H	 0.996393	 1.214667	 -0.913490
C	 -1.530462	 -0.493172	 -0.025500
H	 -1.268471	 1.554324	 0.202247
H	 -1.092586	 -1.461565	 -0.186463
H	 -2.602122	 -0.450675	 0.050101

	symmetry c1
}
set optking {
	frozen_dihedral = ("
		5 3 4 7
	")
}

ee = optimize('scf')
oeprop('DIPOLE', 'QUADRUPOLE', 'MULLIKEN_CHARGES')
f=open( 'psi4out.xyz', 'w' )
f.write( "10  " )
f.write( str(ee) + "\n" )
f.write( MOL.save_string_xyz() )
f.close()
--------------------------------------------------------------------------

    Molecular point group: c1
  Charge       = 0
  Multiplicity = 1
  Basis Set: 6-31G*
  Basis Set:
  @DF-RHF Final Energy:  -191.91454352863201
    Total Energy =                       -191.9145435286320094
    Molecular point group: c1
  Basis Set: 6-31G*
  Basis Set:
  Basis Set: 6-31G*
  Basis Set:
  @DF-RHF Final Energy:  -191.91476686815847
    Total Energy =                       -191.9147668681584094
  Basis Set: 6-31G*
  Basis Set:
  Basis Set: 6-31G*
  Basis Set:
  @DF-RHF Final Energy:  -191.91480980835397
    Total Energy =                       -191.9148098083539935
  Basis Set: 6-31G*
  Basis Set:
  Basis Set: 6-31G*
  Basis Set:
  @DF-RHF Final Energy:  -191.91481240007698
    Total Energy =                       -191.9148124000769826
  Basis Set: 6-31G*
  Basis Set:
  Charge       = 0
  Multiplicity = 1
  Basis Set: 6-31G*
  Basis Set:

    Orbital Energies (a.u.)
    -----------------------

    Doubly Occupied:

       1A    -20.557045     2A    -11.276406     3A    -11.231524
       4A    -11.225275     5A     -1.363701     6A     -1.062771
       7A     -0.920329     8A     -0.779801     9A     -0.686252
      10A     -0.655233    11A     -0.617786    12A     -0.568310
      13A     -0.540420    14A     -0.490952    15A     -0.440729
      16A     -0.371621

  @DF-RHF Final Energy:  -191.91481278329513

   => Energetics <=

    Nuclear Repulsion Energy =            117.3314458373118754
    One-Electron Energy =                -492.9162096577785519
    Two-Electron Energy =                 183.6699510371716428
    DFT Exchange-Correlation Energy =       0.0000000000000000
    Empirical Dispersion Energy =           0.0000000000000000
    PCM Polarization Energy =               0.0000000000000000
    EFP Energy =                            0.0000000000000000
    Total Energy =                       -191.9148127832950195
    Molecular point group: c1
  Basis Set: 6-31G*
  Basis Set:

  -Total Gradient:
     Atom            X                  Y                   Z
    ------   -----------------  -----------------  -----------------
       1       -0.000023568582     0.000004620703    -0.000004711973
       2        0.000058263511     0.000003215377     0.000028496498
       3        0.000015620390    -0.000123004337     0.000933288954
       4       -0.000047823274     0.000133747207    -0.000938970262
       5       -0.000050132567     0.000062740823    -0.000571131121
       6        0.000009595188     0.000002430607     0.000028202495
       7        0.000043708267    -0.000050536422     0.000518033962
       8        0.000001488042    -0.000015604116    -0.000009884769
       9       -0.000011327476    -0.000003729065     0.000009457574
      10        0.000004176498    -0.000013880778     0.000007218641

  **** Optimization is complete! (in 5 steps) ****
    Final optimized geometry and variables:
    Molecular point group: c1

    Geometry (in Angstrom), charge = 0, multiplicity = 1:

    H            1.098235435358     1.530369923619     0.924764262202
    O            1.322032235861     0.617383146004     0.809463613385
    C            0.707300357304     0.124057362002    -0.354032278237
    C           -0.793506692996     0.093659600542    -0.253548222449
    H            1.091466173653    -0.875929990364    -0.501015995929
    H            1.007015684948     0.717423627784    -1.216759767895
    C           -1.527644974503    -0.997431214479    -0.333898398989
    H           -1.277247672208     1.048130669579    -0.105250733646
    H           -1.084959361622    -1.968715400430    -0.475177329955
    H           -2.600270146955    -0.965673361149    -0.263307424730

  Mulliken Charges: (a.u.)
   Center  Symbol    Alpha    Beta     Spin     Total
       1     H     0.28277  0.28277  0.00000  0.43445
       2     O     4.36515  4.36515  0.00000 -0.73030
       3     C     3.01279  3.01279  0.00000 -0.02558
       4     C     3.07410  3.07410  0.00000 -0.14820
       5     H     0.40999  0.40999  0.00000  0.18002
       6     H     0.42598  0.42598  0.00000  0.14804
       7     C     3.19491  3.19491  0.00000 -0.38983
       8     H     0.41350  0.41350  0.00000  0.17300
       9     H     0.41099  0.41099  0.00000  0.17802
      10     H     0.40981  0.40981  0.00000  0.18038

   Total alpha = 16.00000, Total beta = 16.00000, Total charge = -0.00000
