  ==> Input File <==

--------------------------------------------------------------------------
set {
	reference rhf
	basis 6-31G*
}

set_num_threads( 4 )
memory 2 gb

molecule MOL {
0 1

H	 -3.311594	 0.193155	 -2.489083
O	 -2.964044	 -0.231824	 -1.718040
C	 -1.703565	 0.305745	 -1.410139
C	 -1.177863	 -0.397191	 -0.171080
H	 -1.013283	 0.163746	 -2.240593
H	 -1.778081	 1.376952	 -1.227651
C	 0.198102	 0.111031	 0.262842
H	 -1.135916	 -1.463681	 -0.374958
H	 -1.898135	 -0.260832	 0.630850
C	 1.331804	 -0.827780	 -0.158768
H	 0.361943	 1.100838	 -0.156218
H	 0.217265	 0.229072	 1.345532
C	 2.723619	 -0.410569	 0.329459
H	 1.342964	 -0.912588	 -1.244120
H	 1.116806	 -1.824343	 0.220779
C	 3.243875	 0.895854	 -0.272975
H	 3.424222	 -1.207124	 0.091250
H	 2.714788	 -0.329854	 1.414619
H	 3.251977	 0.848779	 -1.358681
H	 2.637085	 1.747371	 0.016682
H	 4.259473	 1.094070	 0.055697

	symmetry c1
}
set optking {
	frozen_dihedral = ("
		8 4 7 10
	")
}

ee = optimize('scf')
oeprop('DIPOLE', 'QUADRUPOLE', 'MULLIKEN_CHARGES')
f=open( 'psi4out.xyz', 'w' )
f.write( "21  " )
f.write( str(ee) + "\n" )
f.write( MOL.save_string_xyz() )
f.close()
--------------------------------------------------------------------------

    Molecular point group: c1
  Charge       = 0
  Multiplicity = 1
  Basis Set: 6-31G*
  Basis Set:
  @DF-RHF Final Energy:  -310.20850541420214
    Total Energy =                       -310.2085054142015110
    Molecular point group: c1
  Basis Set: 6-31G*
  Basis Set:
  Basis Set: 6-31G*
  Basis Set:
  @DF-RHF Final Energy:  -310.20878173030792
    Total Energy =                       -310.2087817303080897
  Basis Set: 6-31G*
  Basis Set:
  Basis Set: 6-31G*
  Basis Set:
  @DF-RHF Final Energy:  -310.20878589995567
    Total Energy =                       -310.2087858999553305
  Basis Set: 6-31G*
  Basis Set:
  Basis Set: 6-31G*
  Basis Set:
  @DF-RHF Final Energy:  -310.20886641819999
    Total Energy =                       -310.2088664182000457
  Basis Set: 6-31G*
  Basis Set:
  Basis Set: 6-31G*
  Basis Set:
  @DF-RHF Final Energy:  -310.20887311540713
    Total Energy =                       -310.2088731154073002
  Basis Set: 6-31G*
  Basis Set:
  Basis Set: 6-31G*
  Basis Set:
  @DF-RHF Final Energy:  -310.20887579656983
    Total Energy =                       -310.2088757965698846
  Basis Set: 6-31G*
  Basis Set:
  Charge       = 0
  Multiplicity = 1
  Basis Set: 6-31G*
  Basis Set:

    Orbital Energies (a.u.)
    -----------------------

    Doubly Occupied:

       1A    -20.551834     2A    -11.267091     3A    -11.215718
       4A    -11.215570     5A    -11.214292     6A    -11.210473
       7A    -11.209098     8A     -1.358841     9A     -1.085618
      10A     -1.032108    11A     -0.953478    12A     -0.877503
      13A     -0.809968    14A     -0.777742    15A     -0.693971
      16A     -0.648342    17A     -0.632830    18A     -0.609233
      19A     -0.585968    20A     -0.563394    21A     -0.540917
      22A     -0.521164    23A     -0.511192    24A     -0.492173
      25A     -0.475040    26A     -0.457183    27A     -0.456234
      28A     -0.445599    29A     -0.431339

  @DF-RHF Final Energy:  -310.20887616181193

   => Energetics <=

    Nuclear Repulsion Energy =            315.3447990658386857
    One-Electron Energy =               -1045.4195270816142056
    Two-Electron Energy =                 419.8658518539635907
    DFT Exchange-Correlation Energy =       0.0000000000000000
    Empirical Dispersion Energy =           0.0000000000000000
    PCM Polarization Energy =               0.0000000000000000
    EFP Energy =                            0.0000000000000000
    Total Energy =                       -310.2088761618118724
    Molecular point group: c1
  Basis Set: 6-31G*
  Basis Set:

  -Total Gradient:
     Atom            X                  Y                   Z
    ------   -----------------  -----------------  -----------------
       1       -0.000017306315    -0.000007188886    -0.000007671240
       2       -0.000012116274     0.000010338840    -0.000027128299
       3       -0.000008326837    -0.000004285353     0.000030573220
       4       -0.000819417938    -0.001122867863     0.003770968281
       5        0.000000444401    -0.000001464025     0.000006036039
       6        0.000003982400     0.000002841455    -0.000003445247
       7        0.000406887680     0.001558461492    -0.002886459104
       8        0.000645558435     0.000591089251    -0.002521111893
       9        0.000004016797     0.000004784290     0.000002413043
      10       -0.000191152745    -0.001028490880     0.001627656205
      11       -0.000011894040    -0.000002434302    -0.000005667653
      12        0.000006724689    -0.000001751240     0.000008252381
      13        0.000002279402    -0.000001119244    -0.000002599835
      14        0.000003048521     0.000002912839     0.000005915546
      15       -0.000008021722    -0.000003847170    -0.000002604981
      16       -0.000004885457    -0.000001778424     0.000002090734
      17        0.000012839328     0.000005710023     0.000004311480
      18       -0.000010151494     0.000001624158    -0.000007762600
      19       -0.000012517018    -0.000007250020     0.000007077948
      20        0.000004178473     0.000006204032     0.000003972290
      21        0.000005829716    -0.000001488973    -0.000004816318

  **** Optimization is complete! (in 7 steps) ****
    Final optimized geometry and variables:
    Molecular point group: c1

    Geometry (in Angstrom), charge = 0, multiplicity = 1:

    H           -3.418975355798     0.280171632396    -2.062262787374
    O           -3.092415143417    -0.166962244692    -1.294543411387
    C           -1.868531066018     0.397880862774    -0.902338023949
    C           -1.381833669518    -0.334065198053     0.338263627336
    H           -1.132025709398     0.310217269973    -1.700425650583
    H           -1.987527020131     1.458357473421    -0.684519843674
    C            0.004963803651     0.150732305121     0.803164910393
    H           -1.351998364157    -1.391993711180     0.095847461289
    H           -2.123756922913    -0.206184561236     1.119098108658
    C            1.146578099253    -0.772518122785     0.363760860605
    H            0.177523291816     1.161436888369     0.441914291515
    H            0.020957002259     0.218351046763     1.888029076578
    C            2.540723542843    -0.327400805127     0.819083870121
    H            1.140108709278    -0.873815550688    -0.720893280444
    H            0.952351827607    -1.766162279849     0.760569550387
    C            3.041997410208     0.962485630534     0.166681676823
    H            3.245729936917    -1.125043116825     0.598142357970
    H            2.545038544502    -0.210865071357     1.901045779060
    H            3.038802271856     0.877856916668    -0.916821115027
    H            2.431130651517     1.818458434398     0.433635436333
    H            4.059335501773     1.180835419905     0.476594454736

  Mulliken Charges: (a.u.)
   Center  Symbol    Alpha    Beta     Spin     Total
       1     H     0.28119  0.28119  0.00000  0.43762
       2     O     4.37161  4.37161  0.00000 -0.74323
       3     C     2.99269  2.99269  0.00000  0.01462
       4     C     3.16100  3.16100  0.00000 -0.32200
       5     H     0.43285  0.43285  0.00000  0.13430
       6     H     0.43257  0.43257  0.00000  0.13487
       7     C     3.16590  3.16590  0.00000 -0.33179
       8     H     0.41221  0.41221  0.00000  0.17558
       9     H     0.41235  0.41235  0.00000  0.17530
      10     C     3.15312  3.15312  0.00000 -0.30623
      11     H     0.42131  0.42131  0.00000  0.15738
      12     H     0.41883  0.41883  0.00000  0.16234
      13     C     3.15305  3.15305  0.00000 -0.30610
      14     H     0.42464  0.42464  0.00000  0.15073
      15     H     0.41980  0.41980  0.00000  0.16040
      16     C     3.24108  3.24108  0.00000 -0.48215
      17     H     0.42056  0.42056  0.00000  0.15889
      18     H     0.42306  0.42306  0.00000  0.15387
      19     H     0.42266  0.42266  0.00000  0.15468
      20     H     0.42062  0.42062  0.00000  0.15876
      21     H     0.41891  0.41891  0.00000  0.16218

   Total alpha = 29.00000, Total beta = 29.00000, Total charge =  0.00000
