  ==> Input File <==

--------------------------------------------------------------------------
set {
	reference rhf
	basis 6-31G*
}

set_num_threads( 1 )
memory 2 gb

molecule MOL {
0 1

H	 -2.798360	 -0.862255	 -0.071053
N	 -1.863561	 -0.715187	 0.256814
C	 -1.344686	 0.554728	 -0.219830
H	 -1.300452	 -1.461917	 -0.101532
C	 0.081427	 0.741154	 0.254071
H	 -1.362155	 0.656231	 -1.305829
H	 -1.952773	 1.354456	 0.191809
O	 0.874168	 -0.245412	 -0.342030
H	 0.444037	 1.730782	 -0.023037
H	 0.121165	 0.653424	 1.337565
C	 2.219899	 -0.190787	 0.009530
H	 2.727139	 -0.993293	 -0.508534
H	 2.669712	 0.756167	 -0.283604
H	 2.356453	 -0.320620	 1.081120

	symmetry c1
}
set optking {
	frozen_dihedral = ("
		8 5 3 6,
		6 3 2 4,
		5 8 11 13
	")
}

ee = energy('scf')
oeprop('DIPOLE', 'QUADRUPOLE', 'MULLIKEN_CHARGES')
f=open( 'psi4out.xyz', 'w' )
f.write( "14  " )
f.write( str(ee) + "\n" )
f.write( MOL.save_string_xyz() )
f.close()
--------------------------------------------------------------------------

    Molecular point group: c1

    Geometry (in Angstrom), charge = 0, multiplicity = 1:

       Center              X                  Y                   Z               Mass
    ------------   -----------------  -----------------  -----------------  -----------------
           H         -2.802065762999    -0.873521970473    -0.057333269498     1.007825032070
           N         -1.867266762999    -0.726453970473     0.270533730502    14.003074004780
           C         -1.348391762999     0.543461029527    -0.206110269498    12.000000000000
           H         -1.304157762999    -1.473183970473    -0.087812269498     1.007825032070
           C          0.077721237001     0.729887029527     0.267790730502    12.000000000000
           H         -1.365860762999     0.644964029527    -1.292109269498     1.007825032070
           H         -1.956478762999     1.343189029527     0.205528730502     1.007825032070
           O          0.870462237001    -0.256678970473    -0.328310269498    15.994914619560
           H          0.440331237001     1.719515029527    -0.009317269498     1.007825032070
           H          0.117459237001     0.642157029527     1.351284730502     1.007825032070
           C          2.216193237001    -0.202053970473     0.023249730502    12.000000000000
           H          2.723433237001    -1.004559970473    -0.494814269498     1.007825032070
           H          2.666006237001     0.744900029527    -0.269884269498     1.007825032070
           H          2.352747237001    -0.331886970473     1.094839730502     1.007825032070

  Charge       = 0
  Multiplicity = 1
  Basis Set: 6-31G*
  Basis Set:

    Orbital Energies (a.u.)
    -----------------------

    Doubly Occupied:

       1A    -20.557500     2A    -15.528416     3A    -11.266352
       4A    -11.265645     5A    -11.240828     6A     -1.381495
       7A     -1.173643     8A     -0.998996     9A     -0.907332
      10A     -0.815160    11A     -0.683615    12A     -0.674411
      13A     -0.645266    14A     -0.609496    15A     -0.605910
      16A     -0.540725    17A     -0.530192    18A     -0.496907
      19A     -0.472761    20A     -0.417565    21A     -0.380104

  @DF-RHF Final Energy:  -248.12523060379635

   => Energetics <=

    Nuclear Repulsion Energy =            194.6094443880263611
    One-Electron Energy =                -723.0846656977547582
    Two-Electron Energy =                 280.3499907059321004
    DFT Exchange-Correlation Energy =       0.0000000000000000
    Empirical Dispersion Energy =           0.0000000000000000
    PCM Polarization Energy =               0.0000000000000000
    EFP Energy =                            0.0000000000000000
    Total Energy =                       -248.1252306037962398

  Mulliken Charges: (a.u.)
   Center  Symbol    Alpha    Beta     Spin     Total
       1     H     0.33284  0.33284  0.00000  0.33431
       2     N     3.92518  3.92518  0.00000 -0.85036
       3     C     3.06889  3.06889  0.00000 -0.13777
       4     H     0.32359  0.32359  0.00000  0.35282
       5     C     2.99007  2.99007  0.00000  0.01986
       6     H     0.42677  0.42677  0.00000  0.14646
       7     H     0.42047  0.42047  0.00000  0.15905
       8     O     4.30972  4.30972  0.00000 -0.61944
       9     H     0.43131  0.43131  0.00000  0.13738
      10     H     0.42225  0.42225  0.00000  0.15550
      11     C     3.07892  3.07892  0.00000 -0.15784
      12     H     0.41244  0.41244  0.00000  0.17511
      13     H     0.42986  0.42986  0.00000  0.14028
      14     H     0.42769  0.42769  0.00000  0.14463

   Total alpha = 21.00000, Total beta = 21.00000, Total charge = -0.00000
