  ==> Input File <==

--------------------------------------------------------------------------
set {
	reference rhf
	basis 6-31G*
}

set_num_threads( 1 )
memory 2 gb

molecule MOL {
0 1

O	 1.779583	 -0.383652	 -1.970277
C	 1.863196	 -0.724379	 -0.834507
C	 1.245376	 -0.013843	 0.345420
O	 2.530371	 -1.804772	 -0.448167
C	 0.455112	 1.231400	 -0.050772
H	 0.628324	 -0.738709	 0.866004
H	 2.051642	 0.236044	 1.030392
C	 -0.998893	 1.219485	 0.433193
H	 0.482531	 1.345121	 -1.130325
H	 0.957290	 2.103070	 0.354729
C	 -1.883438	 0.145884	 -0.207175
H	 -1.431207	 2.195402	 0.224832
H	 -1.019646	 1.105716	 1.516076
C	 -3.347647	 0.245583	 0.225435
H	 -1.822183	 0.231698	 -1.291012
H	 -1.510341	 -0.844814	 0.042401
C	 -4.239992	 -0.825570	 -0.404234
H	 -3.732888	 1.230466	 -0.033079
H	 -3.408585	 0.170602	 1.310038
C	 -5.701275	 -0.716658	 0.029921
H	 -4.179496	 -0.752714	 -1.488058
H	 -3.859041	 -1.810759	 -0.143352
H	 -6.308102	 -1.488908	 -0.432678
H	 -6.122175	 0.245478	 -0.248167
H	 -5.799072	 -0.820114	 1.106957
C	 3.162846	 -2.565718	 -1.460995
H	 2.435096	 -2.935838	 -2.168734
H	 3.644274	 -3.388109	 -0.955121
H	 3.895037	 -1.967837	 -1.984416

	symmetry c1
}
set optking {
	frozen_dihedral = ("
		21 17 14 11,
		17 14 11 15,
		15 11 8 5,
		11 8 5 9,
		2 4 26 27,
		1 2 4 26,
		6 3 2 1
	")
}

ee = energy('scf')
oeprop('DIPOLE', 'QUADRUPOLE', 'MULLIKEN_CHARGES')
f=open( 'psi4out.xyz', 'w' )
f.write( "29  " )
f.write( str(ee) + "\n" )
f.write( MOL.save_string_xyz() )
f.close()
--------------------------------------------------------------------------

    Molecular point group: c1

    Geometry (in Angstrom), charge = 0, multiplicity = 1:

       Center              X                  Y                   Z               Mass
    ------------   -----------------  -----------------  -----------------  -----------------
           O          2.220320829830     0.027272029415    -1.557848017421    15.994914619560
           C          2.303933829830    -0.313454970585    -0.422078017421    12.000000000000
           C          1.686113829830     0.397081029415     0.757848982579    12.000000000000
           O          2.971108829830    -1.393847970585    -0.035738017421    15.994914619560
           C          0.895849829830     1.642324029415     0.361656982579    12.000000000000
           H          1.069061829830    -0.327784970585     1.278432982579     1.007825032070
           H          2.492379829830     0.646968029415     1.442820982579     1.007825032070
           C         -0.558155170170     1.630409029415     0.845621982579    12.000000000000
           H          0.923268829830     1.756045029415    -0.717896017421     1.007825032070
           H          1.398027829830     2.513994029415     0.767157982579     1.007825032070
           C         -1.442700170170     0.556808029415     0.205253982579    12.000000000000
           H         -0.990469170170     2.606326029415     0.637260982579     1.007825032070
           H         -0.578908170170     1.516640029415     1.928504982579     1.007825032070
           C         -2.906909170170     0.656507029415     0.637863982579    12.000000000000
           H         -1.381445170170     0.642622029415    -0.878583017421     1.007825032070
           H         -1.069603170170    -0.433889970585     0.454829982579     1.007825032070
           C         -3.799254170170    -0.414645970585     0.008194982579    12.000000000000
           H         -3.292150170170     1.641390029415     0.379349982579     1.007825032070
           H         -2.967847170170     0.581526029415     1.722466982579     1.007825032070
           C         -5.260537170170    -0.305733970585     0.442349982579    12.000000000000
           H         -3.738758170170    -0.341789970585    -1.075629017421     1.007825032070
           H         -3.418303170170    -1.399834970585     0.269076982579     1.007825032070
           H         -5.867364170170    -1.077983970585    -0.020249017421     1.007825032070
           H         -5.681437170170     0.656402029415     0.164261982579     1.007825032070
           H         -5.358334170170    -0.409189970585     1.519385982579     1.007825032070
           C          3.603583829830    -2.154793970585    -1.048566017421    12.000000000000
           H          2.875833829830    -2.524913970585    -1.756305017421     1.007825032070
           H          4.085011829830    -2.977184970585    -0.542692017421     1.007825032070
           H          4.335774829830    -1.556912970585    -1.571987017421     1.007825032070

  Charge       = 0
  Multiplicity = 1
  Basis Set: 6-31G*
  Basis Set:

    Orbital Energies (a.u.)
    -----------------------

    Doubly Occupied:

       1A    -20.603946     2A    -20.546103     3A    -11.372448
       4A    -11.280925     5A    -11.233345     6A    -11.215588
       7A    -11.214546     8A    -11.213881     9A    -11.213093
      10A    -11.212361    11A    -11.207518    12A     -1.469694
      13A     -1.363541    14A     -1.096278    15A     -1.065238
      16A     -1.017806    17A     -0.976628    18A     -0.927187
      19A     -0.860679    20A     -0.798445    21A     -0.787806
      22A     -0.762851    23A     -0.703410    24A     -0.681891
      25A     -0.673331    26A     -0.648433    27A     -0.625339
      28A     -0.607556    29A     -0.592822    30A     -0.579510
      31A     -0.565242    32A     -0.545779    33A     -0.536946
      34A     -0.528862    35A     -0.516013    36A     -0.502954
      37A     -0.493579    38A     -0.476332    39A     -0.467633
      40A     -0.459530    41A     -0.457998    42A     -0.456876
      43A     -0.439780    44A     -0.435286

  @DF-RHF Final Energy:  -501.03938368073977

   => Energetics <=

    Nuclear Repulsion Energy =            622.7656828501503696
    One-Electron Energy =               -1916.7399101935075123
    Two-Electron Energy =                 792.9348436626148668
    DFT Exchange-Correlation Energy =       0.0000000000000000
    Empirical Dispersion Energy =           0.0000000000000000
    PCM Polarization Energy =               0.0000000000000000
    EFP Energy =                            0.0000000000000000
    Total Energy =                       -501.0393836807422758

  Mulliken Charges: (a.u.)
   Center  Symbol    Alpha    Beta     Spin     Total
       1     O     4.28464  4.28464  0.00000 -0.56927
       2     C     2.61140  2.61140  0.00000  0.77721
       3     C     3.21076  3.21076  0.00000 -0.42152
       4     O     4.30579  4.30579  0.00000 -0.61159
       5     C     3.16475  3.16475  0.00000 -0.32950
       6     H     0.39758  0.39758  0.00000  0.20485
       7     H     0.39724  0.39724  0.00000  0.20551
       8     C     3.15727  3.15727  0.00000 -0.31454
       9     H     0.39263  0.39263  0.00000  0.21474
      10     H     0.41759  0.41759  0.00000  0.16482
      11     C     3.15445  3.15445  0.00000 -0.30890
      12     H     0.42014  0.42014  0.00000  0.15973
      13     H     0.42506  0.42506  0.00000  0.14989
      14     C     3.15029  3.15029  0.00000 -0.30057
      15     H     0.41788  0.41788  0.00000  0.16424
      16     H     0.42574  0.42574  0.00000  0.14852
      17     C     3.15144  3.15144  0.00000 -0.30288
      18     H     0.42343  0.42343  0.00000  0.15314
      19     H     0.42484  0.42484  0.00000  0.15032
      20     C     3.23930  3.23930  0.00000 -0.47860
      21     H     0.42198  0.42198  0.00000  0.15604
      22     H     0.42364  0.42364  0.00000  0.15272
      23     H     0.41940  0.41940  0.00000  0.16120
      24     H     0.42169  0.42169  0.00000  0.15662
      25     H     0.42220  0.42220  0.00000  0.15560
      26     C     3.09220  3.09220  0.00000 -0.18441
      27     H     0.40907  0.40907  0.00000  0.18186
      28     H     0.40851  0.40851  0.00000  0.18298
      29     H     0.40909  0.40909  0.00000  0.18182

   Total alpha = 44.00000, Total beta = 44.00000, Total charge =  0.00000
