  ==> Input File <==

--------------------------------------------------------------------------
set {
	reference rhf
	basis 6-31G*
}

set_num_threads( 4 )
memory 2 gb

molecule MOL {
0 1

O	 3.198704	 -3.248277	 0.133008
C	 2.686331	 -2.196386	 0.342912
C	 1.231583	 -1.977830	 0.681628
O	 3.347903	 -1.046386	 0.304773
C	 0.429925	 -3.275843	 0.749625
H	 1.201553	 -1.431582	 1.618592
H	 0.823055	 -1.304554	 -0.067707
C	 -1.068853	 -3.063750	 0.988737
H	 0.840571	 -3.910539	 1.529143
H	 0.568196	 -3.816678	 -0.180322
C	 -1.427235	 -2.474819	 2.356156
H	 -1.566057	 -4.025231	 0.883533
H	 -1.474701	 -2.427178	 0.203835
C	 -2.936914	 -2.385327	 2.588233
H	 -0.979036	 -3.086540	 3.137650
H	 -0.996491	 -1.481610	 2.460887
C	 -3.306864	 -1.793407	 3.949445
H	 -3.374203	 -3.378262	 2.498276
H	 -3.387154	 -1.782611	 1.801013
C	 -4.816208	 -1.711058	 4.174837
H	 -2.856919	 -2.393905	 4.737222
H	 -2.874301	 -0.799143	 4.039499
H	 -5.046559	 -1.287630	 5.147593
H	 -5.274165	 -2.694954	 4.125663
H	 -5.291655	 -1.088397	 3.422164
C	 4.728119	 -1.109107	 -0.004993
H	 4.882018	 -1.033965	 -1.071845
H	 5.068212	 -2.067527	 0.355250
H	 5.265056	 -0.311663	 0.488280

	symmetry c1
}
set optking {
	frozen_dihedral = ("
		2 4 26 27
	")
}

ee = optimize('scf')
oeprop('DIPOLE', 'QUADRUPOLE', 'MULLIKEN_CHARGES')
f=open( 'psi4out.xyz', 'w' )
f.write( "29  " )
f.write( str(ee) + "\n" )
f.write( MOL.save_string_xyz() )
f.close()
--------------------------------------------------------------------------

    Molecular point group: c1
  Charge       = 0
  Multiplicity = 1
  Basis Set: 6-31G*
  Basis Set:
  @DF-RHF Final Energy:  -501.04107381641813
    Total Energy =                       -501.0410738164182476
    Molecular point group: c1
  Basis Set: 6-31G*
  Basis Set:
  Basis Set: 6-31G*
  Basis Set:
  @DF-RHF Final Energy:  -501.04237102343427
    Total Energy =                       -501.0423710234348391
  Basis Set: 6-31G*
  Basis Set:
  Basis Set: 6-31G*
  Basis Set:
  @DF-RHF Final Energy:  -501.04293942331049
    Total Energy =                       -501.0429394233105995
  Basis Set: 6-31G*
  Basis Set:
  Basis Set: 6-31G*
  Basis Set:
  @DF-RHF Final Energy:  -501.04158923151078
    Total Energy =                       -501.0415892315112387
  Basis Set: 6-31G*
  Basis Set:
  Basis Set: 6-31G*
  Basis Set:
  @DF-RHF Final Energy:  -501.04300755204883
    Total Energy =                       -501.0430075520489481
  Basis Set: 6-31G*
  Basis Set:
  Basis Set: 6-31G*
  Basis Set:
  @DF-RHF Final Energy:  -501.04301348705201
    Total Energy =                       -501.0430134870524626
  Basis Set: 6-31G*
  Basis Set:
  Charge       = 0
  Multiplicity = 1
  Basis Set: 6-31G*
  Basis Set:

    Orbital Energies (a.u.)
    -----------------------

    Doubly Occupied:

       1A    -20.602867     2A    -20.544748     3A    -11.372686
       4A    -11.280013     5A    -11.234385     6A    -11.218809
       7A    -11.217459     8A    -11.215894     9A    -11.215778
      10A    -11.214369    11A    -11.209022    12A     -1.467562
      13A     -1.362747    14A     -1.097892    15A     -1.066645
      16A     -1.019538    17A     -0.977614    18A     -0.928550
      19A     -0.861464    20A     -0.799077    21A     -0.790337
      22A     -0.763251    23A     -0.701160    24A     -0.681195
      25A     -0.672042    26A     -0.650745    27A     -0.628797
      28A     -0.604805    29A     -0.595286    30A     -0.580667
      31A     -0.567407    32A     -0.549742    33A     -0.533234
      34A     -0.528109    35A     -0.515810    36A     -0.511696
      37A     -0.496316    38A     -0.477714    39A     -0.469967
      40A     -0.462297    41A     -0.458745    42A     -0.453722
      43A     -0.441275    44A     -0.435088

  @DF-RHF Final Energy:  -501.04301343575492

   => Energetics <=

    Nuclear Repulsion Energy =            609.9803716112554639
    One-Electron Energy =               -1891.0937191941593483
    Two-Electron Energy =                 780.0703341471485146
    DFT Exchange-Correlation Energy =       0.0000000000000000
    Empirical Dispersion Energy =           0.0000000000000000
    PCM Polarization Energy =               0.0000000000000000
    EFP Energy =                            0.0000000000000000
    Total Energy =                       -501.0430134357552561
    Molecular point group: c1
  Basis Set: 6-31G*
  Basis Set:

  -Total Gradient:
     Atom            X                  Y                   Z
    ------   -----------------  -----------------  -----------------
       1        0.000023282906     0.000027604970    -0.000006446167
       2        0.000261245853    -0.000119111545     0.001430841718
       3       -0.000024859162    -0.000016038281     0.000040918917
       4       -0.000349670794     0.000572635878    -0.002004442565
       5       -0.000016008976     0.000016590583    -0.000051951103
       6       -0.000021915254     0.000014097355     0.000010543467
       7       -0.000005306808    -0.000012247629    -0.000006478730
       8       -0.000009355694    -0.000036085932     0.000010714232
       9       -0.000002185790    -0.000012502814    -0.000009036997
      10        0.000007936488     0.000020782760    -0.000001386585
      11        0.000014117911     0.000007685490    -0.000006449385
      12       -0.000004807913    -0.000001520162     0.000021627937
      13       -0.000010729408    -0.000020867953    -0.000006799867
      14       -0.000001211552     0.000010766873    -0.000001279593
      15       -0.000012543195    -0.000003545017    -0.000009579760
      16        0.000041337161     0.000015633740     0.000002369202
      17       -0.000000795042     0.000000763745    -0.000000585447
      18        0.000006082448    -0.000001552096     0.000004048078
      19       -0.000006132356    -0.000003645071    -0.000001675906
      20       -0.000000079223     0.000007238218    -0.000002332637
      21       -0.000002204541    -0.000002843392    -0.000001282258
      22        0.000002103808    -0.000001319281     0.000002939048
      23       -0.000000531494     0.000002184353    -0.000000657142
      24        0.000002101729     0.000000097298     0.000001209134
      25       -0.000001976149    -0.000000870882    -0.000000894683
      26        0.000029203906    -0.002101569821     0.000465582713
      27        0.000074579559     0.001651912880     0.000130890103
      28       -0.000003481092    -0.000008078406    -0.000000841957
      29        0.000011802669    -0.000006195864    -0.000009563759

  **** Optimization is complete! (in 7 steps) ****
    Final optimized geometry and variables:
    Molecular point group: c1

    Geometry (in Angstrom), charge = 0, multiplicity = 1:

    O            2.957315264064    -1.073496914137    -1.347018969595
    C            2.453640869505    -0.018280422488    -1.133730107586
    C            1.000347424600     0.206295388774    -0.791392266394
    O            3.114953044083     1.132634183077    -1.170413868969
    C            0.191209167033    -1.087319738098    -0.729323306062
    H            0.974695274349     0.747812050508     0.148392606732
    H            0.594639665851     0.885834996995    -1.536580610841
    C           -1.305543177892    -0.867687660542    -0.484339181679
    H            0.600249836362    -1.729408123664     0.044950766507
    H            0.323480930022    -1.623070485550    -1.663066238111
    C           -1.655644974188    -0.278815674553     0.885256949867
    H           -1.808336325272    -1.826316604199    -0.589072731446
    H           -1.710904515853    -0.227753622196    -1.266756918369
    C           -3.163948623333    -0.178703717147     1.121937219338
    H           -1.209669225006    -0.895329997297     1.664249118052
    H           -1.217294964427     0.710993172511     0.990629686533
    C           -3.525601894194     0.414549803306     2.484793095315
    H           -3.608647189379    -1.168370798033     1.032323069601
    H           -3.612166666657     0.428005322702     0.336637722415
    C           -5.033648930306     0.509272583717     2.714005158072
    H           -3.078770853806    -0.190681624227     3.270719424030
    H           -3.084512421076     1.405045707287     2.575015536852
    H           -5.258058917794     0.933791666499     3.687679631871
    H           -5.499894265682    -0.470737186207     2.665157699395
    H           -5.505762122875     1.136492619504     1.963020753647
    C            4.503765613991     1.099893616852    -1.448504475387
    H            4.663991097667     1.173191301406    -2.516004248736
    H            4.953182531466     0.196438600121    -1.069966525892
    H            4.928653737105     1.966353062195    -0.964291750540

  Mulliken Charges: (a.u.)
   Center  Symbol    Alpha    Beta     Spin     Total
       1     O     4.28571  4.28571  0.00000 -0.57141
       2     C     2.60461  2.60461  0.00000  0.79079
       3     C     3.20996  3.20996  0.00000 -0.41992
       4     O     4.30857  4.30857  0.00000 -0.61714
       5     C     3.15372  3.15372  0.00000 -0.30745
       6     H     0.39898  0.39898  0.00000  0.20204
       7     H     0.40121  0.40121  0.00000  0.19758
       8     C     3.15658  3.15658  0.00000 -0.31316
       9     H     0.41315  0.41315  0.00000  0.17370
      10     H     0.40880  0.40880  0.00000  0.18241
      11     C     3.15509  3.15509  0.00000 -0.31019
      12     H     0.41827  0.41827  0.00000  0.16346
      13     H     0.42388  0.42388  0.00000  0.15224
      14     C     3.15027  3.15027  0.00000 -0.30055
      15     H     0.42265  0.42265  0.00000  0.15470
      16     H     0.42361  0.42361  0.00000  0.15279
      17     C     3.15145  3.15145  0.00000 -0.30290
      18     H     0.42333  0.42333  0.00000  0.15334
      19     H     0.42398  0.42398  0.00000  0.15204
      20     C     3.23935  3.23935  0.00000 -0.47869
      21     H     0.42282  0.42282  0.00000  0.15437
      22     H     0.42345  0.42345  0.00000  0.15310
      23     H     0.41925  0.41925  0.00000  0.16150
      24     H     0.42155  0.42155  0.00000  0.15691
      25     H     0.42183  0.42183  0.00000  0.15634
      26     C     3.09500  3.09500  0.00000 -0.19000
      27     H     0.41320  0.41320  0.00000  0.17359
      28     H     0.39986  0.39986  0.00000  0.20028
      29     H     0.40988  0.40988  0.00000  0.18023

   Total alpha = 44.00000, Total beta = 44.00000, Total charge = -0.00000
