  ==> Input File <==

--------------------------------------------------------------------------
set {
	reference rhf
	basis 6-31G*
}

set_num_threads( 1 )
memory 2 gb

molecule MOL {
0 1

H	 -0.000158	 1.970498	 0.756846
O	 -0.000074	 1.880206	 -0.189275
C	 -0.000015	 0.544847	 -0.545111
C	 -1.278788	 -0.123820	 -0.051541
C	 1.278802	 -0.123718	 -0.051505
H	 -0.000001	 0.490777	 -1.623619
F	 -1.408444	 -1.303668	 -0.619600
F	 -1.279395	 -0.297514	 1.253139
F	 -2.340889	 0.597734	 -0.372321
F	 2.323327	 0.466644	 -0.591854
F	 1.326242	 -1.401483	 -0.363667
F	 1.388946	 -0.015632	 1.262939

	symmetry c1
}
set optking {
	frozen_dihedral = ("
		6 3 2 1
	")
}

ee = energy('scf')
oeprop('DIPOLE', 'QUADRUPOLE', 'MULLIKEN_CHARGES')
f=open( 'psi4out.xyz', 'w' )
f.write( "12  " )
f.write( str(ee) + "\n" )
f.write( MOL.save_string_xyz() )
f.close()
--------------------------------------------------------------------------

    Molecular point group: c1

    Geometry (in Angstrom), charge = 0, multiplicity = 1:

       Center              X                  Y                   Z               Mass
    ------------   -----------------  -----------------  -----------------  -----------------
           H         -0.001256692996     1.976446560610     0.762058475275     1.007825032070
           O         -0.001172692996     1.886154560610    -0.184062524725    15.994914619560
           C         -0.001113692996     0.550795560610    -0.539898524725    12.000000000000
           C         -1.279886692996    -0.117871439390    -0.046328524725    12.000000000000
           C          1.277703307004    -0.117769439390    -0.046292524725    12.000000000000
           H         -0.001099692996     0.496725560610    -1.618406524725     1.007825032070
           F         -1.409542692996    -1.297719439390    -0.614387524725    18.998403224000
           F         -1.280493692996    -0.291565439390     1.258351475275    18.998403224000
           F         -2.341987692996     0.603682560610    -0.367108524725    18.998403224000
           F          2.322228307004     0.472592560610    -0.586641524725    18.998403224000
           F          1.325143307004    -1.395534439390    -0.358454524725    18.998403224000
           F          1.387847307004    -0.009683439390     1.268151475275    18.998403224000

  Charge       = 0
  Multiplicity = 1
  Basis Set: 6-31G*
  Basis Set:

    Orbital Energies (a.u.)
    -----------------------

    Doubly Occupied:

       1A    -26.365209     2A    -26.362783     3A    -26.362569
       4A    -26.358828     5A    -26.358631     6A    -26.356934
       7A    -20.616579     8A    -11.526629     9A    -11.525287
      10A    -11.349095    11A     -1.764871    12A     -1.758696
      13A     -1.662760    14A     -1.658505    15A     -1.656735
      16A     -1.653441    17A     -1.435491    18A     -1.101798
      19A     -0.996901    20A     -0.938639    21A     -0.863959
      22A     -0.862761    23A     -0.851629    24A     -0.844573
      25A     -0.831933    26A     -0.814888    27A     -0.743605
      28A     -0.726707    29A     -0.724713    30A     -0.717977
      31A     -0.689384    32A     -0.685527    33A     -0.682971
      34A     -0.674359    35A     -0.669923    36A     -0.662386
      37A     -0.656847    38A     -0.653983    39A     -0.619971
      40A     -0.550594    41A     -0.506048

  @DF-RHF Final Energy:  -786.27682876621600

   => Energetics <=

    Nuclear Repulsion Energy =            670.5433860624335694
    One-Electron Energy =               -2427.9504719954179564
    Two-Electron Energy =                 971.1302571667673647
    DFT Exchange-Correlation Energy =       0.0000000000000000
    Empirical Dispersion Energy =           0.0000000000000000
    PCM Polarization Energy =               0.0000000000000000
    EFP Energy =                            0.0000000000000000
    Total Energy =                       -786.2768287662171360

  Mulliken Charges: (a.u.)
   Center  Symbol    Alpha    Beta     Spin     Total
       1     H     0.26708  0.26708  0.00000  0.46583
       2     O     4.36184  4.36184  0.00000 -0.72368
       3     C     3.04553  3.04553  0.00000 -0.09105
       4     C     2.44841  2.44841  0.00000  1.10318
       5     C     2.44537  2.44537  0.00000  1.10926
       6     H     0.37468  0.37468  0.00000  0.25063
       7     F     4.67563  4.67563  0.00000 -0.35126
       8     F     4.67585  4.67585  0.00000 -0.35170
       9     F     4.67669  4.67669  0.00000 -0.35337
      10     F     4.67471  4.67471  0.00000 -0.34942
      11     F     4.67352  4.67352  0.00000 -0.34705
      12     F     4.68068  4.68068  0.00000 -0.36136

   Total alpha = 41.00000, Total beta = 41.00000, Total charge = -0.00000
