                              Psi4 1.0.54 Driver

  ==> Input File <==

--------------------------------------------------------------------------
set {
	reference rhf
	basis cc-pvtz
}

set_num_threads( 4 )
memory 2 gb

molecule MOL {
0 1

H	 -2.877658	 0.779368	 -1.177389
O	 -2.067959	 0.294448	 -1.231774
C	 -1.605397	 0.107680	 0.001145
C	 -0.310616	 -0.658853	 0.000791
O	 -2.173609	 0.515194	 0.954580
C	 0.926581	 0.227233	 0.000178
H	 -0.327628	 -1.313681	 -0.864448
H	 -0.327041	 -1.313334	 0.866298
C	 2.220156	 -0.582071	 -0.000088
H	 0.899945	 0.878221	 -0.866390
H	 0.900542	 0.878581	 0.866486
C	 3.466689	 0.296012	 -0.000457
H	 2.239073	 -1.234095	 -0.869382
H	 2.239505	 -1.233985	 0.869270
H	 3.493549	 0.935857	 -0.875887
H	 4.368821	 -0.304526	 -0.001199
H	 3.494559	 0.935166	 0.875458

	symmetry c1
}
set optking {
	frozen_dihedral = ("
		2 3 4 7
	")
}

ee,wfn = optimize('scf', return_wfn=True)
oeprop( wfn, 'DIPOLE', 'QUADRUPOLE', 'MULLIKEN_CHARGES')
f=open( 'psi4out.xyz', 'w' )
f.write( "17  " )
f.write( str(ee) + "\n" )
f.write( MOL.save_string_xyz() )
f.close()
--------------------------------------------------------------------------

    Molecular point group: c1
  Charge       = 0
  Multiplicity = 1
  Basis Set: CC-PVTZ
  Basis Set:
  @DF-RHF Final Energy:  -345.04671563092643
    Total Energy =                       -345.0467156309264283
    Molecular point group: c1
  Basis Set: CC-PVTZ
  Basis Set:
  Basis Set: CC-PVTZ
  Basis Set:
  @DF-RHF Final Energy:  -345.04730104469326
    Total Energy =                       -345.0473010446933131
  Basis Set: CC-PVTZ
  Basis Set:
  Basis Set: CC-PVTZ
  Basis Set:
  @DF-RHF Final Energy:  -345.04749377873554
    Total Energy =                       -345.0474937787356566
  Basis Set: CC-PVTZ
  Basis Set:
  Basis Set: CC-PVTZ
  Basis Set:
  @DF-RHF Final Energy:  -345.04753701186320
    Total Energy =                       -345.0475370118632554
  Basis Set: CC-PVTZ
  Basis Set:
  Basis Set: CC-PVTZ
  Basis Set:
  @DF-RHF Final Energy:  -345.04754022809084
    Total Energy =                       -345.0475402280907247
  Basis Set: CC-PVTZ
  Basis Set:
  Charge       = 0
  Multiplicity = 1
  Basis Set: CC-PVTZ
  Basis Set:

    Orbital Energies (a.u.)
    -----------------------

    Doubly Occupied:

       1A    -20.605220     2A    -20.538080     3A    -11.372365
       4A    -11.237395     5A    -11.231239     6A    -11.224655
       7A    -11.214076     8A     -1.477128     9A     -1.367674
      10A     -1.096376    11A     -1.021017    12A     -0.912529
      13A     -0.825321    14A     -0.805322    15A     -0.705947
      16A     -0.685515    17A     -0.653195    18A     -0.642895
      19A     -0.590208    20A     -0.587033    21A     -0.582381
      22A     -0.539115    23A     -0.517455    24A     -0.495463
      25A     -0.485642    26A     -0.479781    27A     -0.472493
      28A     -0.438995

  @DF-RHF Final Energy:  -345.04754096939581

   => Energetics <=

    Nuclear Repulsion Energy =            305.3851563864208742
    One-Electron Energy =               -1075.2563651989144091
    Two-Electron Energy =                 424.8236678430980646
    DFT Exchange-Correlation Energy =       0.0000000000000000
    Empirical Dispersion Energy =           0.0000000000000000
    PCM Polarization Energy =               0.0000000000000000
    EFP Energy =                            0.0000000000000000
    Total Energy =                       -345.0475409693954134
    Molecular point group: c1
  Basis Set: CC-PVTZ
  Basis Set:

  -Total Gradient:
     Atom            X                  Y                   Z
    ------   -----------------  -----------------  -----------------
       1       -0.000028773477     0.000013172867     0.000004999876
       2       -0.000124614976    -0.000328632875    -0.000017320567
       3        0.000251747772     0.000434247404    -0.000130939620
       4       -0.000252806180    -0.000445849871     0.000300904688
       5       -0.000004969424     0.000041429083     0.000089867173
       6        0.000003976910    -0.000016488095     0.000008855903
       7        0.000175022224     0.000288604055    -0.000271967186
       8       -0.000007782943    -0.000004769694     0.000010215782
       9       -0.000005495919    -0.000011075250    -0.000003702724
      10       -0.000004198781    -0.000001366968    -0.000008306663
      11        0.000017584138     0.000019731870     0.000010689898
      12       -0.000012895264     0.000015502010     0.000009733349
      13       -0.000010778166    -0.000006497946    -0.000007691882
      14       -0.000004253573    -0.000009476733     0.000007237160
      15        0.000002657330     0.000008076721    -0.000010559987
      16       -0.000001274545    -0.000006792017     0.000002248664
      17        0.000006854873     0.000010185443     0.000005736138

  **** Optimization is complete! (in 6 steps) ****
    Final optimized geometry and variables:
    Molecular point group: c1

    Geometry (in Angstrom), charge = 0, multiplicity = 1:

    H           -2.903941657019     0.709303760752    -1.053743731921
    O           -2.115009650598     0.193215056585    -1.127870595289
    C           -1.621018247289     0.004234216819     0.091877412365
    C           -0.328507344393    -0.764787530757     0.083585032746
    O           -2.151627149127     0.431408785547     1.059234776173
    C            0.872192711338     0.186824764273     0.011602828906
    H           -0.317998845207    -1.438995824106    -0.762455972652
    H           -0.289877846483    -1.342260188471     0.996773752866
    C            2.203779131525    -0.557420889821     0.023965790188
    H            0.800760206653     0.787030629107    -0.890243826724
    H            0.829222420435     0.872702163760     0.851048757613
    C            3.404931476713     0.379504609447    -0.041810972284
    H            2.237450505689    -1.247836960694    -0.814064788886
    H            2.266767137893    -1.163407199407     0.923237546392
    H            3.387005975448     0.975850932722    -0.947774902945
    H            4.334777330563    -0.176805055441    -0.030366686301
    H            3.416118698563     1.060890311024     0.802015465380

  Mulliken Charges: (a.u.)
   Center  Symbol    Alpha    Beta     Spin     Total
       1     H     0.38030  0.38030  0.00000  0.23940
       2     O     4.16339  4.16339  0.00000 -0.32679
       3     C     2.80481  2.80481  0.00000  0.39037
       4     C     3.08662  3.08662  0.00000 -0.17325
       5     O     4.19904  4.19904  0.00000 -0.39807
       6     C     3.09930  3.09930  0.00000 -0.19860
       7     H     0.44184  0.44184  0.00000  0.11632
       8     H     0.43826  0.43826  0.00000  0.12349
       9     C     3.08751  3.08751  0.00000 -0.17502
      10     H     0.44714  0.44714  0.00000  0.10573
      11     H     0.44276  0.44276  0.00000  0.11449
      12     C     3.14932  3.14932  0.00000 -0.29864
      13     H     0.45304  0.45304  0.00000  0.09393
      14     H     0.45220  0.45220  0.00000  0.09561
      15     H     0.45416  0.45416  0.00000  0.09167
      16     H     0.44715  0.44715  0.00000  0.10569
      17     H     0.45316  0.45316  0.00000  0.09368

   Total alpha = 28.00000, Total beta = 28.00000, Total charge =  0.00000

*** Psi4 exiting successfully. Buy a developer a beer!
