  ==> Input File <==

--------------------------------------------------------------------------
set {
	reference rhf
	basis cc-pvtz
}

set_num_threads( 4 )
memory 2 gb

molecule MOL {
0 1

H	 -3.443064	 -0.651503	 0.670102
O	 -3.109186	 -0.183451	 -0.074081
C	 -1.773801	 -0.070712	 -0.020832
C	 -1.029736	 -0.599045	 1.026864
C	 -1.146141	 0.599053	 -1.057963
H	 -1.523866	 -1.117340	 1.827884
C	 0.337345	 -0.454974	 1.032028
H	 -1.738501	 0.998880	 -1.856253
C	 0.223611	 0.734704	 -1.037804
H	 0.922692	 -0.858012	 1.834549
C	 0.981121	 0.213562	 0.000000
H	 0.711602	 1.254129	 -1.841906
C	 2.447402	 0.371303	 0.000000
O	 3.227427	 -0.521847	 0.000000
H	 2.796538	 1.409525	 0.000000

	symmetry c1
}
set optking {
	frozen_dihedral = ("
		7 11 13 14
	")
}

ee = optimize('scf')
oeprop('DIPOLE', 'QUADRUPOLE', 'MULLIKEN_CHARGES')
f=open( 'psi4out.xyz', 'w' )
f.write( "15  " )
f.write( str(ee) + "\n" )
f.write( MOL.save_string_xyz() )
f.close()
--------------------------------------------------------------------------

    Molecular point group: c1
  Charge       = 0
  Multiplicity = 1
  Basis Set: CC-PVTZ
  Basis Set:
  @DF-RHF Final Energy:  -418.43078309634404
    Total Energy =                       -418.4307830963440438
    Molecular point group: c1
  Basis Set: CC-PVTZ
  Basis Set:
  Basis Set: CC-PVTZ
  Basis Set:
  @DF-RHF Final Energy:  -418.43034175755594
    Total Energy =                       -418.4303417575561070
  Basis Set: CC-PVTZ
  Basis Set:
  Basis Set: CC-PVTZ
  Basis Set:
  @DF-RHF Final Energy:  -418.43138831449210
    Total Energy =                       -418.4313883144917554
  Basis Set: CC-PVTZ
  Basis Set:
  Basis Set: CC-PVTZ
  Basis Set:
  @DF-RHF Final Energy:  -418.43177738354501
    Total Energy =                       -418.4317773835450680
  Basis Set: CC-PVTZ
  Basis Set:
  Basis Set: CC-PVTZ
  Basis Set:
  @DF-RHF Final Energy:  -418.43178205571303
    Total Energy =                       -418.4317820557135974
  Basis Set: CC-PVTZ
  Basis Set:
  Charge       = 0
  Multiplicity = 1
  Basis Set: CC-PVTZ
  Basis Set:

    Orbital Energies (a.u.)
    -----------------------

    Doubly Occupied:

       1A    -20.599201     2A    -20.556637     3A    -11.328112
       4A    -11.315064     5A    -11.253803     6A    -11.253590
       7A    -11.240901     8A    -11.240626     9A    -11.236333
      10A     -1.431369    11A     -1.411116    12A     -1.173799
      13A     -1.042376    14A     -1.040667    15A     -0.890377
      16A     -0.867275    17A     -0.800594    18A     -0.758494
      19A     -0.715102    20A     -0.675089    21A     -0.656200
      22A     -0.631548    23A     -0.610280    24A     -0.608736
      25A     -0.593480    26A     -0.565745    27A     -0.538970
      28A     -0.507010    29A     -0.495862    30A     -0.424661
      31A     -0.359732    32A     -0.329422

  @DF-RHF Final Energy:  -418.43178405477062

   => Energetics <=

    Nuclear Repulsion Energy =            401.3409232907285400
    One-Electron Energy =               -1365.2410684582971498
    Two-Electron Energy =                 545.4683611127982203
    DFT Exchange-Correlation Energy =       0.0000000000000000
    Empirical Dispersion Energy =           0.0000000000000000
    PCM Polarization Energy =               0.0000000000000000
    EFP Energy =                            0.0000000000000000
    Total Energy =                       -418.4317840547703327
    Molecular point group: c1
  Basis Set: CC-PVTZ
  Basis Set:

  -Total Gradient:
     Atom            X                  Y                   Z
    ------   -----------------  -----------------  -----------------
       1       -0.000014053445     0.000006937840     0.000003699902
       2       -0.000015214598    -0.000059693592     0.000026966344
       3        0.000006506408     0.000182197441    -0.000162007304
       4        0.000143415048    -0.000017675586     0.000064170605
       5       -0.000176560338    -0.000143986790     0.000074467099
       6       -0.000023057785     0.000000761590    -0.000010981030
       7       -0.001025028571     0.005655542681     0.003073279100
       8        0.000021179005    -0.000001258365     0.000000211856
       9        0.000211803039    -0.000017032662     0.000178010736
      10        0.000009178814     0.000009588088    -0.000021520244
      11        0.001452045361    -0.008384464725    -0.008257650508
      12       -0.000003065925    -0.000024825818    -0.000012002556
      13       -0.000722328473     0.003135483143     0.013032483182
      14        0.000200427849    -0.000321951657    -0.007996160590
      15       -0.000065246390    -0.000019621590     0.000007033409

  **** Optimization is complete! (in 6 steps) ****
    Final optimized geometry and variables:
    Molecular point group: c1

    Geometry (in Angstrom), charge = 0, multiplicity = 1:

    H           -3.458704899402    -0.638199857497     0.671036165743
    O           -3.122699971091    -0.165208176450    -0.068949260332
    C           -1.782640703718    -0.066752804577    -0.015652475507
    C           -1.040448653720    -0.593199269339     1.026312434058
    C           -1.148634424814     0.601873990548    -1.051100619263
    H           -1.532349225305    -1.096192593486     1.838512595880
    C            0.334788547125    -0.469823395745     1.019626611175
    H           -1.738514063804     1.012751011590    -1.846004689599
    C            0.220026421306     0.740508692543    -1.031359128600
    H            0.909213833977    -0.888483799165     1.823436202599
    C            0.980546956557     0.174442667021    -0.018541784815
    H            0.702215781927     1.283149977667    -1.823716722053
    C            2.455329681005     0.385158580658     0.014892719256
    O            3.255777695803    -0.483432849444     0.074149066005
    H            2.780251881501     1.426825194507    -0.081122349572

  Mulliken Charges: (a.u.)
   Center  Symbol    Alpha    Beta     Spin     Total
       1     H     0.38613  0.38613  0.00000  0.22774
       2     O     4.16929  4.16929  0.00000 -0.33859
       3     C     2.85379  2.85379  0.00000  0.29241
       4     C     3.12498  3.12498  0.00000 -0.24996
       5     C     3.10028  3.10028  0.00000 -0.20056
       6     H     0.43198  0.43198  0.00000  0.13604
       7     C     3.08706  3.08706  0.00000 -0.17411
       8     H     0.41675  0.41675  0.00000  0.16649
       9     C     3.07686  3.07686  0.00000 -0.15371
      10     H     0.41467  0.41467  0.00000  0.17065
      11     C     2.96367  2.96367  0.00000  0.07266
      12     H     0.42246  0.42246  0.00000  0.15508
      13     C     2.92705  2.92705  0.00000  0.14590
      14     O     4.16398  4.16398  0.00000 -0.32796
      15     H     0.46104  0.46104  0.00000  0.07791

   Total alpha = 32.00000, Total beta = 32.00000, Total charge = -0.00000
