                              Psi4 1.0.54 Driver

  ==> Input File <==

--------------------------------------------------------------------------
set {
	reference rhf
	basis cc-pvtz
}

set_num_threads( 4 )
memory 2 gb

molecule MOL {
0 1

H	 2.614283	 2.028610	 0.296620
O	 3.358864	 1.662087	 -0.142800
C	 3.565468	 0.338079	 0.273842
C	 4.408130	 -0.478079	 -0.694916
H	 4.072154	 0.404084	 1.227201
H	 2.612586	 -0.157633	 0.449160
C	 3.751367	 -0.712944	 -2.053352
H	 5.361239	 0.024051	 -0.831326
H	 4.620288	 -1.436655	 -0.227457
C	 4.611906	 -1.563154	 -2.986868
H	 3.545852	 0.243461	 -2.522455
H	 2.790309	 -1.203595	 -1.908725
C	 3.970614	 -1.892246	 -4.336200
H	 5.561289	 -1.060189	 -3.153975
H	 4.849262	 -2.496069	 -2.483081
C	 3.765431	 -0.695734	 -5.263562
H	 4.598825	 -2.618917	 -4.843967
H	 3.015570	 -2.385122	 -4.168510
C	 3.215945	 -1.088414	 -6.632605
H	 4.713014	 -0.177548	 -5.394098
H	 3.088053	 0.019369	 -4.806626
C	 3.006355	 0.104248	 -7.559709
H	 3.895034	 -1.794457	 -7.102625
H	 2.273368	 -1.613710	 -6.503473
H	 3.937876	 0.632338	 -7.734713
H	 2.618736	 -0.209431	 -8.522239
H	 2.302032	 0.811831	 -7.134730

	symmetry c1
}
set optking {
	frozen_dihedral = ("
		4 3 2 1
	")
}

ee,wfn = optimize('scf', return_wfn=True)
oeprop( wfn, 'DIPOLE', 'QUADRUPOLE', 'MULLIKEN_CHARGES')
f=open( 'psi4out.xyz', 'w' )
f.write( "27  " )
f.write( str(ee) + "\n" )
f.write( MOL.save_string_xyz() )
f.close()
--------------------------------------------------------------------------

    Molecular point group: c1
  Charge       = 0
  Multiplicity = 1
  Basis Set: CC-PVTZ
  Basis Set:
  @DF-RHF Final Energy:  -388.42660209779473
    Total Energy =                       -388.4266020977945573
    Molecular point group: c1
  Basis Set: CC-PVTZ
  Basis Set:
  Basis Set: CC-PVTZ
  Basis Set:
  @DF-RHF Final Energy:  -388.42351406129069
    Total Energy =                       -388.4235140612906889
  Basis Set: CC-PVTZ
  Basis Set:
  Basis Set: CC-PVTZ
  Basis Set:
  @DF-RHF Final Energy:  -388.42809791110000
    Total Energy =                       -388.4280979110999397
  Basis Set: CC-PVTZ
  Basis Set:
  Basis Set: CC-PVTZ
  Basis Set:
  @DF-RHF Final Energy:  -388.42815740326455
    Total Energy =                       -388.4281574032642084
  Basis Set: CC-PVTZ
  Basis Set:
  Basis Set: CC-PVTZ
  Basis Set:
  @DF-RHF Final Energy:  -388.42823946029131
    Total Energy =                       -388.4282394602904560
  Basis Set: CC-PVTZ
  Basis Set:
  Basis Set: CC-PVTZ
  Basis Set:
  @DF-RHF Final Energy:  -388.42823618575591
    Total Energy =                       -388.4282361857558499
  Basis Set: CC-PVTZ
  Basis Set:
  Basis Set: CC-PVTZ
  Basis Set:
  @DF-RHF Final Energy:  -388.42824398882669
    Total Energy =                       -388.4282439888263525
  Basis Set: CC-PVTZ
  Basis Set:
  Charge       = 0
  Multiplicity = 1
  Basis Set: CC-PVTZ
  Basis Set:

    Orbital Energies (a.u.)
    -----------------------

    Doubly Occupied:

       1A    -20.546163     2A    -11.265938     3A    -11.210124
       4A    -11.209095     5A    -11.207589     6A    -11.206990
       7A    -11.205556     8A    -11.204773     9A    -11.203083
      10A     -1.363727    11A     -1.089758    12A     -1.057860
      13A     -1.009252    14A     -0.944341    15A     -0.880756
      16A     -0.811842    17A     -0.794919    18A     -0.771656
      19A     -0.709024    20A     -0.645730    21A     -0.633458
      22A     -0.622305    23A     -0.588888    24A     -0.579455
      25A     -0.574749    26A     -0.548417    27A     -0.537386
      28A     -0.517005    29A     -0.508199    30A     -0.487532
      31A     -0.477476    32A     -0.474923    33A     -0.460763
      34A     -0.453537    35A     -0.447947    36A     -0.440332
      37A     -0.424062

  @DF-RHF Final Energy:  -388.42824448975000

   => Energetics <=

    Nuclear Repulsion Energy =            460.5864340274646338
    One-Electron Energy =               -1439.8001445107101972
    Two-Electron Energy =                 590.7854659934951087
    DFT Exchange-Correlation Energy =       0.0000000000000000
    Empirical Dispersion Energy =           0.0000000000000000
    PCM Polarization Energy =               0.0000000000000000
    EFP Energy =                            0.0000000000000000
    Total Energy =                       -388.4282444897504547
    Molecular point group: c1
  Basis Set: CC-PVTZ
  Basis Set:

  -Total Gradient:
     Atom            X                  Y                   Z
    ------   -----------------  -----------------  -----------------
       1       -0.000586057673    -0.000493826829    -0.000868674559
       2        0.000475820799     0.000627846568     0.000880636550
       3        0.000608868962     0.000290273658     0.000312733533
       4       -0.000545126843    -0.000340663466    -0.000338595829
       5        0.000025612638    -0.000033716758     0.000005581923
       6       -0.000004741526    -0.000048044196     0.000009547671
       7        0.000011014960    -0.000000040621     0.000020569407
       8        0.000018253596     0.000007495607    -0.000006454986
       9        0.000001841692    -0.000016648752    -0.000003146085
      10       -0.000002155302    -0.000004705767    -0.000008524436
      11       -0.000022256244     0.000013882355    -0.000011717105
      12       -0.000007420444    -0.000008930137     0.000008290724
      13        0.000014863803     0.000013829907     0.000001763178
      14        0.000020098508     0.000009451352    -0.000004993897
      15        0.000000200231    -0.000012016280     0.000005075191
      16       -0.000003112874    -0.000007568105    -0.000007242457
      17        0.000012254715    -0.000004219258    -0.000006745074
      18       -0.000011506580    -0.000011961954     0.000003758032
      19        0.000001056567     0.000010234681     0.000008527506
      20        0.000014337638     0.000011319751    -0.000004141140
      21       -0.000015003548     0.000008606644     0.000012258826
      22       -0.000003300063    -0.000011437584    -0.000009093532
      23        0.000010963593    -0.000003889737    -0.000005089962
      24       -0.000014701652    -0.000013575244     0.000002333427
      25        0.000014301865     0.000014133138    -0.000001122545
      26       -0.000001723897    -0.000001147907    -0.000001652356
      27       -0.000012382925     0.000005318935     0.000006117996

  **** Optimization is complete! (in 8 steps) ****
    Final optimized geometry and variables:
    Molecular point group: c1

    Geometry (in Angstrom), charge = 0, multiplicity = 1:

    H           -1.591797756480     2.045487273157     3.449780455588
    O           -0.771581124118     1.817097054472     3.054561985990
    C           -0.339852384877     0.562081704535     3.516474670263
    C            0.676481070853    -0.007286235723     2.545174041355
    H            0.108827699913     0.661709752805     4.501299898508
    H           -1.182546986257    -0.119899893822     3.607194689105
    C            0.100891394270    -0.331301676733     1.169409804642
    H            1.489359568526     0.705974154057     2.444996643468
    H            1.100125302187    -0.905025907034     2.988112068733
    C            1.153984634001    -0.871051726851     0.203408592699
    H           -0.358722941495     0.561223203581     0.765645905412
    H           -0.692701914840    -1.068221152006     1.279588474961
    C            0.615456724346    -1.294507718152    -1.164465885347
    H            1.930611095683    -0.122299994703     0.065636656100
    H            1.640238361606    -1.728923320351     0.660758755611
    C            0.081205013597    -0.153451413196    -2.028185948859
    H            1.413159129150    -1.794659393146    -1.707136996949
    H           -0.167045289060    -2.037516870305    -1.026876803890
    C           -0.362692751690    -0.611054517833    -3.415140987484
    H            0.852313369708     0.606776528528    -2.132696856244
    H           -0.755634977053     0.328744407827    -1.532816845285
    C           -0.898938632613     0.525646793835    -4.279031072237
    H            0.473766206367    -1.084343383540    -3.922279673467
    H           -1.127711211317    -1.376165043352    -3.312508177493
    H           -0.145844251147     1.292387303572    -4.428232408541
    H           -1.203710471422     0.167519611302    -5.255850928335
    H           -1.759909762827     0.996481682091    -3.816109422345

  Mulliken Charges: (a.u.)
   Center  Symbol    Alpha    Beta     Spin     Total
       1     H     0.39462  0.39462  0.00000  0.21076
       2     O     4.20021  4.20021  0.00000 -0.40043
       3     C     2.97569  2.97569  0.00000  0.04861
       4     C     3.09106  3.09106  0.00000 -0.18212
       5     H     0.46310  0.46310  0.00000  0.07381
       6     H     0.47326  0.47326  0.00000  0.05348
       7     C     3.09329  3.09329  0.00000 -0.18659
       8     H     0.45128  0.45128  0.00000  0.09744
       9     H     0.45299  0.45299  0.00000  0.09403
      10     C     3.09897  3.09897  0.00000 -0.19794
      11     H     0.44267  0.44267  0.00000  0.11465
      12     H     0.45930  0.45930  0.00000  0.08139
      13     C     3.09775  3.09775  0.00000 -0.19549
      14     H     0.45297  0.45297  0.00000  0.09406
      15     H     0.45027  0.45027  0.00000  0.09946
      16     C     3.08764  3.08764  0.00000 -0.17528
      17     H     0.44922  0.44922  0.00000  0.10155
      18     H     0.45482  0.45482  0.00000  0.09036
      19     C     3.08382  3.08382  0.00000 -0.16764
      20     H     0.45496  0.45496  0.00000  0.09008
      21     H     0.45267  0.45267  0.00000  0.09465
      22     C     3.14965  3.14965  0.00000 -0.29930
      23     H     0.45465  0.45465  0.00000  0.09071
      24     H     0.45533  0.45533  0.00000  0.08933
      25     H     0.45520  0.45520  0.00000  0.08961
      26     H     0.44915  0.44915  0.00000  0.10171
      27     H     0.45545  0.45545  0.00000  0.08910

   Total alpha = 37.00000, Total beta = 37.00000, Total charge = -0.00000

*** Psi4 exiting successfully. Buy a developer a beer!
