                              Psi4 1.0.54 Driver

  ==> Input File <==

--------------------------------------------------------------------------
set {
	reference rhf
	basis cc-pvtz
}

set_num_threads( 4 )
memory 2 gb

molecule MOL {
0 1

H	 -0.376136	 2.474660	 0.585141
C	 0.447765	 1.846527	 0.948858
C	 0.692262	 0.592428	 0.156232
O	 1.065304	 2.174815	 1.902014
C	 -0.554654	 -0.292621	 0.086567
H	 1.526423	 0.064111	 0.598830
H	 0.977713	 0.893585	 -0.849601
C	 -1.846385	 0.513195	 -0.016346
H	 -0.473986	 -0.956115	 -0.769708
H	 -0.597929	 -0.929215	 0.966651
C	 -3.089953	 -0.365049	 -0.098564
H	 -1.798267	 1.154820	 -0.891143
H	 -1.925398	 1.173265	 0.842889
H	 -3.055079	 -1.012299	 -0.968245
H	 -3.988403	 0.236438	 -0.170014
H	 -3.183055	 -0.995885	 0.779079

	symmetry c1
}
set optking {
	frozen_dihedral = ("
		6 3 5 9
	")
}

ee,wfn = optimize('scf', return_wfn=True)
oeprop( wfn, 'DIPOLE', 'QUADRUPOLE', 'MULLIKEN_CHARGES')
f=open( 'psi4out.xyz', 'w' )
f.write( "16  " )
f.write( str(ee) + "\n" )
f.write( MOL.save_string_xyz() )
f.close()
--------------------------------------------------------------------------

    Molecular point group: c1
  Charge       = 0
  Multiplicity = 1
  Basis Set: CC-PVTZ
  Basis Set:
  @DF-RHF Final Energy:  -270.11152754802112
    Total Energy =                       -270.1115275480211722
    Molecular point group: c1
  Basis Set: CC-PVTZ
  Basis Set:
  Basis Set: CC-PVTZ
  Basis Set:
  @DF-RHF Final Energy:  -270.11188813430692
    Total Energy =                       -270.1118881343067528
  Basis Set: CC-PVTZ
  Basis Set:
  Basis Set: CC-PVTZ
  Basis Set:
  @DF-RHF Final Energy:  -270.11397411765313
    Total Energy =                       -270.1139741176531288
  Basis Set: CC-PVTZ
  Basis Set:
  Basis Set: CC-PVTZ
  Basis Set:
  @DF-RHF Final Energy:  -270.11272304267845
    Total Energy =                       -270.1127230426784536
  Basis Set: CC-PVTZ
  Basis Set:
  @DF-RHF Final Energy:  -270.11448606368060
    Total Energy =                       -270.1144860636806015
  @DF-RHF Final Energy:  -270.11462881425064
    Total Energy =                       -270.1146288142506364
  Basis Set: CC-PVTZ
  Basis Set:
  @DF-RHF Final Energy:  -270.11468576685246
    Total Energy =                       -270.1146857668526309
  Basis Set: CC-PVTZ
  Basis Set:
  Basis Set: CC-PVTZ
  Basis Set:
  @DF-RHF Final Energy:  -270.11471384245880
    Total Energy =                       -270.1147138424591390
  Basis Set: CC-PVTZ
  Basis Set:
  Basis Set: CC-PVTZ
  Basis Set:
  @DF-RHF Final Energy:  -270.11472260156387
    Total Energy =                       -270.1147226015638694
  Basis Set: CC-PVTZ
  Basis Set:
  Charge       = 0
  Multiplicity = 1
  Basis Set: CC-PVTZ
  Basis Set:

    Orbital Energies (a.u.)
    -----------------------

    Doubly Occupied:

       1A    -20.551165     2A    -11.319953     3A    -11.234255
       4A    -11.233513     5A    -11.228265     6A    -11.216853
       7A     -1.405722     8A     -1.095608     9A     -1.016957
      10A     -0.905542    11A     -0.832968    12A     -0.772208
      13A     -0.684610    14A     -0.649120    15A     -0.624358
      16A     -0.603794    17A     -0.582738    18A     -0.559967
      19A     -0.528731    20A     -0.517149    21A     -0.491971
      22A     -0.478945    23A     -0.471145    24A     -0.409538

  @DF-RHF Final Energy:  -270.11472319977992

   => Energetics <=

    Nuclear Repulsion Energy =            234.2908129368218511
    One-Electron Energy =                -829.9809206684867604
    Two-Electron Energy =                 325.5753845318852768
    DFT Exchange-Correlation Energy =       0.0000000000000000
    Empirical Dispersion Energy =           0.0000000000000000
    PCM Polarization Energy =               0.0000000000000000
    EFP Energy =                            0.0000000000000000
    Total Energy =                       -270.1147231997796894
    Molecular point group: c1
  Basis Set: CC-PVTZ
  Basis Set:

  -Total Gradient:
     Atom            X                  Y                   Z
    ------   -----------------  -----------------  -----------------
       1       -0.000025650482     0.000031588452    -0.000028413952
       2        0.000016462577    -0.000007928895     0.000059486213
       3        0.000990889650    -0.001165309391    -0.005704592261
       4       -0.000003922749     0.000009744983    -0.000003969254
       5        0.002146756730    -0.003481630793     0.004021089269
       6       -0.001127125523     0.001442479390     0.004157880577
       7       -0.000008397717     0.000002050168     0.000000270371
       8       -0.000016283064    -0.000005343435     0.000000934291
       9       -0.001973571046     0.003146466275    -0.002511012171
      10        0.000015537367    -0.000005059314     0.000009072770
      11        0.000015882838     0.000023627212     0.000006064822
      12       -0.000007422145     0.000006774780    -0.000015325863
      13       -0.000020507929     0.000005227730     0.000007060490
      14        0.000004688365    -0.000001770795    -0.000011639726
      15       -0.000010980391     0.000006741011     0.000000373431
      16        0.000003643522    -0.000007657375     0.000012720995

  **** Optimization is complete! (in 10 steps) ****
    Final optimized geometry and variables:
    Molecular point group: c1

    Geometry (in Angstrom), charge = 0, multiplicity = 1:

    H            0.577547850281     1.954208779707     0.048514175575
    C            1.130344496475     1.112620327635     0.480132604407
    C            1.259410374512    -0.113929415616    -0.388080296230
    O            1.585306714000     1.204094236461     1.568575200867
    C           -0.026643010072    -0.961983882836    -0.438798537196
    H            2.065899245698    -0.696832708408     0.036023250292
    H            1.531340910279     0.208564301561    -1.388235004493
    C           -1.330359949253    -0.169080580607    -0.555836599201
    H            0.037871232205    -1.609488453194    -1.306692320021
    H           -0.070119998939    -1.593729900358     0.440696957885
    C           -2.544075863331    -1.077046422873    -0.722693537697
    H           -1.270838966764     0.509450041861    -1.403101005880
    H           -1.472650379647     0.449340426033     0.324828972828
    H           -2.461750094572    -1.679758528616    -1.620825344921
    H           -3.457783534930    -0.499049696091    -0.794044512395
    H           -2.644408865454    -1.752197144193     0.120295359025

  Mulliken Charges: (a.u.)
   Center  Symbol    Alpha    Beta     Spin     Total
       1     H     0.46021  0.46021  0.00000  0.07959
       2     C     2.90625  2.90625  0.00000  0.18751
       3     C     3.09130  3.09130  0.00000 -0.18259
       4     O     4.16684  4.16684  0.00000 -0.33368
       5     C     3.09451  3.09451  0.00000 -0.18902
       6     H     0.43931  0.43931  0.00000  0.12138
       7     H     0.44845  0.44845  0.00000  0.10310
       8     C     3.09731  3.09731  0.00000 -0.19461
       9     H     0.44982  0.44982  0.00000  0.10037
      10     H     0.44465  0.44465  0.00000  0.11070
      11     C     3.14888  3.14888  0.00000 -0.29776
      12     H     0.45132  0.45132  0.00000  0.09736
      13     H     0.44786  0.44786  0.00000  0.10428
      14     H     0.45410  0.45410  0.00000  0.09180
      15     H     0.44656  0.44656  0.00000  0.10688
      16     H     0.45266  0.45266  0.00000  0.09469

   Total alpha = 24.00000, Total beta = 24.00000, Total charge = -0.00000

*** Psi4 exiting successfully. Buy a developer a beer!
