  ==> Input File <==

--------------------------------------------------------------------------
set {
	reference rhf
	basis cc-pvtz
}

set_num_threads( 4 )
memory 2 gb

molecule MOL {
0 1

H	 -3.034039	 -0.667848	 0.004703
O	 -2.240597	 -1.171748	 0.000934
C	 -1.159675	 -0.364500	 0.000370
C	 -0.912780	 0.542632	 1.010602
C	 -0.285340	 -0.475181	 -1.069837
H	 -1.590279	 0.631484	 1.840156
C	 0.217534	 1.338411	 0.937447
H	 -0.507464	 -1.188595	 -1.839665
C	 0.842553	 0.317482	 -1.139987
H	 0.411432	 2.047467	 1.720016
C	 1.089546	 1.233823	 -0.122489
C	 1.805918	 0.180497	 -2.291858
H	 1.960167	 1.860449	 -0.165132
H	 2.123637	 1.151711	 -2.650496
H	 1.358865	 -0.355600	 -3.117987
H	 2.693924	 -0.361500	 -1.984729

	symmetry c1
}
set optking {
	frozen_dihedral = ("
		5 3 2 1
	")
}

ee = optimize('scf')
oeprop('DIPOLE', 'QUADRUPOLE', 'MULLIKEN_CHARGES')
f=open( 'psi4out.xyz', 'w' )
f.write( "16  " )
f.write( str(ee) + "\n" )
f.write( MOL.save_string_xyz() )
f.close()
--------------------------------------------------------------------------

    Molecular point group: c1
  Charge       = 0
  Multiplicity = 1
  Basis Set: CC-PVTZ
  Basis Set:
  @DF-RHF Final Energy:  -344.71685144607824
    Total Energy =                       -344.7168514460787492
    Molecular point group: c1
  Basis Set: CC-PVTZ
  Basis Set:
  Basis Set: CC-PVTZ
  Basis Set:
  @DF-RHF Final Energy:  -344.71718482543849
    Total Energy =                       -344.7171848254388919
  Basis Set: CC-PVTZ
  Basis Set:
  Basis Set: CC-PVTZ
  Basis Set:
  @DF-RHF Final Energy:  -344.71722181008585
    Total Energy =                       -344.7172218100860164
  Basis Set: CC-PVTZ
  Basis Set:
  Basis Set: CC-PVTZ
  Basis Set:
  @DF-RHF Final Energy:  -344.71722609937137
    Total Energy =                       -344.7172260993713735
  Basis Set: CC-PVTZ
  Basis Set:
  @DF-RHF Final Energy:  -344.71722776016321
    Total Energy =                       -344.7172277601632118
  @DF-RHF Final Energy:  -344.71722971225938
    Total Energy =                       -344.7172297122588134
  @DF-RHF Final Energy:  -344.71723274817924
    Total Energy =                       -344.7172327481790717
  @DF-RHF Final Energy:  -344.71724523963127
    Total Energy =                       -344.7172452396306426
  Basis Set: CC-PVTZ
  Basis Set:
  @DF-RHF Final Energy:  -344.71725647773388
    Total Energy =                       -344.7172564777342814
  Basis Set: CC-PVTZ
  Basis Set:
  Basis Set: CC-PVTZ
  Basis Set:
  @DF-RHF Final Energy:  -344.71726323509773
    Total Energy =                       -344.7172632350977892
  Basis Set: CC-PVTZ
  Basis Set:
  Basis Set: CC-PVTZ
  Basis Set:
  @DF-RHF Final Energy:  -344.71726492264156
    Total Energy =                       -344.7172649226419026
  Basis Set: CC-PVTZ
  Basis Set:
  Charge       = 0
  Multiplicity = 1
  Basis Set: CC-PVTZ
  Basis Set:

    Orbital Energies (a.u.)
    -----------------------

    Doubly Occupied:

       1A    -20.572070     2A    -11.288582     3A    -11.240209
       4A    -11.231659     5A    -11.220306     6A    -11.220017
       7A    -11.217784     8A    -11.216604     9A     -1.399750
      10A     -1.154808    11A     -1.046662    12A     -1.007879
      13A     -0.938788    14A     -0.828793    15A     -0.816818
      16A     -0.718932    17A     -0.680963    18A     -0.659667
      19A     -0.621333    20A     -0.593817    21A     -0.576967
      22A     -0.570970    23A     -0.553861    24A     -0.517591
      25A     -0.507574    26A     -0.485302    27A     -0.468651
      28A     -0.332633    29A     -0.320764

  @DF-RHF Final Energy:  -344.71726571449398

   => Energetics <=

    Nuclear Repulsion Energy =            345.9644636770295278
    One-Electron Energy =               -1153.3439504975297041
    Two-Electron Energy =                 462.6622211060061431
    DFT Exchange-Correlation Energy =       0.0000000000000000
    Empirical Dispersion Energy =           0.0000000000000000
    PCM Polarization Energy =               0.0000000000000000
    EFP Energy =                            0.0000000000000000
    Total Energy =                       -344.7172657144940899
    Molecular point group: c1
  Basis Set: CC-PVTZ
  Basis Set:

  -Total Gradient:
     Atom            X                  Y                   Z
    ------   -----------------  -----------------  -----------------
       1       -0.000050526559    -0.000100326459    -0.002258499986
       2       -0.000374206428     0.000588821039     0.002416194270
       3        0.001269567908    -0.001472845954     0.000671660511
       4       -0.000000361223    -0.000057723685     0.000012746093
       5       -0.000848152906     0.001025612090    -0.000837575734
       6        0.000001471770    -0.000001700205     0.000001717601
       7        0.000032520891     0.000011022818    -0.000022250011
       8       -0.000004786686     0.000007168710    -0.000001714077
       9       -0.000019430928     0.000007828272    -0.000025717441
      10       -0.000003464828    -0.000001514092     0.000000470778
      11        0.000003553736    -0.000004820114     0.000052557370
      12       -0.000006214000     0.000015768690    -0.000000923336
      13       -0.000003553816     0.000001070693    -0.000010834476
      14       -0.000001938327    -0.000004494294    -0.000000919032
      15        0.000003886925    -0.000010580417    -0.000003539117
      16        0.000001634473    -0.000003287091     0.000006626585

  **** Optimization is complete! (in 12 steps) ****
    Final optimized geometry and variables:
    Molecular point group: c1

    Geometry (in Angstrom), charge = 0, multiplicity = 1:

    H           -2.892777270398    -0.908414914927     0.411655522254
    O           -2.086023769577    -1.392047549918     0.417001280703
    C           -1.019465136522    -0.544023441318     0.357622487898
    C           -0.801412833279     0.394462615210     1.349754480917
    C           -0.147130789921    -0.653664626344    -0.704883228853
    H           -1.480473140186     0.464214955686     2.177988835306
    C            0.299397227399     1.220940863734     1.259122335083
    H           -0.348146375755    -1.390018900523    -1.459508251113
    C            0.968919742824     0.165636863591    -0.791598984832
    H            0.474973610470     1.954837679533     2.022758935387
    C            1.180748301250     1.109699814155     0.199580789344
    C            1.934690298714     0.012623677775    -1.939651570740
    H            2.034017292703     1.758915607228     0.146321983782
    H            2.545674994616     0.897413796314    -2.058737711303
    H            1.411079091313    -0.164378628853    -2.870787044011
    H            2.598479395156    -0.828953938498    -1.772322169122

  Mulliken Charges: (a.u.)
   Center  Symbol    Alpha    Beta     Spin     Total
       1     H     0.38655  0.38655  0.00000  0.22689
       2     O     4.18917  4.18917  0.00000 -0.37833
       3     C     2.85634  2.85634  0.00000  0.28732
       4     C     3.13325  3.13325  0.00000 -0.26650
       5     C     3.13488  3.13488  0.00000 -0.26977
       6     H     0.42181  0.42181  0.00000  0.15639
       7     C     3.05920  3.05920  0.00000 -0.11840
       8     H     0.42009  0.42009  0.00000  0.15982
       9     C     2.94247  2.94247  0.00000  0.11506
      10     H     0.42262  0.42262  0.00000  0.15476
      11     C     3.11492  3.11492  0.00000 -0.22984
      12     C     3.14600  3.14600  0.00000 -0.29199
      13     H     0.42658  0.42658  0.00000  0.14684
      14     H     0.45054  0.45054  0.00000  0.09891
      15     H     0.44897  0.44897  0.00000  0.10205
      16     H     0.44661  0.44661  0.00000  0.10678

   Total alpha = 29.00000, Total beta = 29.00000, Total charge =  0.00000
