                              Psi4 1.0.54 Driver

  ==> Input File <==

--------------------------------------------------------------------------
set {
	reference rhf
	basis cc-pvtz
}

set_num_threads( 4 )
memory 2 gb

molecule MOL {
0 1

H	 2.299121	 2.621971	 -2.614821
N	 1.534141	 1.981992	 -2.643973
C	 1.078246	 1.649055	 -1.303535
H	 1.850722	 1.166368	 -3.125513
C	 -0.139859	 0.738936	 -1.354802
H	 0.812224	 2.574883	 -0.804554
H	 1.852786	 1.177999	 -0.696783
C	 -0.678115	 0.376691	 0.025731
H	 -0.911929	 1.228174	 -1.939576
H	 0.120499	 -0.172222	 -1.890048
C	 -1.900706	 -0.535531	 -0.022488
H	 -0.934351	 1.287545	 0.562054
H	 0.104574	 -0.106860	 0.605773
C	 -3.220513	 0.226854	 0.028039
H	 -1.865036	 -1.134397	 -0.928236
H	 -1.857948	 -1.236381	 0.806820
H	 -3.309098	 0.911849	 -0.808725
H	 -4.066838	 -0.449485	 -0.008086
H	 -3.301685	 0.809374	 0.939860

	symmetry c1
}
set optking {
	frozen_dihedral = ("
		12 8 11 15
	")
}

ee,wfn = optimize('scf', return_wfn=True)
oeprop( wfn, 'DIPOLE', 'QUADRUPOLE', 'MULLIKEN_CHARGES')
f=open( 'psi4out.xyz', 'w' )
f.write( "19  " )
f.write( str(ee) + "\n" )
f.write( MOL.save_string_xyz() )
f.close()
--------------------------------------------------------------------------

    Molecular point group: c1
  Charge       = 0
  Multiplicity = 1
  Basis Set: CC-PVTZ
  Basis Set:
  @DF-RHF Final Energy:  -251.44417054801650
    Total Energy =                       -251.4441705480164160
    Molecular point group: c1
  Basis Set: CC-PVTZ
  Basis Set:
  Basis Set: CC-PVTZ
  Basis Set:
  @DF-RHF Final Energy:  -251.44443711691571
    Total Energy =                       -251.4444371169156511
  Basis Set: CC-PVTZ
  Basis Set:
  Basis Set: CC-PVTZ
  Basis Set:
  @DF-RHF Final Energy:  -251.44452075096822
    Total Energy =                       -251.4445207509681950
  Basis Set: CC-PVTZ
  Basis Set:
  Charge       = 0
  Multiplicity = 1
  Basis Set: CC-PVTZ
  Basis Set:

    Orbital Energies (a.u.)
    -----------------------

    Doubly Occupied:

       1A    -15.526473     2A    -11.237815     3A    -11.211872
       4A    -11.210469     5A    -11.207797     6A    -11.204678
       7A     -1.178168     8A     -1.073000     9A     -0.997144
      10A     -0.901556    11A     -0.818518    12A     -0.784428
      13A     -0.665488    14A     -0.638212    15A     -0.610596
      16A     -0.596127    17A     -0.584780    18A     -0.536754
      19A     -0.520345    20A     -0.507941    21A     -0.485938
      22A     -0.462615    23A     -0.455393    24A     -0.449925
      25A     -0.383876

  @DF-RHF Final Energy:  -251.44452171512145

   => Energetics <=

    Nuclear Repulsion Energy =            248.2788365214979933
    One-Electron Energy =                -830.9469021378595244
    Two-Electron Energy =                 331.2235439012400775
    DFT Exchange-Correlation Energy =       0.0000000000000000
    Empirical Dispersion Energy =           0.0000000000000000
    PCM Polarization Energy =               0.0000000000000000
    EFP Energy =                            0.0000000000000000
    Total Energy =                       -251.4445217151214820
    Molecular point group: c1
  Basis Set: CC-PVTZ
  Basis Set:

  -Total Gradient:
     Atom            X                  Y                   Z
    ------   -----------------  -----------------  -----------------
       1        0.000022020486     0.000009086724    -0.000027913554
       2        0.000018973654     0.000046493169     0.000016601048
       3        0.000013475711    -0.000036041982    -0.000022087253
       4        0.000001410251    -0.000004036266     0.000007275008
       5       -0.000054698897     0.000001773698     0.000092250602
       6        0.000011060354    -0.000006314647    -0.000022309857
       7        0.000014112149     0.000019303698     0.000005952433
       8        0.000822271172    -0.001189730379     0.003100699528
       9       -0.000003289279    -0.000010702031    -0.000001901717
      10       -0.000018981299     0.000005042849    -0.000005202802
      11        0.001722942497    -0.002635635986     0.001398896452
      12       -0.000911002994     0.001416341683    -0.002832502347
      13        0.000006585975     0.000034620815    -0.000023154926
      14        0.000009199388    -0.000043199183    -0.000022983692
      15       -0.001629830275     0.002381081019    -0.001627994071
      16       -0.000017711844     0.000000245567    -0.000025224804
      17       -0.000011448383    -0.000005269773     0.000005360261
      18       -0.000014926432     0.000015967359     0.000006202009
      19        0.000019837763     0.000000973663    -0.000021962318

  **** Optimization is complete! (in 4 steps) ****
    Final optimized geometry and variables:
    Molecular point group: c1

    Geometry (in Angstrom), charge = 0, multiplicity = 1:

    H            2.785170158696     1.884457630088    -1.741530440245
    N            2.037353965027     1.224042904187    -1.759345001129
    C            1.591856386473     0.899804753838    -0.413258247236
    H            2.375113791655     0.409759588184    -2.228613878735
    C            0.398310166748    -0.042842322620    -0.448355613986
    H            1.302161098517     1.825851285623     0.071925427495
    H            2.379312160756     0.458893084622     0.199776005108
    C           -0.120072211685    -0.409434714311     0.941675753667
    H           -0.388382703730     0.420299094197    -1.034675874613
    H            0.679754691743    -0.952192885851    -0.975489906117
    C           -1.376435766908    -1.293428087904     0.905088407480
    H           -0.347300583192     0.511697876093     1.472036388596
    H            0.669770136748    -0.906777225295     1.495162877471
    C           -2.676804242637    -0.491641349314     0.918553682427
    H           -1.362086445323    -1.899386574465     0.004117438712
    H           -1.375504143855    -1.977188408665     1.746599244948
    H           -2.719244739591     0.206663465530     0.089604412655
    H           -3.540027332413    -1.143322954536     0.843289172069
    H           -2.772104240143     0.079845291272     1.835677638863

  Mulliken Charges: (a.u.)
   Center  Symbol    Alpha    Beta     Spin     Total
       1     H     0.43021  0.43021  0.00000  0.13958
       2     N     3.68902  3.68902  0.00000 -0.37803
       3     C     3.02834  3.02834  0.00000 -0.05669
       4     H     0.43103  0.43103  0.00000  0.13794
       5     C     3.08281  3.08281  0.00000 -0.16563
       6     H     0.45661  0.45661  0.00000  0.08678
       7     H     0.46827  0.46827  0.00000  0.06346
       8     C     3.10011  3.10011  0.00000 -0.20022
       9     H     0.44845  0.44845  0.00000  0.10309
      10     H     0.45977  0.45977  0.00000  0.08046
      11     C     3.08945  3.08945  0.00000 -0.17889
      12     H     0.45622  0.45622  0.00000  0.08755
      13     H     0.44929  0.44929  0.00000  0.10142
      14     C     3.14797  3.14797  0.00000 -0.29594
      15     H     0.45566  0.45566  0.00000  0.08868
      16     H     0.44802  0.44802  0.00000  0.10396
      17     H     0.45394  0.45394  0.00000  0.09213
      18     H     0.44914  0.44914  0.00000  0.10172
      19     H     0.45568  0.45568  0.00000  0.08863

   Total alpha = 25.00000, Total beta = 25.00000, Total charge = -0.00000

*** Psi4 exiting successfully. Buy a developer a beer!
