  ==> Input File <==

--------------------------------------------------------------------------
set {
	reference rhf
	basis 6-31G*
}

set_num_threads( 4 )
memory 2 gb

molecule MOL {
0 1

H	 -2.798360	 -0.862255	 -0.071053
N	 -1.863561	 -0.715187	 0.256814
C	 -1.344686	 0.554728	 -0.219830
H	 -1.300452	 -1.461917	 -0.101532
C	 0.138189	 0.649650	 0.072070
H	 -1.495997	 0.717686	 -1.287796
H	 -1.852473	 1.356757	 0.307127
O	 0.795461	 -0.336725	 -0.670994
H	 0.513301	 1.635872	 -0.200505
H	 0.311950	 0.499564	 1.135327
C	 2.164324	 -0.418936	 -0.432191
H	 2.559694	 -1.207588	 -1.057816
H	 2.668475	 0.513138	 -0.681294
H	 2.372707	 -0.656412	 0.608958

	symmetry c1
}
set optking {
	frozen_dihedral = ("
		6 3 2 4
	")
}

ee = optimize('scf')
oeprop('DIPOLE', 'QUADRUPOLE', 'MULLIKEN_CHARGES')
f=open( 'psi4out.xyz', 'w' )
f.write( "14  " )
f.write( str(ee) + "\n" )
f.write( MOL.save_string_xyz() )
f.close()
--------------------------------------------------------------------------

    Molecular point group: c1
  Charge       = 0
  Multiplicity = 1
  Basis Set: 6-31G*
  Basis Set:
  @DF-RHF Final Energy:  -248.12501611159468
    Total Energy =                       -248.1250161115947321
    Molecular point group: c1
  Basis Set: 6-31G*
  Basis Set:
  Basis Set: 6-31G*
  Basis Set:
  @DF-RHF Final Energy:  -248.12504298254004
    Total Energy =                       -248.1250429825399806
  Basis Set: 6-31G*
  Basis Set:
  Basis Set: 6-31G*
  Basis Set:
  @DF-RHF Final Energy:  -248.12504566956125
    Total Energy =                       -248.1250456695614730
  Basis Set: 6-31G*
  Basis Set:
  Charge       = 0
  Multiplicity = 1
  Basis Set: 6-31G*
  Basis Set:

    Orbital Energies (a.u.)
    -----------------------

    Doubly Occupied:

       1A    -20.559001     2A    -15.527295     3A    -11.267388
       4A    -11.267269     5A    -11.240657     6A     -1.382935
       7A     -1.172916     8A     -0.999589     9A     -0.908352
      10A     -0.816115    11A     -0.685430    12A     -0.673360
      13A     -0.647271    14A     -0.612157    15A     -0.601919
      16A     -0.542931    17A     -0.531566    18A     -0.497580
      19A     -0.473042    20A     -0.419043    21A     -0.378603

  @DF-RHF Final Energy:  -248.12504587370208

   => Energetics <=

    Nuclear Repulsion Energy =            194.7326804358446850
    One-Electron Energy =                -723.3066130940379708
    Two-Electron Energy =                 280.4488867844912647
    DFT Exchange-Correlation Energy =       0.0000000000000000
    Empirical Dispersion Energy =           0.0000000000000000
    PCM Polarization Energy =               0.0000000000000000
    EFP Energy =                            0.0000000000000000
    Total Energy =                       -248.1250458737019926
    Molecular point group: c1
  Basis Set: 6-31G*
  Basis Set:

  -Total Gradient:
     Atom            X                  Y                   Z
    ------   -----------------  -----------------  -----------------
       1        0.000008075797     0.000008006227    -0.000000244773
       2       -0.001675197167     0.000067105097    -0.001546417702
       3        0.002083486546    -0.000857693845    -0.000102513766
       4        0.001009987565     0.000081544809     0.001338186098
       5       -0.000032643013     0.000010594842    -0.000036595665
       6       -0.001377893644     0.000686179367     0.000342676835
       7       -0.000008397653     0.000013229038     0.000006762527
       8        0.000004489436    -0.000008732959     0.000008819915
       9        0.000007888403     0.000007066202    -0.000002243595
      10       -0.000015094420    -0.000008972289    -0.000013894667
      11       -0.000006915395     0.000003226371     0.000001447310
      12       -0.000000584085    -0.000001063726     0.000001843852
      13       -0.000000504533     0.000000681543     0.000000504400
      14        0.000003302158    -0.000001170677     0.000001669228

  **** Optimization is complete! (in 4 steps) ****
    Final optimized geometry and variables:
    Molecular point group: c1

    Geometry (in Angstrom), charge = 0, multiplicity = 1:

    H           -2.797600805885    -0.781662430854     0.148711841613
    N           -1.854548493408    -0.643887390142     0.454560999722
    C           -1.332899996676     0.627557318853    -0.014368339822
    H           -1.300805282633    -1.390736752233     0.082716177216
    C            0.149863383667     0.721480535669     0.276806805794
    H           -1.495106375981     0.802193013829    -1.078748761254
    H           -1.836528254157     1.428377753376     0.519469910773
    O            0.809149876014    -0.268731471416    -0.459257382937
    H            0.524837050266     1.706485488407     0.000857889315
    H            0.322962037771     0.576965762659     1.341190750245
    C            2.179301918003    -0.342526542258    -0.223393434901
    H            2.576188499087    -1.135949435409    -0.841846606420
    H            2.677909122858     0.589226774902    -0.483978237827
    H            2.391734337692    -0.567897541006     0.819642734032

  Mulliken Charges: (a.u.)
   Center  Symbol    Alpha    Beta     Spin     Total
       1     H     0.33251  0.33251  0.00000  0.33498
       2     N     3.92789  3.92789  0.00000 -0.85578
       3     C     3.06535  3.06535  0.00000 -0.13070
       4     H     0.32291  0.32291  0.00000  0.35418
       5     C     2.99358  2.99358  0.00000  0.01284
       6     H     0.42688  0.42688  0.00000  0.14623
       7     H     0.42062  0.42062  0.00000  0.15875
       8     O     4.30950  4.30950  0.00000 -0.61901
       9     H     0.42982  0.42982  0.00000  0.14036
      10     H     0.42243  0.42243  0.00000  0.15513
      11     C     3.07937  3.07937  0.00000 -0.15875
      12     H     0.41216  0.41216  0.00000  0.17569
      13     H     0.42948  0.42948  0.00000  0.14103
      14     H     0.42748  0.42748  0.00000  0.14505

   Total alpha = 21.00000, Total beta = 21.00000, Total charge = -0.00000
