                              Psi4 1.0.54 Driver

  ==> Input File <==

--------------------------------------------------------------------------
set {
	reference rhf
	basis cc-pvtz
}

set_num_threads( 4 )
memory 2 gb

molecule MOL {
0 1

H	 3.721907	 -0.933076	 -0.066039
O	 2.824271	 -1.154299	 0.131461
C	 2.076458	 -0.067370	 -0.038225
C	 0.626018	 -0.337582	 0.258241
O	 2.538288	 0.965419	 -0.381593
C	 -0.267326	 0.883135	 0.076490
H	 0.325620	 -1.161483	 -0.378003
H	 0.574537	 -0.713685	 1.275261
C	 -1.726822	 0.642622	 0.463839
H	 -0.210803	 1.217591	 -0.953497
H	 0.129920	 1.693110	 0.675679
C	 -2.480891	 -0.340606	 -0.429852
H	 -2.243098	 1.597649	 0.438609
H	 -1.776542	 0.301208	 1.495542
C	 -1.994641	 -0.314729	 -1.875316
H	 -2.367622	 -1.344711	 -0.029879
H	 -3.544032	 -0.122881	 -0.413066
H	 -2.543369	 -1.021615	 -2.486783
H	 -0.942075	 -0.569329	 -1.938430
H	 -2.122100	 0.669762	 -2.313136

	symmetry c1
}
set optking {
	frozen_dihedral = ("
		16 12 9 6
	")
}

ee,wfn = optimize('scf', return_wfn=True)
oeprop( wfn, 'DIPOLE', 'QUADRUPOLE', 'MULLIKEN_CHARGES')
f=open( 'psi4out.xyz', 'w' )
f.write( "20  " )
f.write( str(ee) + "\n" )
f.write( MOL.save_string_xyz() )
f.close()
--------------------------------------------------------------------------

    Molecular point group: c1
  Charge       = 0
  Multiplicity = 1
  Basis Set: CC-PVTZ
  Basis Set:
  @DF-RHF Final Energy:  -384.08706596961071
    Total Energy =                       -384.0870659696111034
    Molecular point group: c1
  Basis Set: CC-PVTZ
  Basis Set:
  Basis Set: CC-PVTZ
  Basis Set:
  @DF-RHF Final Energy:  -384.07154646296459
    Total Energy =                       -384.0715464629641360
  Basis Set: CC-PVTZ
  Basis Set:
  Basis Set: CC-PVTZ
  Basis Set:
  @DF-RHF Final Energy:  -384.08969522448052
    Total Energy =                       -384.0896952244806926
  Basis Set: CC-PVTZ
  Basis Set:
  Basis Set: CC-PVTZ
  Basis Set:
  @DF-RHF Final Energy:  -384.09015907023951
    Total Energy =                       -384.0901590702393378
  Basis Set: CC-PVTZ
  Basis Set:
  @DF-RHF Final Energy:  -384.08911945047447
    Total Energy =                       -384.0891194504748682
  Basis Set: CC-PVTZ
  Basis Set:
  @DF-RHF Final Energy:  -384.09025094095875
    Total Energy =                       -384.0902509409590948
  Basis Set: CC-PVTZ
  Basis Set:
  Basis Set: CC-PVTZ
  Basis Set:
  @DF-RHF Final Energy:  -384.09027934115153
    Total Energy =                       -384.0902793411516996
  Basis Set: CC-PVTZ
  Basis Set:
  Basis Set: CC-PVTZ
  Basis Set:
  @DF-RHF Final Energy:  -384.09028178803368
    Total Energy =                       -384.0902817880337352
  Basis Set: CC-PVTZ
  Basis Set:
  Charge       = 0
  Multiplicity = 1
  Basis Set: CC-PVTZ
  Basis Set:

    Orbital Energies (a.u.)
    -----------------------

    Doubly Occupied:

       1A    -20.603708     2A    -20.540333     3A    -11.373146
       4A    -11.238150     5A    -11.219962     6A    -11.219105
       7A    -11.218507     8A    -11.211719     9A     -1.477244
      10A     -1.368757    11A     -1.096540    12A     -1.038654
      13A     -0.961932    14A     -0.882860    15A     -0.815726
      16A     -0.765840    17A     -0.703207    18A     -0.692807
      19A     -0.669769    20A     -0.629286    21A     -0.624347
      22A     -0.585839    23A     -0.570532    24A     -0.566154
      25A     -0.535377    26A     -0.513070    27A     -0.507326
      28A     -0.484152    29A     -0.468471    30A     -0.461940
      31A     -0.457779    32A     -0.444633

  @DF-RHF Final Energy:  -384.09028200340151

   => Energetics <=

    Nuclear Repulsion Energy =            384.2102656579718314
    One-Electron Energy =               -1284.7073469301471960
    Two-Electron Energy =                 516.4067992687732840
    DFT Exchange-Correlation Energy =       0.0000000000000000
    Empirical Dispersion Energy =           0.0000000000000000
    PCM Polarization Energy =               0.0000000000000000
    EFP Energy =                            0.0000000000000000
    Total Energy =                       -384.0902820034020806
    Molecular point group: c1
  Basis Set: CC-PVTZ
  Basis Set:

  -Total Gradient:
     Atom            X                  Y                   Z
    ------   -----------------  -----------------  -----------------
       1       -0.000000041996    -0.000005562521     0.000004794055
       2       -0.000011962982     0.000002595358    -0.000007823443
       3        0.000038444691     0.000025042699    -0.000018977343
       4        0.000003169456     0.000002251042    -0.000042923364
       5       -0.000027630769    -0.000017984744     0.000020942076
       6       -0.001135511635     0.003908090159    -0.002671946504
       7       -0.000004082703    -0.000007952370     0.000012214627
       8       -0.000004587241     0.000003786820     0.000023005473
       9        0.000196792276    -0.005662802840     0.004554637415
      10       -0.000001265939     0.000000540665    -0.000014817735
      11        0.000006503811     0.000007233627     0.000004037283
      12        0.006928154632     0.001692165598    -0.004456334357
      13        0.000003870540     0.000001524947     0.000000188890
      14        0.000005484036     0.000000387086     0.000006837783
      15        0.000004876742     0.000003800201     0.000001271454
      16       -0.005994818740     0.000060726233     0.002594349558
      17       -0.000004237870    -0.000005359706    -0.000006790957
      18       -0.000004337198    -0.000006698294    -0.000008283556
      19        0.000003091930    -0.000000346577     0.000001365610
      20       -0.000001911049    -0.000001437384     0.000004253035

  **** Optimization is complete! (in 9 steps) ****
    Final optimized geometry and variables:
    Molecular point group: c1

    Geometry (in Angstrom), charge = 0, multiplicity = 1:

    H            3.472956798817    -0.717427651098     0.782377851494
    O            2.576275424737    -1.016084991180     0.804635143284
    C            1.781174330284     0.021557712096     0.558494258818
    C            0.328860229537    -0.371705298942     0.575677573247
    O            2.207333390476     1.105656156810     0.355440976376
    C           -0.621774510244     0.790293850340     0.313996243932
    H            0.208597715130    -1.167495970191    -0.150724640006
    H            0.133324035426    -0.825344886479     1.542153238738
    C           -2.096452534376     0.384780913034     0.346881980345
    H           -0.377285102357     1.252813878965    -0.632672615454
    H           -0.453047013149     1.550097424220     1.067520990740
    C           -2.594856533245    -0.539747871798    -0.779187440029
    H           -2.673743446503     1.303608128063     0.304819937726
    H           -2.330641525219    -0.069510957543     1.304904860237
    C           -2.014782939683    -0.291498610712    -2.167350992828
    H           -2.479638990515    -1.580169556019    -0.489281196516
    H           -3.671494636848    -0.407366835262    -0.839404130951
    H           -2.506688496432    -0.923012223288    -2.897841281677
    H           -0.953588251756    -0.501573912650    -2.218946949944
    H           -2.160263142431     0.739066056266    -2.473581099459

  Mulliken Charges: (a.u.)
   Center  Symbol    Alpha    Beta     Spin     Total
       1     H     0.38245  0.38245  0.00000  0.23510
       2     O     4.16040  4.16040  0.00000 -0.32080
       3     C     2.80333  2.80333  0.00000  0.39334
       4     C     3.11279  3.11279  0.00000 -0.22558
       5     O     4.19113  4.19113  0.00000 -0.38227
       6     C     3.10072  3.10072  0.00000 -0.20144
       7     H     0.43702  0.43702  0.00000  0.12595
       8     H     0.43551  0.43551  0.00000  0.12897
       9     C     3.10555  3.10555  0.00000 -0.21110
      10     H     0.44206  0.44206  0.00000  0.11587
      11     H     0.43602  0.43602  0.00000  0.12796
      12     C     3.10003  3.10003  0.00000 -0.20007
      13     H     0.44459  0.44459  0.00000  0.11081
      14     H     0.44880  0.44880  0.00000  0.10239
      15     C     3.15542  3.15542  0.00000 -0.31083
      16     H     0.44959  0.44959  0.00000  0.10082
      17     H     0.44619  0.44619  0.00000  0.10761
      18     H     0.44355  0.44355  0.00000  0.11290
      19     H     0.45400  0.45400  0.00000  0.09200
      20     H     0.45082  0.45082  0.00000  0.09836

   Total alpha = 32.00000, Total beta = 32.00000, Total charge = -0.00000

*** Psi4 exiting successfully. Buy a developer a beer!
