                              Psi4 1.0.54 Driver

  ==> Input File <==

--------------------------------------------------------------------------
set {
	reference rhf
	basis cc-pvtz
}

set_num_threads( 4 )
memory 2 gb

molecule MOL {
0 1

O	 -2.071633	 -1.227563	 -0.223463
C	 -1.652164	 -0.152425	 0.058082
C	 -0.327811	 0.006324	 0.778296
C	 -2.402515	 1.108629	 -0.298924
C	 0.843231	 -0.001575	 -0.211665
H	 -0.319484	 0.928173	 1.350354
H	 -0.227804	 -0.823091	 1.466705
C	 2.197693	 0.138030	 0.476937
H	 0.722944	 0.805202	 -0.930230
H	 0.813976	 -0.926978	 -0.776588
C	 2.561243	 -1.077438	 1.322887
H	 2.967824	 0.300360	 -0.272110
H	 2.188955	 1.024924	 1.103739
H	 2.612289	 -1.975816	 0.716797
H	 1.825085	 -1.246070	 2.101349
H	 3.524783	 -0.946517	 1.801271
H	 -3.240910	 0.874416	 -0.936711
H	 -1.747554	 1.818823	 -0.790984
H	 -2.760419	 1.579708	 0.610998

	symmetry c1
}
set optking {
	frozen_dihedral = ("
		11 8 5 9
	")
}

ee,wfn = optimize('scf', return_wfn=True)
oeprop( wfn, 'DIPOLE', 'QUADRUPOLE', 'MULLIKEN_CHARGES')
f=open( 'psi4out.xyz', 'w' )
f.write( "19  " )
f.write( str(ee) + "\n" )
f.write( MOL.save_string_xyz() )
f.close()
--------------------------------------------------------------------------

    Molecular point group: c1
  Charge       = 0
  Multiplicity = 1
  Basis Set: CC-PVTZ
  Basis Set:
  @DF-RHF Final Energy:  -309.17525854983694
    Total Energy =                       -309.1752585498368830
    Molecular point group: c1
  Basis Set: CC-PVTZ
  Basis Set:
  Basis Set: CC-PVTZ
  Basis Set:
  @DF-RHF Final Energy:  -309.17544774456803
    Total Energy =                       -309.1754477445679754
  Basis Set: CC-PVTZ
  Basis Set:
  Basis Set: CC-PVTZ
  Basis Set:
  @DF-RHF Final Energy:  -309.17573603999961
    Total Energy =                       -309.1757360399993786
  Basis Set: CC-PVTZ
  Basis Set:
  Basis Set: CC-PVTZ
  Basis Set:
  @DF-RHF Final Energy:  -309.17569006240132
    Total Energy =                       -309.1756900624011450
  Basis Set: CC-PVTZ
  Basis Set:
  Basis Set: CC-PVTZ
  Basis Set:
  @DF-RHF Final Energy:  -309.17573287125600
    Total Energy =                       -309.1757328712558888
  Basis Set: CC-PVTZ
  Basis Set:
  Basis Set: CC-PVTZ
  Basis Set:
  @DF-RHF Final Energy:  -309.17574292203642
    Total Energy =                       -309.1757429220364770
  Basis Set: CC-PVTZ
  Basis Set:
  Basis Set: CC-PVTZ
  Basis Set:
  @DF-RHF Final Energy:  -309.17574420707780
    Total Energy =                       -309.1757442070775710
  Basis Set: CC-PVTZ
  Basis Set:
  Charge       = 0
  Multiplicity = 1
  Basis Set: CC-PVTZ
  Basis Set:

    Orbital Energies (a.u.)
    -----------------------

    Doubly Occupied:

       1A    -20.536832     2A    -11.319446     3A    -11.229009
       4A    -11.227502     5A    -11.226980     6A    -11.223375
       7A    -11.212281     8A     -1.396997     9A     -1.092442
      10A     -1.028892    11A     -0.982267    12A     -0.899832
      13A     -0.799411    14A     -0.736449    15A     -0.659050
      16A     -0.653641    17A     -0.623155    18A     -0.602445
      19A     -0.597386    20A     -0.578150    21A     -0.548833
      22A     -0.542511    23A     -0.514451    24A     -0.502913
      25A     -0.481884    26A     -0.476593    27A     -0.464102
      28A     -0.399532

  @DF-RHF Final Energy:  -309.17574457654581

   => Energetics <=

    Nuclear Repulsion Energy =            304.8431936394532045
    One-Electron Energy =               -1022.9251426331385346
    Two-Electron Energy =                 408.9062044171394064
    DFT Exchange-Correlation Energy =       0.0000000000000000
    Empirical Dispersion Energy =           0.0000000000000000
    PCM Polarization Energy =               0.0000000000000000
    EFP Energy =                            0.0000000000000000
    Total Energy =                       -309.1757445765458669
    Molecular point group: c1
  Basis Set: CC-PVTZ
  Basis Set:

  -Total Gradient:
     Atom            X                  Y                   Z
    ------   -----------------  -----------------  -----------------
       1       -0.000003344101     0.000003714437    -0.000003294088
       2        0.000002379292     0.000001394094     0.000010430739
       3        0.000004522414    -0.000006234125    -0.000004358328
       4       -0.000004128084    -0.000002608012     0.000001062683
       5       -0.000206217740     0.000313658640     0.000335855754
       6        0.000002809931     0.000000292739    -0.000000778060
       7       -0.000004230220     0.000002730131    -0.000003521951
       8       -0.000193354446     0.000153926953     0.000360972464
       9        0.000224007941    -0.000306770403    -0.000385755687
      10        0.000001850632     0.000004230190     0.000006279713
      11        0.000176152937    -0.000162100544    -0.000306125465
      12        0.000000988395     0.000003487927    -0.000001961696
      13       -0.000003108812    -0.000008218873     0.000001329332
      14       -0.000001578136     0.000012196756     0.000003639290
      15        0.000005794604    -0.000001877885    -0.000005096721
      16       -0.000006706488    -0.000003602516    -0.000005883687
      17        0.000003059669    -0.000000678465     0.000001024784
      18       -0.000000637261    -0.000002425127    -0.000000445938
      19        0.000001739472    -0.000001115912    -0.000003373138

  **** Optimization is complete! (in 8 steps) ****
    Final optimized geometry and variables:
    Molecular point group: c1

    Geometry (in Angstrom), charge = 0, multiplicity = 1:

    O           -1.979114948810    -1.015505576238    -0.566633252405
    C           -1.544582738485     0.038975702251    -0.234280735827
    C           -0.231986060449     0.142148557428     0.516952682060
    C           -2.263812694970     1.327891316308    -0.553984461669
    C            0.952794500726     0.146087922745    -0.458786074956
    H           -0.213704190282     1.045222343106     1.118440073454
    H           -0.171357754695    -0.710933037908     1.178153786024
    C            2.316252237443     0.298687748152     0.217060614996
    H            0.827965658577     0.955619136585    -1.172157643940
    H            0.931323301035    -0.773975652764    -1.033065952307
    C            2.737660822711    -0.895190633087     1.069535914771
    H            3.061067368686     0.452972691922    -0.557189279846
    H            2.319557519842     1.199836515123     0.824320942325
    H            2.743385692319    -1.807912164484     0.483385871622
    H            2.074279350157    -1.048051216153     1.912358262570
    H            3.736205852852    -0.749479623367     1.464727152438
    H           -3.091498058989     1.136584750875    -1.219466795054
    H           -1.585590291472     2.046427267476    -1.000107486108
    H           -2.634351617847     1.765923265778     0.367356353141

  Mulliken Charges: (a.u.)
   Center  Symbol    Alpha    Beta     Spin     Total
       1     O     4.17714  4.17714  0.00000 -0.35428
       2     C     2.85775  2.85775  0.00000  0.28451
       3     C     3.10231  3.10231  0.00000 -0.20461
       4     C     3.15463  3.15463  0.00000 -0.30925
       5     C     3.10422  3.10422  0.00000 -0.20843
       6     H     0.44943  0.44943  0.00000  0.10113
       7     H     0.43743  0.43743  0.00000  0.12514
       8     C     3.09100  3.09100  0.00000 -0.18199
       9     H     0.44638  0.44638  0.00000  0.10724
      10     H     0.44131  0.44131  0.00000  0.11738
      11     C     3.15104  3.15104  0.00000 -0.30209
      12     H     0.44675  0.44675  0.00000  0.10651
      13     H     0.45401  0.45401  0.00000  0.09199
      14     H     0.45165  0.45165  0.00000  0.09670
      15     H     0.45383  0.45383  0.00000  0.09234
      16     H     0.44590  0.44590  0.00000  0.10820
      17     H     0.43601  0.43601  0.00000  0.12798
      18     H     0.45094  0.45094  0.00000  0.09812
      19     H     0.44829  0.44829  0.00000  0.10343

   Total alpha = 28.00000, Total beta = 28.00000, Total charge =  0.00000

*** Psi4 exiting successfully. Buy a developer a beer!
