  ==> Input File <==

--------------------------------------------------------------------------
set {
	reference rhf
	basis 6-31G*
}

set_num_threads( 1 )
memory 2 gb

molecule MOL {
0 1

H	 -4.031818	 -0.453427	 -0.000094
C	 -2.967712	 -0.297022	 -0.000064
C	 -2.458620	 0.992929	 0.000032
C	 -2.109895	 -1.385637	 -0.000122
H	 -3.124998	 1.836319	 0.000077
C	 -1.090278	 1.193236	 0.000070
H	 -2.506361	 -2.384847	 -0.000198
C	 -0.739812	 -1.187531	 -0.000085
H	 -0.678594	 2.184290	 0.000146
C	 -0.226438	 0.104061	 0.000012
H	 -0.072310	 -2.027032	 -0.000131
C	 1.239129	 0.373821	 0.000060
O	 1.749701	 0.467880	 -1.218575
O	 1.893667	 0.494230	 0.987957
C	 3.139820	 0.723884	 -1.311871
H	 3.383674	 1.664777	 -0.840649
H	 3.360874	 0.764292	 -2.367028
H	 3.702896	 -0.068099	 -0.840038

	symmetry c1
}
set optking {
	frozen_dihedral = ("
		12 13 15 16,
		10 12 13 15
	")
}

ee = energy('scf')
oeprop('DIPOLE', 'QUADRUPOLE', 'MULLIKEN_CHARGES')
f=open( 'psi4out.xyz', 'w' )
f.write( "18  " )
f.write( str(ee) + "\n" )
f.write( MOL.save_string_xyz() )
f.close()
--------------------------------------------------------------------------

    Molecular point group: c1

    Geometry (in Angstrom), charge = 0, multiplicity = 1:

       Center              X                  Y                   Z               Mass
    ------------   -----------------  -----------------  -----------------  -----------------
           H         -4.000530886190    -0.623434233794     0.172721152009     1.007825032070
           C         -2.936424886190    -0.467029233794     0.172751152009    12.000000000000
           C         -2.427332886190     0.822921766206     0.172847152009    12.000000000000
           C         -2.078607886190    -1.555644233794     0.172693152009    12.000000000000
           H         -3.093710886190     1.666311766206     0.172892152009     1.007825032070
           C         -1.058990886190     1.023228766206     0.172885152009    12.000000000000
           H         -2.475073886190    -2.554854233794     0.172617152009     1.007825032070
           C         -0.708524886190    -1.357538233794     0.172730152009    12.000000000000
           H         -0.647306886190     2.014282766206     0.172961152009     1.007825032070
           C         -0.195150886190    -0.065946233794     0.172827152009    12.000000000000
           H         -0.041022886190    -2.197039233794     0.172684152009     1.007825032070
           C          1.270416113810     0.203813766206     0.172875152009    12.000000000000
           O          1.780988113810     0.297872766206    -1.045759847991    15.994914619560
           O          1.924954113810     0.324222766206     1.160772152009    15.994914619560
           C          3.171107113810     0.553876766206    -1.139055847991    12.000000000000
           H          3.414961113810     1.494769766206    -0.667833847991     1.007825032070
           H          3.392161113810     0.594284766206    -2.194212847991     1.007825032070
           H          3.734183113810    -0.238106233794    -0.667222847991     1.007825032070

  Charge       = 0
  Multiplicity = 1
  Basis Set: 6-31G*
  Basis Set:

    Orbital Energies (a.u.)
    -----------------------

    Doubly Occupied:

       1A    -20.609827     2A    -20.550398     3A    -11.380835
       4A    -11.283321     5A    -11.252349     6A    -11.245023
       7A    -11.243860     8A    -11.241112     9A    -11.240295
      10A    -11.239372    11A     -1.474907    12A     -1.366101
      13A     -1.166676    14A     -1.049475    15A     -1.026600
      16A     -0.979606    17A     -0.861376    18A     -0.839105
      19A     -0.780276    20A     -0.738091    21A     -0.686370
      22A     -0.680114    23A     -0.676079    24A     -0.631737
      25A     -0.629851    26A     -0.598523    27A     -0.591387
      28A     -0.546509    29A     -0.536591    30A     -0.517232
      31A     -0.508336    32A     -0.501743    33A     -0.458826
      34A     -0.445530    35A     -0.343578    36A     -0.341467

  @DF-RHF Final Energy:  -457.33761280464910

   => Energetics <=

    Nuclear Repulsion Energy =            491.5222697798471927
    One-Electron Energy =               -1597.1949588337574824
    Two-Electron Energy =                 648.3350762492616468
    DFT Exchange-Correlation Energy =       0.0000000000000000
    Empirical Dispersion Energy =           0.0000000000000000
    PCM Polarization Energy =               0.0000000000000000
    EFP Energy =                            0.0000000000000000
    Total Energy =                       -457.3376128046486429

  Mulliken Charges: (a.u.)
   Center  Symbol    Alpha    Beta     Spin     Total
       1     H     0.39667  0.39667  0.00000  0.20666
       2     C     3.09794  3.09794  0.00000 -0.19588
       3     C     3.09902  3.09902  0.00000 -0.19805
       4     C     3.09995  3.09995  0.00000 -0.19990
       5     H     0.39546  0.39546  0.00000  0.20908
       6     C     3.09805  3.09805  0.00000 -0.19609
       7     H     0.39535  0.39535  0.00000  0.20929
       8     C     3.09761  3.09761  0.00000 -0.19521
       9     H     0.39108  0.39108  0.00000  0.21783
      10     C     3.00685  3.00685  0.00000 -0.01369
      11     H     0.39120  0.39120  0.00000  0.21760
      12     C     2.64353  2.64353  0.00000  0.71294
      13     O     4.29558  4.29558  0.00000 -0.59116
      14     O     4.27501  4.27501  0.00000 -0.55002
      15     C     3.09373  3.09373  0.00000 -0.18745
      16     H     0.40825  0.40825  0.00000  0.18351
      17     H     0.40659  0.40659  0.00000  0.18682
      18     H     0.40814  0.40814  0.00000  0.18372

   Total alpha = 36.00000, Total beta = 36.00000, Total charge = -0.00000
