                              Psi4 1.0.54 Driver

  ==> Input File <==

--------------------------------------------------------------------------
set {
	reference rhf
	basis cc-pvtz
}

set_num_threads( 4 )
memory 2 gb

molecule MOL {
0 1

H	 1.061118	 0.067700	 -1.838504
C	 0.603756	 -0.484935	 -1.046073
C	 0.599960	 -1.865035	 -1.039520
C	 0.000000	 0.179985	 0.000046
H	 1.064188	 -2.400763	 -1.843884
C	 0.000003	 -2.552036	 -0.000009
N	 0.000000	 1.644631	 0.000076
C	 -0.603758	 -0.484978	 1.046137
H	 0.000000	 -3.625035	 -0.000032
C	 -0.599958	 -1.865078	 1.039529
O	 1.050559	 2.194174	 -0.000073
O	 -1.050559	 2.194174	 -0.000074
H	 -1.061111	 0.067625	 1.838595
H	 -1.064190	 -2.400838	 1.843870

	symmetry c1
}
set optking {
	frozen_dihedral = ("
		2 4 7 11
	")
}

ee,wfn = optimize('scf', return_wfn=True)
oeprop( wfn, 'DIPOLE', 'QUADRUPOLE', 'MULLIKEN_CHARGES')
f=open( 'psi4out.xyz', 'w' )
f.write( "14  " )
f.write( str(ee) + "\n" )
f.write( MOL.save_string_xyz() )
f.close()
--------------------------------------------------------------------------

    Molecular point group: c1
  Charge       = 0
  Multiplicity = 1
  Basis Set: CC-PVTZ
  Basis Set:
  @DF-RHF Final Energy:  -434.32292612465773
    Total Energy =                       -434.3229261246577835
    Molecular point group: c1
  Basis Set: CC-PVTZ
  Basis Set:
  Basis Set: CC-PVTZ
  Basis Set:
  @DF-RHF Final Energy:  -434.31659235576080
    Total Energy =                       -434.3165923557608039
  Basis Set: CC-PVTZ
  Basis Set:
  Basis Set: CC-PVTZ
  Basis Set:
  @DF-RHF Final Energy:  -434.32218919082857
    Total Energy =                       -434.3221891908286807
  Basis Set: CC-PVTZ
  Basis Set:
  Basis Set: CC-PVTZ
  Basis Set:
  @DF-RHF Final Energy:  -434.32328781656258
    Total Energy =                       -434.3232878165630382
  Basis Set: CC-PVTZ
  Basis Set:
  Basis Set: CC-PVTZ
  Basis Set:
  @DF-RHF Final Energy:  -434.32330472785009
    Total Energy =                       -434.3233047278504273
  Basis Set: CC-PVTZ
  Basis Set:
  Basis Set: CC-PVTZ
  Basis Set:
  @DF-RHF Final Energy:  -434.32341125847660
    Total Energy =                       -434.3234112584766535
  Basis Set: CC-PVTZ
  Basis Set:
  Charge       = 0
  Multiplicity = 1
  Basis Set: CC-PVTZ
  Basis Set:

    Orbital Energies (a.u.)
    -----------------------

    Doubly Occupied:

       1A    -20.596463     2A    -20.596406     3A    -15.847786
       4A    -11.306370     5A    -11.267886     6A    -11.267607
       7A    -11.261157     8A    -11.260073     9A    -11.259305
      10A     -1.643998    11A     -1.427052    12A     -1.206335
      13A     -1.096836    14A     -1.056679    15A     -0.959401
      16A     -0.873348    17A     -0.830663    18A     -0.786598
      19A     -0.740484    20A     -0.737114    21A     -0.716994
      22A     -0.653996    23A     -0.650954    24A     -0.626086
      25A     -0.560503    26A     -0.550006    27A     -0.533643
      28A     -0.498594    29A     -0.487801    30A     -0.457858
      31A     -0.373114    32A     -0.370439

  @DF-RHF Final Energy:  -434.32341154348853

   => Energetics <=

    Nuclear Repulsion Energy =            417.6994663631750200
    One-Electron Energy =               -1419.0426588352211184
    Two-Electron Energy =                 567.0197809285577932
    DFT Exchange-Correlation Energy =       0.0000000000000000
    Empirical Dispersion Energy =           0.0000000000000000
    PCM Polarization Energy =               0.0000000000000000
    EFP Energy =                            0.0000000000000000
    Total Energy =                       -434.3234115434883051
    Molecular point group: c1
  Basis Set: CC-PVTZ
  Basis Set:

  -Total Gradient:
     Atom            X                  Y                   Z
    ------   -----------------  -----------------  -----------------
       1       -0.000006284205    -0.000001550533    -0.000000332612
       2       -0.004183914490    -0.000082588668    -0.002209791038
       3       -0.000007281969     0.000020082898    -0.000023365215
       4        0.006179239876     0.000088755700     0.005247708708
       5       -0.000005267671    -0.000002119962    -0.000002482564
       6        0.000008307975    -0.000002778994     0.000030331559
       7       -0.002152124546    -0.000070321811    -0.008459922787
       8        0.000049283651     0.000028756194     0.000012113491
       9        0.000003326177     0.000000222308    -0.000000854240
      10       -0.000026051735    -0.000018743643    -0.000038289891
      11        0.000161299718     0.000010312076     0.005449536400
      12       -0.000011421646     0.000026831328    -0.000002779341
      13       -0.000004998913    -0.000001303444    -0.000001357163
      14       -0.000004112219     0.000004446551    -0.000000515305

  **** Optimization is complete! (in 7 steps) ****
    Final optimized geometry and variables:
    Molecular point group: c1

    Geometry (in Angstrom), charge = 0, multiplicity = 1:

    H            1.062319980547     0.072298832937    -1.844622766961
    C            0.596999731823    -0.479897853639    -1.053195456929
    C            0.556139997500    -1.860478877392    -1.065558257523
    C            0.031070631004     0.178517667275     0.012670017868
    H            0.985473970399    -2.396907797053    -1.888752038977
    C           -0.034990786542    -2.546027782728    -0.020739514455
    N            0.018093227960     1.641546678474     0.003002875286
    C           -0.593584606304    -0.476447604936     1.047909737299
    H           -0.056957552750    -3.618459578259    -0.031185620370
    C           -0.604209991210    -1.857157026597     1.034693208552
    O            1.066553512488     2.192109681216    -0.044281894597
    O           -1.037719101993     2.173799310234     0.080127218434
    H           -1.055001531320     0.078403887167     1.839456578890
    H           -1.066477046958    -2.391871127270     1.841012666722

  Mulliken Charges: (a.u.)
   Center  Symbol    Alpha    Beta     Spin     Total
       1     H     0.41035  0.41035  0.00000  0.17930
       2     C     3.08767  3.08767  0.00000 -0.17534
       3     C     3.06681  3.06681  0.00000 -0.13362
       4     C     2.93021  2.93021  0.00000  0.13957
       5     H     0.41731  0.41731  0.00000  0.16537
       6     C     3.07309  3.07309  0.00000 -0.14618
       7     N     3.28360  3.28360  0.00000  0.43280
       8     C     3.08631  3.08631  0.00000 -0.17262
       9     H     0.41773  0.41773  0.00000  0.16455
      10     C     3.06627  3.06627  0.00000 -0.13255
      11     O     4.16659  4.16659  0.00000 -0.33317
      12     O     4.16629  4.16629  0.00000 -0.33258
      13     H     0.41049  0.41049  0.00000  0.17902
      14     H     0.41727  0.41727  0.00000  0.16545

   Total alpha = 32.00000, Total beta = 32.00000, Total charge = -0.00000

*** Psi4 exiting successfully. Buy a developer a beer!
