  ==> Input File <==

--------------------------------------------------------------------------
set {
	reference rhf
	basis 6-31G*
}

set_num_threads( 4 )
memory 2 gb

molecule MOL {
0 1

H	 1.486565	 -1.789721	 0.628789
O	 0.813747	 -1.212408	 0.297555
C	 1.135793	 0.118896	 0.612333
C	 0.031547	 1.023609	 0.088541
H	 2.080035	 0.401612	 0.150415
H	 1.252878	 0.239282	 1.686995
C	 -1.134819	 0.293262	 -0.585751
H	 0.474374	 1.714721	 -0.623187
H	 -0.338529	 1.620940	 0.920081
C	 -1.917817	 -0.639439	 0.339494
H	 -0.758119	 -0.268455	 -1.433105
H	 -1.813832	 1.041889	 -0.986690
H	 -2.777680	 -1.057197	 -0.174994
H	 -1.310268	 -1.471279	 0.680599
H	 -2.283753	 -0.111424	 1.216626

	symmetry c1
}
set optking {
	frozen_dihedral = ("
		2 3 4 8
	")
}

ee = optimize('scf')
oeprop('DIPOLE', 'QUADRUPOLE', 'MULLIKEN_CHARGES')
f=open( 'psi4out.xyz', 'w' )
f.write( "15  " )
f.write( str(ee) + "\n" )
f.write( MOL.save_string_xyz() )
f.close()
--------------------------------------------------------------------------

    Molecular point group: c1
  Charge       = 0
  Multiplicity = 1
  Basis Set: 6-31G*
  Basis Set:
  @DF-RHF Final Energy:  -232.13126781621119
    Total Energy =                       -232.1312678162112206
    Molecular point group: c1
  Basis Set: 6-31G*
  Basis Set:
  Basis Set: 6-31G*
  Basis Set:
  @DF-RHF Final Energy:  -232.13472919941913
    Total Energy =                       -232.1347291994193824
  Basis Set: 6-31G*
  Basis Set:
  Basis Set: 6-31G*
  Basis Set:
  @DF-RHF Final Energy:  -232.13535542908019
    Total Energy =                       -232.1353554290800503
  Basis Set: 6-31G*
  Basis Set:
  Basis Set: 6-31G*
  Basis Set:
  @DF-RHF Final Energy:  -232.13549828934333
    Total Energy =                       -232.1354982893433316
  Basis Set: 6-31G*
  Basis Set:
  Basis Set: 6-31G*
  Basis Set:
  @DF-RHF Final Energy:  -232.13551412079755
    Total Energy =                       -232.1355141207974953
  Basis Set: 6-31G*
  Basis Set:
  Basis Set: 6-31G*
  Basis Set:
  @DF-RHF Final Energy:  -232.13551610304395
    Total Energy =                       -232.1355161030440399
  Basis Set: 6-31G*
  Basis Set:
  Charge       = 0
  Multiplicity = 1
  Basis Set: 6-31G*
  Basis Set:

    Orbital Energies (a.u.)
    -----------------------

    Doubly Occupied:

       1A    -20.554454     2A    -11.269720     3A    -11.213393
       4A    -11.206069     5A    -11.194193     6A     -1.360906
       7A     -1.056767     8A     -0.966212     9A     -0.862864
      10A     -0.773911    11A     -0.702666    12A     -0.647629
      13A     -0.605881    14A     -0.572409    15A     -0.552068
      16A     -0.528371    17A     -0.505956    18A     -0.474702
      19A     -0.461508    20A     -0.447997    21A     -0.424093

  @DF-RHF Final Energy:  -232.13551649126842

   => Energetics <=

    Nuclear Repulsion Energy =            193.0557824524964587
    One-Electron Energy =                -697.6190555409779108
    Two-Electron Energy =                 272.4277565972130333
    DFT Exchange-Correlation Energy =       0.0000000000000000
    Empirical Dispersion Energy =           0.0000000000000000
    PCM Polarization Energy =               0.0000000000000000
    EFP Energy =                            0.0000000000000000
    Total Energy =                       -232.1355164912683904
    Molecular point group: c1
  Basis Set: 6-31G*
  Basis Set:

  -Total Gradient:
     Atom            X                  Y                   Z
    ------   -----------------  -----------------  -----------------
       1       -0.000005299381     0.000027492651     0.000003117765
       2       -0.000921018125    -0.000381512193     0.001538838096
       3        0.001291076041     0.000726032491    -0.001664890727
       4       -0.000677287363    -0.001843607181    -0.001746586627
       5        0.000008783833     0.000016665066     0.000007156790
       6        0.000005265726     0.000037098673     0.000002050800
       7       -0.000010912574    -0.000001345459     0.000033648533
       8        0.000339508882     0.001441865240     0.001871499524
       9       -0.000011516057     0.000011893088    -0.000029864848
      10        0.000054675517    -0.000071657661     0.000035786637
      11       -0.000013430993    -0.000006163583    -0.000007630397
      12        0.000005266754    -0.000008436050     0.000021456311
      13       -0.000017382420    -0.000016253853     0.000000798370
      14       -0.000060497591     0.000066651645    -0.000033803381
      15        0.000012767745     0.000001277124    -0.000031576845

  **** Optimization is complete! (in 7 steps) ****
    Final optimized geometry and variables:
    Molecular point group: c1

    Geometry (in Angstrom), charge = 0, multiplicity = 1:

    H            1.905808978385    -1.615021442692     0.343709310460
    O            1.164209262493    -1.103313023685     0.053837170958
    C            1.347531745331     0.235894115276     0.443093041060
    C            0.169322945001     1.116193885591    -0.031719452389
    H            2.277363182661     0.615763309036     0.026883500880
    H            1.436895834012     0.291755909292     1.525321366680
    C           -0.983452862969     0.390276711989    -0.736898114504
    H            0.559300113822     1.888292315277    -0.688545477333
    H           -0.234116668325     1.648703856170     0.826045703803
    C           -1.871385461744    -0.425705349155     0.202935738573
    H           -0.591096763332    -0.249655803593    -1.518203293763
    H           -1.594020637231     1.144850168885    -1.227439524600
    H           -2.684756065122    -0.893063011122    -0.344799379182
    H           -1.307314748212    -1.207466667240     0.695068598778
    H           -2.313767152113     0.208982228041     0.967167910953

  Mulliken Charges: (a.u.)
   Center  Symbol    Alpha    Beta     Spin     Total
       1     H     0.28022  0.28022  0.00000  0.43956
       2     O     4.37101  4.37101  0.00000 -0.74202
       3     C     2.99214  2.99214  0.00000  0.01571
       4     C     3.17667  3.17667  0.00000 -0.35334
       5     H     0.42927  0.42927  0.00000  0.14146
       6     H     0.42972  0.42972  0.00000  0.14057
       7     C     3.14518  3.14518  0.00000 -0.29037
       8     H     0.41829  0.41829  0.00000  0.16341
       9     H     0.42051  0.42051  0.00000  0.15897
      10     C     3.24162  3.24162  0.00000 -0.48323
      11     H     0.41027  0.41027  0.00000  0.17946
      12     H     0.42535  0.42535  0.00000  0.14930
      13     H     0.42326  0.42326  0.00000  0.15348
      14     H     0.40781  0.40781  0.00000  0.18438
      15     H     0.42867  0.42867  0.00000  0.14266

   Total alpha = 21.00000, Total beta = 21.00000, Total charge = -0.00000
