                              Psi4 1.0.54 Driver

  ==> Input File <==

--------------------------------------------------------------------------
set {
	reference rhf
	basis cc-pvtz
}

set_num_threads( 4 )
memory 2 gb

molecule MOL {
0 1

H	 -1.804109	 -0.942663	 -1.098582
O	 -2.321472	 -0.864941	 -0.318626
C	 -2.021813	 0.336996	 0.342658
C	 -0.669613	 0.837286	 -0.127252
H	 -2.780861	 1.084746	 0.127159
H	 -2.006390	 0.184138	 1.420053
C	 0.490865	 -0.082543	 0.241244
H	 -0.708709	 0.967192	 -1.204587
H	 -0.507562	 1.822272	 0.303070
C	 1.839800	 0.429565	 -0.255472
H	 0.305636	 -1.070211	 -0.165276
H	 0.527397	 -0.195943	 1.322876
C	 3.001144	 -0.485193	 0.119072
H	 1.804373	 0.541073	 -1.335756
H	 2.020437	 1.423114	 0.146921
H	 2.866892	 -1.477297	 -0.298806
H	 3.943543	 -0.095749	 -0.249061
H	 3.085064	 -0.590459	 1.195790

	symmetry c1
}
set optking {
	frozen_dihedral = ("
		1 2 3 4
	")
}

ee,wfn = optimize('scf', return_wfn=True)
oeprop( wfn, 'DIPOLE', 'QUADRUPOLE', 'MULLIKEN_CHARGES')
f=open( 'psi4out.xyz', 'w' )
f.write( "18  " )
f.write( str(ee) + "\n" )
f.write( MOL.save_string_xyz() )
f.close()
--------------------------------------------------------------------------

    Molecular point group: c1
  Charge       = 0
  Multiplicity = 1
  Basis Set: CC-PVTZ
  Basis Set:
  @DF-RHF Final Energy:  -271.28275866643571
    Total Energy =                       -271.2827586664358250
    Molecular point group: c1
  Basis Set: CC-PVTZ
  Basis Set:
  Basis Set: CC-PVTZ
  Basis Set:
  @DF-RHF Final Energy:  -271.21096745105456
    Total Energy =                       -271.2109674510541595
  Basis Set: CC-PVTZ
  Basis Set:
  Basis Set: CC-PVTZ
  Basis Set:
  @DF-RHF Final Energy:  -271.27808667335466
    Total Energy =                       -271.2780866733547782
  Basis Set: CC-PVTZ
  Basis Set:
  Basis Set: CC-PVTZ
  Basis Set:
  @DF-RHF Final Energy:  -271.28437456847314
    Total Energy =                       -271.2843745684730834
  Basis Set: CC-PVTZ
  Basis Set:
  Basis Set: CC-PVTZ
  Basis Set:
  @DF-RHF Final Energy:  -271.28449961267285
    Total Energy =                       -271.2844996126726755
  Basis Set: CC-PVTZ
  Basis Set:
  Basis Set: CC-PVTZ
  Basis Set:
  @DF-RHF Final Energy:  -271.28451152462992
    Total Energy =                       -271.2845115246298064
  Basis Set: CC-PVTZ
  Basis Set:
  Charge       = 0
  Multiplicity = 1
  Basis Set: CC-PVTZ
  Basis Set:

    Orbital Energies (a.u.)
    -----------------------

    Doubly Occupied:

       1A    -20.543666     2A    -11.264984     3A    -11.221546
       4A    -11.218229     5A    -11.217184     6A    -11.209870
       7A     -1.361947     8A     -1.085121     9A     -1.014914
      10A     -0.921769    11A     -0.835362    12A     -0.797920
      13A     -0.665182    14A     -0.657382    15A     -0.635886
      16A     -0.612755    17A     -0.577145    18A     -0.557564
      19A     -0.543235    20A     -0.498563    21A     -0.493409
      22A     -0.479634    23A     -0.469656    24A     -0.457578
      25A     -0.428686

  @DF-RHF Final Energy:  -271.28451173866051

   => Energetics <=

    Nuclear Repulsion Energy =            249.1400493080390106
    One-Electron Energy =                -861.3107596407085111
    Two-Electron Energy =                 340.8861985940090449
    DFT Exchange-Correlation Energy =       0.0000000000000000
    Empirical Dispersion Energy =           0.0000000000000000
    PCM Polarization Energy =               0.0000000000000000
    EFP Energy =                            0.0000000000000000
    Total Energy =                       -271.2845117386604556
    Molecular point group: c1
  Basis Set: CC-PVTZ
  Basis Set:

  -Total Gradient:
     Atom            X                  Y                   Z
    ------   -----------------  -----------------  -----------------
       1        0.001273614501    -0.001226954847     0.001060545142
       2       -0.001815866624     0.001745624975    -0.001728705932
       3        0.001032875341    -0.001230283569     0.001623408796
       4       -0.000536581280     0.000685314780    -0.000964589647
       5        0.000025759111     0.000018191816     0.000005561153
       6        0.000019126678     0.000002289143    -0.000017396791
       7        0.000021258074    -0.000000281952     0.000021881697
       8       -0.000008058660     0.000004083179     0.000015463820
       9        0.000020222138     0.000004867925    -0.000004447398
      10       -0.000017284896    -0.000002689450    -0.000013275228
      11       -0.000000982664    -0.000003567595    -0.000002822643
      12        0.000001849690     0.000005580590    -0.000001261159
      13       -0.000007910791    -0.000009015895     0.000003116094
      14        0.000000713242     0.000004833181    -0.000003249568
      15       -0.000004264674    -0.000003745214     0.000008689006
      16        0.000000600152    -0.000000131284    -0.000000731436
      17       -0.000004544946     0.000003341578    -0.000003015498
      18       -0.000000524389     0.000002542640     0.000000829592

  **** Optimization is complete! (in 7 steps) ****
    Final optimized geometry and variables:
    Molecular point group: c1

    Geometry (in Angstrom), charge = 0, multiplicity = 1:

    H           -2.319892374954    -0.512994992132    -0.557196249100
    O           -2.578118665679    -0.099255819753     0.244983809538
    C           -1.747467323928     0.999958832961     0.520504036942
    C           -0.416702424886     0.963009969586    -0.214132279759
    H           -2.271932837362     1.915009620874     0.261186768362
    H           -1.582450359214     1.013587619593     1.591746941971
    C            0.493204924047    -0.195224478832     0.189860462695
    H           -0.607648026097     0.928370733890    -1.285850187473
    H            0.093368508195     1.904340379708    -0.030249137715
    C            1.812683522839    -0.217780611306    -0.576561097324
    H           -0.022198653750    -1.139704791674     0.042073652344
    H            0.696726179311    -0.129024306046     1.255635126344
    C            2.723776658406    -1.369311945394    -0.165133867396
    H            1.608525588625    -0.283466467972    -1.641988166321
    H            2.332357387111     0.724422509759    -0.424929553971
    H            2.244926074538    -2.327598099389    -0.336556634554
    H            3.650127208534    -1.357260320883    -0.727704893699
    H            2.975743120503    -1.311409639328     0.888444347149

  Mulliken Charges: (a.u.)
   Center  Symbol    Alpha    Beta     Spin     Total
       1     H     0.39267  0.39267  0.00000  0.21466
       2     O     4.20774  4.20774  0.00000 -0.41548
       3     C     2.95759  2.95759  0.00000  0.08483
       4     C     3.11489  3.11489  0.00000 -0.22978
       5     H     0.46434  0.46434  0.00000  0.07132
       6     H     0.46791  0.46791  0.00000  0.06419
       7     C     3.08544  3.08544  0.00000 -0.17087
       8     H     0.45466  0.45466  0.00000  0.09069
       9     H     0.44987  0.44987  0.00000  0.10026
      10     C     3.08384  3.08384  0.00000 -0.16768
      11     H     0.45256  0.45256  0.00000  0.09489
      12     H     0.45258  0.45258  0.00000  0.09484
      13     C     3.14947  3.14947  0.00000 -0.29893
      14     H     0.45490  0.45490  0.00000  0.09020
      15     H     0.45440  0.45440  0.00000  0.09119
      16     H     0.45479  0.45479  0.00000  0.09043
      17     H     0.44805  0.44805  0.00000  0.10390
      18     H     0.45433  0.45433  0.00000  0.09135

   Total alpha = 25.00000, Total beta = 25.00000, Total charge = -0.00000

*** Psi4 exiting successfully. Buy a developer a beer!
