  ==> Input File <==

--------------------------------------------------------------------------
set {
	reference rhf
	basis 6-31G*
}

set_num_threads( 4 )
memory 2 gb

molecule MOL {
0 1

H	 2.241265	 0.629596	 -0.705243
O	 2.064459	 -0.086912	 -0.111827
C	 0.745630	 0.005118	 0.354752
H	 0.739005	 0.037656	 1.444976
C	 -0.064159	 -1.194875	 -0.122754
C	 -0.046302	 1.193543	 -0.190431
H	 0.197384	 -1.376065	 -1.160690
H	 0.162855	 -2.097978	 0.431858
C	 -1.535782	 -0.752177	 0.006642
H	 0.154512	 1.271315	 -1.255561
H	 0.226209	 2.140461	 0.267302
C	 -1.509193	 0.801505	 0.065617
H	 -2.127797	 -1.112194	 -0.826847
H	 -1.986849	 -1.158408	 0.905561
H	 -2.183670	 1.254107	 -0.651985
H	 -1.821727	 1.144320	 1.047089

	symmetry c1
}
set optking {
	frozen_dihedral = ("
		1 2 3 6
	")
}

ee = optimize('scf')
oeprop('DIPOLE', 'QUADRUPOLE', 'MULLIKEN_CHARGES')
f=open( 'psi4out.xyz', 'w' )
f.write( "16  " )
f.write( str(ee) + "\n" )
f.write( MOL.save_string_xyz() )
f.close()
--------------------------------------------------------------------------

    Molecular point group: c1
  Charge       = 0
  Multiplicity = 1
  Basis Set: 6-31G*
  Basis Set:
  @DF-RHF Final Energy:  -270.01121508597009
    Total Energy =                       -270.0112150859702069
    Molecular point group: c1
  Basis Set: 6-31G*
  Basis Set:
  Basis Set: 6-31G*
  Basis Set:
  @DF-RHF Final Energy:  -270.01177842460413
    Total Energy =                       -270.0117784246040173
  Basis Set: 6-31G*
  Basis Set:
  Basis Set: 6-31G*
  Basis Set:
  @DF-RHF Final Energy:  -270.01192652780037
    Total Energy =                       -270.0119265278004832
  Basis Set: 6-31G*
  Basis Set:
  Basis Set: 6-31G*
  Basis Set:
  @DF-RHF Final Energy:  -270.01193389575218
    Total Energy =                       -270.0119338957521791
  Basis Set: 6-31G*
  Basis Set:
  @DF-RHF Final Energy:  -270.01194032952918
    Total Energy =                       -270.0119403295293523
  Basis Set: 6-31G*
  Basis Set:
  @DF-RHF Final Energy:  -270.01194361773969
    Total Energy =                       -270.0119436177394618
  Basis Set: 6-31G*
  Basis Set:
  Basis Set: 6-31G*
  Basis Set:
  @DF-RHF Final Energy:  -270.01194626930942
    Total Energy =                       -270.0119462693093055
  Basis Set: 6-31G*
  Basis Set:
  Basis Set: 6-31G*
  Basis Set:
  @DF-RHF Final Energy:  -270.01194869550636
    Total Energy =                       -270.0119486955065895
  Basis Set: 6-31G*
  Basis Set:
  Charge       = 0
  Multiplicity = 1
  Basis Set: 6-31G*
  Basis Set:

    Orbital Energies (a.u.)
    -----------------------

    Doubly Occupied:

       1A    -20.549422     2A    -11.268342     3A    -11.221078
       4A    -11.220448     5A    -11.216892     6A    -11.207921
       7A     -1.358825     8A     -1.115780     9A     -0.969159
      10A     -0.948952    11A     -0.800375    12A     -0.780239
      13A     -0.681250    14A     -0.665735    15A     -0.605886
      16A     -0.600815    17A     -0.575988    18A     -0.532322
      19A     -0.501796    20A     -0.485323    21A     -0.473001
      22A     -0.459739    23A     -0.447636    24A     -0.417314

  @DF-RHF Final Energy:  -270.01194927853282

   => Energetics <=

    Nuclear Repulsion Energy =            255.0789425897459921
    One-Electron Energy =                -871.9733089839455715
    Two-Electron Energy =                 346.8824171156666694
    DFT Exchange-Correlation Energy =       0.0000000000000000
    Empirical Dispersion Energy =           0.0000000000000000
    PCM Polarization Energy =               0.0000000000000000
    EFP Energy =                            0.0000000000000000
    Total Energy =                       -270.0119492785328816
    Molecular point group: c1
  Basis Set: 6-31G*
  Basis Set:

  -Total Gradient:
     Atom            X                  Y                   Z
    ------   -----------------  -----------------  -----------------
       1        0.000051102621     0.000099959577     0.000149992957
       2       -0.000076083685    -0.000147709725    -0.000233791628
       3        0.000061100525     0.000130252579     0.000180263407
       4        0.000002138919    -0.000008917772     0.000000245849
       5        0.000001191900     0.000008409435    -0.000000061584
       6       -0.000040159755    -0.000061282214    -0.000098450190
       7        0.000001512637    -0.000024383548     0.000004724078
       8        0.000000111194     0.000011766406     0.000021364519
       9        0.000003149483     0.000001177919     0.000010215360
      10        0.000000342244    -0.000021749914    -0.000003094788
      11       -0.000002037069     0.000008829501    -0.000018662179
      12       -0.000003640805     0.000004443565    -0.000010731724
      13        0.000023187485     0.000017002440    -0.000027494785
      14       -0.000030166388    -0.000015752664    -0.000020737972
      15       -0.000021618793     0.000015292409     0.000028821516
      16        0.000029869487    -0.000017337994     0.000017397166

  **** Optimization is complete! (in 9 steps) ****
    Final optimized geometry and variables:
    Molecular point group: c1

    Geometry (in Angstrom), charge = 0, multiplicity = 1:

    H            2.296364567800     0.664993745437    -0.621194077955
    O            2.089833327332    -0.068532807952    -0.061420734834
    C            0.746978632833    -0.005710805442     0.345256879076
    H            0.734108895082     0.020568405252     1.432476640163
    C           -0.073935099820    -1.198438842555    -0.141078019416
    C           -0.042982393939     1.187904282475    -0.189377535571
    H            0.156994247442    -1.359005576909    -1.190385193934
    H            0.165881558145    -2.114231541230     0.387084075260
    C           -1.538396318036    -0.755399438687     0.039594044361
    H            0.146156383947     1.277739453126    -1.258587641436
    H            0.236093392260     2.128361940834     0.275357007092
    C           -1.509020830123     0.799987720205     0.061615954592
    H           -2.169196508821    -1.136074292138    -0.755378966999
    H           -1.946310170166    -1.137352927505     0.969282552816
    H           -2.173416024450     1.236248541274    -0.675082039855
    H           -1.830803933016     1.168943401936     1.029892329758

  Mulliken Charges: (a.u.)
   Center  Symbol    Alpha    Beta     Spin     Total
       1     H     0.27926  0.27926  0.00000  0.44149
       2     O     4.38356  4.38356  0.00000 -0.76713
       3     C     2.89601  2.89601  0.00000  0.20798
       4     H     0.42401  0.42401  0.00000  0.15198
       5     C     3.16537  3.16537  0.00000 -0.33073
       6     C     3.18804  3.18804  0.00000 -0.37607
       7     H     0.41827  0.41827  0.00000  0.16345
       8     H     0.41211  0.41211  0.00000  0.17579
       9     C     3.17041  3.17041  0.00000 -0.34082
      10     H     0.42300  0.42300  0.00000  0.15400
      11     H     0.41310  0.41310  0.00000  0.17380
      12     C     3.16710  3.16710  0.00000 -0.33420
      13     H     0.41450  0.41450  0.00000  0.17100
      14     H     0.41596  0.41596  0.00000  0.16808
      15     H     0.41377  0.41377  0.00000  0.17245
      16     H     0.41553  0.41553  0.00000  0.16894

   Total alpha = 24.00000, Total beta = 24.00000, Total charge = -0.00000
