  ==> Input File <==

--------------------------------------------------------------------------
set {
	reference rhf
	basis 6-31G*
}

set_num_threads( 4 )
memory 2 gb

molecule MOL {
0 1

O	 3.225979	 0.970355	 -0.599647
C	 2.701189	 0.057885	 -0.047330
C	 1.245376	 -0.013843	 0.345420
O	 3.347903	 -1.046386	 0.304773
C	 0.455112	 1.231400	 -0.050772
H	 0.838542	 -0.913825	 -0.103701
H	 1.208210	 -0.175333	 1.419774
C	 -0.998893	 1.219485	 0.433193
H	 0.482531	 1.345121	 -1.130325
H	 0.957290	 2.103070	 0.354729
C	 -1.883438	 0.145884	 -0.207175
H	 -1.431207	 2.195402	 0.224832
H	 -1.019646	 1.105716	 1.516076
C	 -3.312373	 0.148327	 0.339762
H	 -1.910694	 0.300857	 -1.284700
H	 -1.449512	 -0.839164	 -0.051097
C	 -4.203958	 -0.923865	 -0.289216
H	 -3.758841	 1.127542	 0.175324
H	 -3.285210	 0.004123	 1.418727
C	 -5.630256	 -0.912190	 0.259636
H	 -4.231408	 -0.781847	 -1.367510
H	 -3.761565	 -1.903736	 -0.122119
H	 -6.237354	 -1.682903	 -0.205164
H	 -6.112784	 0.043832	 0.076925
H	 -5.639164	 -1.086092	 1.331995
C	 4.728119	 -1.109107	 -0.004993
H	 4.882018	 -1.033965	 -1.071845
H	 5.068212	 -2.067527	 0.355250
H	 5.265056	 -0.311663	 0.488280

	symmetry c1
}
set optking {
	frozen_dihedral = ("
		15 11 8 5
	")
}

ee = optimize('scf')
oeprop('DIPOLE', 'QUADRUPOLE', 'MULLIKEN_CHARGES')
f=open( 'psi4out.xyz', 'w' )
f.write( "29  " )
f.write( str(ee) + "\n" )
f.write( MOL.save_string_xyz() )
f.close()
--------------------------------------------------------------------------

    Molecular point group: c1
  Charge       = 0
  Multiplicity = 1
  Basis Set: 6-31G*
  Basis Set:
  @DF-RHF Final Energy:  -501.04396543791108
    Total Energy =                       -501.0439654379108561
    Molecular point group: c1
  Basis Set: 6-31G*
  Basis Set:
  Basis Set: 6-31G*
  Basis Set:
  @DF-RHF Final Energy:  -501.04382819610964
    Total Energy =                       -501.0438281961097573
  Basis Set: 6-31G*
  Basis Set:
  Basis Set: 6-31G*
  Basis Set:
  @DF-RHF Final Energy:  -501.04399280917744
    Total Energy =                       -501.0439928091777801
  Basis Set: 6-31G*
  Basis Set:
  Charge       = 0
  Multiplicity = 1
  Basis Set: 6-31G*
  Basis Set:

    Orbital Energies (a.u.)
    -----------------------

    Doubly Occupied:

       1A    -20.603410     2A    -20.545233     3A    -11.372062
       4A    -11.280691     5A    -11.234824     6A    -11.219116
       7A    -11.217687     8A    -11.215934     9A    -11.215810
      10A    -11.214375    11A    -11.209058    12A     -1.469111
      13A     -1.362556    14A     -1.097977    15A     -1.066834
      16A     -1.019549    17A     -0.977271    18A     -0.928525
      19A     -0.861368    20A     -0.799257    21A     -0.790405
      22A     -0.764058    23A     -0.700999    24A     -0.682310
      25A     -0.672232    26A     -0.650520    27A     -0.628892
      28A     -0.604768    29A     -0.595380    30A     -0.580675
      31A     -0.566925    32A     -0.549193    33A     -0.532285
      34A     -0.530341    35A     -0.515608    36A     -0.511154
      37A     -0.497357    38A     -0.477554    39A     -0.470261
      40A     -0.462457    41A     -0.458995    42A     -0.455706
      43A     -0.440959    44A     -0.435408

  @DF-RHF Final Energy:  -501.04399210369559

   => Energetics <=

    Nuclear Repulsion Energy =            610.2175808437585829
    One-Electron Energy =               -1891.5529644592327259
    Two-Electron Energy =                 780.2913915117781016
    DFT Exchange-Correlation Energy =       0.0000000000000000
    Empirical Dispersion Energy =           0.0000000000000000
    PCM Polarization Energy =               0.0000000000000000
    EFP Energy =                            0.0000000000000000
    Total Energy =                       -501.0439921036961550
    Molecular point group: c1
  Basis Set: 6-31G*
  Basis Set:

  -Total Gradient:
     Atom            X                  Y                   Z
    ------   -----------------  -----------------  -----------------
       1       -0.000120098432    -0.000225063855    -0.000454995739
       2        0.000318201216     0.000631565161     0.001249909842
       3       -0.000069754775    -0.000171111577    -0.000363315942
       4       -0.000106306863    -0.000172003528    -0.000350460141
       5        0.000231379562    -0.000590560377     0.000546086526
       6       -0.000057785735    -0.000002110221     0.000026774556
       7        0.000095200864     0.000002312800    -0.000040891803
       8       -0.000526429453     0.000913641768    -0.000785593009
       9        0.000009889581     0.000000504100    -0.000025977316
      10       -0.000002066498    -0.000016021354    -0.000011848447
      11        0.001193755449    -0.001053609263     0.000071138149
      12       -0.000021440259    -0.000046659142     0.000034688843
      13        0.000021224109    -0.000007402774     0.000041194497
      14        0.000017378941     0.000040865051    -0.000068896325
      15       -0.000892720011     0.000701793213     0.000120446770
      16       -0.000077148004     0.000014952324     0.000002509238
      17        0.000007813255    -0.000034056450     0.000036341466
      18       -0.000025701924     0.000000469271    -0.000021646423
      19        0.000001470430     0.000032428510    -0.000004875160
      20        0.000003178411    -0.000006049290     0.000007996778
      21        0.000000808991     0.000010910816     0.000022455360
      22        0.000005868273    -0.000017500958    -0.000010394540
      23       -0.000000721142     0.000002037664    -0.000002482948
      24        0.000003837758     0.000003063632     0.000002602684
      25       -0.000003489530    -0.000004261587    -0.000001387605
      26       -0.000001757340    -0.000003720780    -0.000009400204
      27        0.000013894376    -0.000003079480    -0.000004033246
      28       -0.000003181787    -0.000003178763    -0.000007106524
      29       -0.000015299482     0.000001845091     0.000001160664

  **** Optimization is complete! (in 4 steps) ****
    Final optimized geometry and variables:
    Molecular point group: c1

    Geometry (in Angstrom), charge = 0, multiplicity = 1:

    O            3.205716170116     0.998036754853    -0.671098978953
    C            2.696004424078     0.096499579003    -0.087612471428
    C            1.244838263252     0.020755485564     0.321279778161
    O            3.355577329155    -0.994583147168     0.281345402167
    C            0.438938842362     1.248049000618    -0.098733230373
    H            0.843259018188    -0.894949212056    -0.099666977730
    H            1.220163293612    -0.112622753707     1.399788653473
    C           -1.011878648691     1.232894852138     0.395948191032
    H            0.459701913659     1.338284223451    -1.180744095643
    H            0.935267728816     2.133186051330     0.284130907284
    C           -1.903384249266     0.167724575666    -0.248843508191
    H           -1.447932691575     2.210642905750     0.206068322896
    H           -1.020435330217     1.104370831994     1.477528949797
    C           -3.331577834279     0.178292027307     0.301011139879
    H           -1.937117891460     0.336214842999    -1.324005975791
    H           -1.478049527401    -0.822193164622    -0.102956864564
    C           -4.236206862120    -0.874753916131    -0.341554550836
    H           -3.767640524893     1.164698136204     0.151646256646
    H           -3.304227306272     0.018222194162     1.377666703850
    C           -5.659681921165    -0.859218050558     0.214497468248
    H           -4.267568947711    -0.714229028894    -1.417103160966
    H           -3.802173021255    -1.861425869135    -0.193343871700
    H           -6.276527073944    -1.615418675612    -0.261190254475
    H           -6.133653306238     0.104626150418     0.051525283306
    H           -5.665205899506    -1.052471268454     1.283557557383
    C            4.732087891599    -1.054458520538    -0.045067911349
    H            4.871532769420    -1.002910875595    -1.115306559881
    H            5.084028136844    -2.001796688047     0.332659525260
    H            5.269336054145    -0.241944760610     0.422605254248

  Mulliken Charges: (a.u.)
   Center  Symbol    Alpha    Beta     Spin     Total
       1     O     4.28593  4.28593  0.00000 -0.57185
       2     C     2.60484  2.60484  0.00000  0.79031
       3     C     3.20950  3.20950  0.00000 -0.41899
       4     O     4.30747  4.30747  0.00000 -0.61494
       5     C     3.15385  3.15385  0.00000 -0.30771
       6     H     0.39895  0.39895  0.00000  0.20209
       7     H     0.40127  0.40127  0.00000  0.19747
       8     C     3.15681  3.15681  0.00000 -0.31362
       9     H     0.41297  0.41297  0.00000  0.17406
      10     H     0.40883  0.40883  0.00000  0.18235
      11     C     3.15469  3.15469  0.00000 -0.30938
      12     H     0.41794  0.41794  0.00000  0.16412
      13     H     0.42426  0.42426  0.00000  0.15149
      14     C     3.15042  3.15042  0.00000 -0.30084
      15     H     0.42228  0.42228  0.00000  0.15545
      16     H     0.42371  0.42371  0.00000  0.15258
      17     C     3.15141  3.15141  0.00000 -0.30282
      18     H     0.42343  0.42343  0.00000  0.15314
      19     H     0.42410  0.42410  0.00000  0.15180
      20     C     3.23933  3.23933  0.00000 -0.47866
      21     H     0.42279  0.42279  0.00000  0.15443
      22     H     0.42348  0.42348  0.00000  0.15304
      23     H     0.41923  0.41923  0.00000  0.16153
      24     H     0.42157  0.42157  0.00000  0.15687
      25     H     0.42185  0.42185  0.00000  0.15630
      26     C     3.09241  3.09241  0.00000 -0.18482
      27     H     0.40903  0.40903  0.00000  0.18194
      28     H     0.40851  0.40851  0.00000  0.18298
      29     H     0.40916  0.40916  0.00000  0.18168

   Total alpha = 44.00000, Total beta = 44.00000, Total charge =  0.00000
