  ==> Input File <==

--------------------------------------------------------------------------
set {
	reference rhf
	basis 6-31G*
}

set_num_threads( 4 )
memory 2 gb

molecule MOL {
0 1

H	 -2.422912	 -0.277489	 -0.768510
N	 -1.852125	 0.165761	 -0.074816
C	 -0.563778	 -0.502042	 0.037919
H	 -2.353518	 0.110400	 0.791381
C	 0.575259	 0.508231	 -0.048326
H	 -0.482092	 -1.204004	 -0.786564
H	 -0.460411	 -1.085169	 0.956626
C	 1.954651	 -0.143624	 0.035137
H	 0.475158	 1.060484	 -0.977307
H	 0.469181	 1.234488	 0.755973
H	 2.103292	 -0.853109	 -0.774172
H	 2.742821	 0.599562	 -0.030094
H	 2.083613	 -0.679371	 0.971560

	symmetry c1
}
set optking {
	frozen_dihedral = ("
		1 2 3 6
	")
}

ee = optimize('scf')
oeprop('DIPOLE', 'QUADRUPOLE', 'MULLIKEN_CHARGES')
f=open( 'psi4out.xyz', 'w' )
f.write( "13  " )
f.write( str(ee) + "\n" )
f.write( MOL.save_string_xyz() )
f.close()
--------------------------------------------------------------------------

    Molecular point group: c1
  Charge       = 0
  Multiplicity = 1
  Basis Set: 6-31G*
  Basis Set:
  @DF-RHF Final Energy:  -173.27890939421974
    Total Energy =                       -173.2789093942197383
    Molecular point group: c1
  Basis Set: 6-31G*
  Basis Set:
  Basis Set: 6-31G*
  Basis Set:
  @DF-RHF Final Energy:  -173.27936336620289
    Total Energy =                       -173.2793633662027446
  Basis Set: 6-31G*
  Basis Set:
  Basis Set: 6-31G*
  Basis Set:
  @DF-RHF Final Energy:  -173.27952161979897
    Total Energy =                       -173.2795216197990271
  Basis Set: 6-31G*
  Basis Set:
  Basis Set: 6-31G*
  Basis Set:
  @DF-RHF Final Energy:  -173.27952483894398
    Total Energy =                       -173.2795248389439848
  Basis Set: 6-31G*
  Basis Set:
  Basis Set: 6-31G*
  Basis Set:
  @DF-RHF Final Energy:  -173.27952646379785
    Total Energy =                       -173.2795264637979074
  Basis Set: 6-31G*
  Basis Set:
  Charge       = 0
  Multiplicity = 1
  Basis Set: 6-31G*
  Basis Set:

    Orbital Energies (a.u.)
    -----------------------

    Doubly Occupied:

       1A    -15.530429     2A    -11.240663     3A    -11.205957
       4A    -11.205043     5A     -1.172711     6A     -1.032044
       7A     -0.897912     8A     -0.794293     9A     -0.674267
      10A     -0.612475    11A     -0.601659    12A     -0.572855
      13A     -0.517557    14A     -0.489819    15A     -0.484583
      16A     -0.462692    17A     -0.375905

  @DF-RHF Final Energy:  -173.27952664106715

   => Energetics <=

    Nuclear Repulsion Energy =            131.4139158938986611
    One-Electron Energy =                -493.6451575567637065
    Two-Electron Energy =                 188.9517150217979520
    DFT Exchange-Correlation Energy =       0.0000000000000000
    Empirical Dispersion Energy =           0.0000000000000000
    PCM Polarization Energy =               0.0000000000000000
    EFP Energy =                            0.0000000000000000
    Total Energy =                       -173.2795266410670934
    Molecular point group: c1
  Basis Set: 6-31G*
  Basis Set:

  -Total Gradient:
     Atom            X                  Y                   Z
    ------   -----------------  -----------------  -----------------
       1        0.000640193032     0.001084643234    -0.001269884756
       2       -0.000955928937    -0.001655316577     0.001821083473
       3        0.000965029295     0.001721230521    -0.001473698807
       4        0.000003625467     0.000002465799    -0.000001189683
       5       -0.000007007430    -0.000012517339    -0.000024751359
       6       -0.000649230970    -0.001141459389     0.000934426228
       7       -0.000008508565    -0.000016463565     0.000010786334
       8        0.000001651670     0.000014246483     0.000007042977
       9        0.000005342738     0.000006724507     0.000000807805
      10        0.000001399449     0.000000048357    -0.000000035017
      11        0.000000121319     0.000001960628    -0.000005668262
      12        0.000004604597    -0.000004894207     0.000003994267
      13       -0.000001291664    -0.000000668452    -0.000002913198

  **** Optimization is complete! (in 6 steps) ****
    Final optimized geometry and variables:
    Molecular point group: c1

    Geometry (in Angstrom), charge = 0, multiplicity = 1:

    H           -2.457134827188    -0.281979357901    -0.726195600697
    N           -1.860853613159     0.159210114395    -0.057342823978
    C           -0.556911219516    -0.492883465047     0.028715494964
    H           -2.336225091270     0.168227942277     0.821334274387
    C            0.582587121611     0.519757021168    -0.039421191079
    H           -0.457401788744    -1.209590935076    -0.782159753630
    H           -0.465771960693    -1.073367582751     0.946416123968
    C            1.962070311978    -0.130842526053     0.053290191741
    H            0.491881441021     1.079164619702    -0.965782246976
    H            0.457185669750     1.239736748584     0.765326679257
    H            2.121932471637    -0.835260473234    -0.758939094749
    H            2.751075430202     0.612720025742     0.002508528552
    H            2.082056916987    -0.673831369609     0.987186077616

  Mulliken Charges: (a.u.)
   Center  Symbol    Alpha    Beta     Spin     Total
       1     H     0.33034  0.33034  0.00000  0.33933
       2     N     3.92886  3.92886  0.00000 -0.85773
       3     C     3.06488  3.06488  0.00000 -0.12976
       4     H     0.33115  0.33115  0.00000  0.33771
       5     C     3.13928  3.13928  0.00000 -0.27855
       6     H     0.42483  0.42483  0.00000  0.15033
       7     H     0.42888  0.42888  0.00000  0.14223
       8     C     3.24621  3.24621  0.00000 -0.49242
       9     H     0.41848  0.41848  0.00000  0.16305
      10     H     0.42255  0.42255  0.00000  0.15489
      11     H     0.42318  0.42318  0.00000  0.15363
      12     H     0.41795  0.41795  0.00000  0.16410
      13     H     0.42341  0.42341  0.00000  0.15318

   Total alpha = 17.00000, Total beta = 17.00000, Total charge =  0.00000
