                              Psi4 1.0.54 Driver

  ==> Input File <==

--------------------------------------------------------------------------
set {
	reference rhf
	basis cc-pvtz
}

set_num_threads( 4 )
memory 2 gb

molecule MOL {
0 1

H	 -2.518174	 -0.988339	 0.329841
O	 -2.313989	 -0.142475	 -0.025864
C	 -0.943808	 -0.065018	 -0.330000
H	 -0.812293	 -0.225641	 -1.398673
C	 -0.231030	 -1.182113	 0.407592
C	 -0.353797	 1.300461	 0.050970
H	 -0.312800	 -0.992012	 1.473041
H	 -0.738841	 -2.119564	 0.220514
C	 1.246176	 -1.268044	 -0.015480
H	 -0.539537	 2.008579	 -0.751815
H	 -0.889989	 1.662858	 0.920677
C	 1.153605	 1.231851	 0.356834
H	 1.823096	 -1.684665	 0.802361
H	 1.352335	 -1.958223	 -0.845114
C	 1.826409	 0.100723	 -0.416008
H	 1.622968	 2.181508	 0.128734
H	 1.301983	 1.066493	 1.419367
H	 2.897299	 0.112407	 -0.249665
H	 1.683458	 0.265621	 -1.480024

	symmetry c1
}
set optking {
	frozen_dihedral = ("
		1 2 3 4
	")
}

ee,wfn = optimize('scf', return_wfn=True)
oeprop( wfn, 'DIPOLE', 'QUADRUPOLE', 'MULLIKEN_CHARGES')
f=open( 'psi4out.xyz', 'w' )
f.write( "19  " )
f.write( str(ee) + "\n" )
f.write( MOL.save_string_xyz() )
f.close()
--------------------------------------------------------------------------

    Molecular point group: c1
  Charge       = 0
  Multiplicity = 1
  Basis Set: CC-PVTZ
  Basis Set:
  @DF-RHF Final Energy:  -309.16019024467391
    Total Energy =                       -309.1601902446739132
    Molecular point group: c1
  Basis Set: CC-PVTZ
  Basis Set:
  Basis Set: CC-PVTZ
  Basis Set:
  @DF-RHF Final Energy:  -309.16149209602054
    Total Energy =                       -309.1614920960203108
  Basis Set: CC-PVTZ
  Basis Set:
  Basis Set: CC-PVTZ
  Basis Set:
  @DF-RHF Final Energy:  -309.16191648979685
    Total Energy =                       -309.1619164897971928
  Basis Set: CC-PVTZ
  Basis Set:
  Basis Set: CC-PVTZ
  Basis Set:
  @DF-RHF Final Energy:  -309.16192591380405
    Total Energy =                       -309.1619259138041116
  Basis Set: CC-PVTZ
  Basis Set:
  Charge       = 0
  Multiplicity = 1
  Basis Set: CC-PVTZ
  Basis Set:

    Orbital Energies (a.u.)
    -----------------------

    Doubly Occupied:

       1A    -20.541185     2A    -11.267179     3A    -11.218937
       4A    -11.217934     5A    -11.214881     6A    -11.213285
       7A    -11.206466     8A     -1.361630     9A     -1.111626
      10A     -1.005337    11A     -0.990054    12A     -0.852788
      13A     -0.833207    14A     -0.741581    15A     -0.691196
      16A     -0.663696    17A     -0.622506    18A     -0.608745
      19A     -0.575752    20A     -0.549717    21A     -0.531199
      22A     -0.522253    23A     -0.499985    24A     -0.490557
      25A     -0.467178    26A     -0.449443    27A     -0.427216
      28A     -0.415371

  @DF-RHF Final Energy:  -309.16192692830265

   => Energetics <=

    Nuclear Repulsion Energy =            331.9898047317166743
    One-Electron Energy =               -1077.7216575262934839
    Two-Electron Energy =                 436.5699258662740476
    DFT Exchange-Correlation Energy =       0.0000000000000000
    Empirical Dispersion Energy =           0.0000000000000000
    PCM Polarization Energy =               0.0000000000000000
    EFP Energy =                            0.0000000000000000
    Total Energy =                       -309.1619269283027052
    Molecular point group: c1
  Basis Set: CC-PVTZ
  Basis Set:

  -Total Gradient:
     Atom            X                  Y                   Z
    ------   -----------------  -----------------  -----------------
       1        0.000366233350     0.000504124526     0.001812250147
       2       -0.000439682883    -0.000257056965    -0.002252330465
       3        0.000085732591    -0.001846443037     0.000599723867
       4        0.000053277378     0.001618046352    -0.000170944167
       5       -0.000066264636     0.000025779966    -0.000016044244
       6       -0.000038686063     0.000000589635    -0.000007678699
       7        0.000010054556    -0.000019837211     0.000003084046
       8        0.000005581675     0.000009388724     0.000008037845
       9        0.000005261400     0.000014552558     0.000014270959
      10       -0.000013205376     0.000003166236    -0.000007615172
      11       -0.000009445320    -0.000000884746    -0.000003121034
      12        0.000003709321    -0.000004703246     0.000010072472
      13        0.000030027007    -0.000004669409     0.000004536369
      14        0.000001036724     0.000001145826     0.000004651092
      15        0.000004575630    -0.000006708333    -0.000002132860
      16       -0.000015821364     0.000003356470     0.000008580983
      17        0.000015069996    -0.000000683083     0.000015643227
      18       -0.000001758342    -0.000036823899    -0.000009331736
      19        0.000004304353    -0.000002340363    -0.000011652629

  **** Optimization is complete! (in 5 steps) ****
    Final optimized geometry and variables:
    Molecular point group: c1

    Geometry (in Angstrom), charge = 0, multiplicity = 1:

    H           -2.655072110994    -0.751904505317     0.220604919631
    O           -2.326579110971     0.074482698426    -0.080466895678
    C           -0.944849176998    -0.009431866425    -0.335307020796
    H           -0.810513015858    -0.130013504645    -1.407740764361
    C           -0.285896790941    -1.184380376500     0.368735886905
    C           -0.293230096540     1.310742510417     0.092614782600
    H           -0.359584688342    -1.029070090085     1.441378953640
    H           -0.824601864803    -2.101513843144     0.147924473115
    C            1.187209160477    -1.328614607836    -0.053996669151
    H           -0.445909829316     2.047556141023    -0.687858856236
    H           -0.819795484152     1.671208020977     0.967502669412
    C            1.207129681823     1.158526250160     0.401059866107
    H            1.739849340588    -1.799634873746     0.750921942882
    H            1.260930311104    -1.995342237652    -0.905734815361
    C            1.831461536580     0.024264200041    -0.407016848318
    H            1.722213168825     2.091674199530     0.206497049035
    H            1.344908015932     0.950992633254     1.458106744120
    H            2.900671498378    -0.021841094437    -0.236264597592
    H            1.701244261602     0.229829279398    -1.465191966605

  Mulliken Charges: (a.u.)
   Center  Symbol    Alpha    Beta     Spin     Total
       1     H     0.39245  0.39245  0.00000  0.21510
       2     O     4.20763  4.20763  0.00000 -0.41526
       3     C     2.92563  2.92563  0.00000  0.14873
       4     H     0.45888  0.45888  0.00000  0.08223
       5     C     3.11156  3.11156  0.00000 -0.22313
       6     C     3.10960  3.10960  0.00000 -0.21920
       7     H     0.45148  0.45148  0.00000  0.09703
       8     H     0.44905  0.44905  0.00000  0.10189
       9     C     3.11353  3.11353  0.00000 -0.22706
      10     H     0.44619  0.44619  0.00000  0.10762
      11     H     0.44525  0.44525  0.00000  0.10950
      12     C     3.10145  3.10145  0.00000 -0.20290
      13     H     0.44694  0.44694  0.00000  0.10612
      14     H     0.44668  0.44668  0.00000  0.10664
      15     C     3.10187  3.10187  0.00000 -0.20375
      16     H     0.44185  0.44185  0.00000  0.11630
      17     H     0.45426  0.45426  0.00000  0.09148
      18     H     0.44275  0.44275  0.00000  0.11450
      19     H     0.45293  0.45293  0.00000  0.09414

   Total alpha = 28.00000, Total beta = 28.00000, Total charge = -0.00000

*** Psi4 exiting successfully. Buy a developer a beer!
