  ==> Input File <==

--------------------------------------------------------------------------
set {
	reference rhf
	basis cc-pvtz
}

set_num_threads( 4 )
memory 2 gb

molecule MOL {
0 1

O	 -0.694481	 1.313155	 -0.204815
C	 -0.862519	 0.151932	 -0.046791
C	 -2.171428	 -0.477048	 0.339095
O	 0.085519	 -0.757083	 -0.192238
H	 -2.467997	 -1.191667	 -0.417688
H	 -2.923379	 0.287970	 0.444097
H	 -2.053854	 -1.015120	 1.270901
C	 1.392072	 -0.330814	 -0.560604
C	 2.205669	 0.087600	 0.646413
H	 1.315178	 0.473433	 -1.275510
H	 1.834017	 -1.189495	 -1.043410
H	 3.212831	 0.341170	 0.335320
H	 1.769736	 0.953805	 1.124989
H	 2.264829	 -0.719611	 1.366485

	symmetry c1
}
set optking {
	frozen_dihedral = ("
		8 4 2 1
	")
}

ee = optimize('scf')
oeprop('DIPOLE', 'QUADRUPOLE', 'MULLIKEN_CHARGES')
f=open( 'psi4out.xyz', 'w' )
f.write( "14  " )
f.write( str(ee) + "\n" )
f.write( MOL.save_string_xyz() )
f.close()
--------------------------------------------------------------------------

    Molecular point group: c1
  Charge       = 0
  Multiplicity = 1
  Basis Set: CC-PVTZ
  Basis Set:
  @DF-RHF Final Energy:  -305.99117150562967
    Total Energy =                       -305.9911715056293815
    Molecular point group: c1
  Basis Set: CC-PVTZ
  Basis Set:
  Charge       = 0
  Multiplicity = 1
  Basis Set: CC-PVTZ
  Basis Set:

    Orbital Energies (a.u.)
    -----------------------

    Doubly Occupied:

       1A    -20.594391     2A    -20.533096     3A    -11.368020
       4A    -11.283164     5A    -11.231606     6A    -11.216986
       7A     -1.470589     8A     -1.365806     9A     -1.056082
      10A     -0.999473    11A     -0.883734    12A     -0.767206
      13A     -0.701279    14A     -0.685703    15A     -0.660710
      16A     -0.611850    17A     -0.587386    18A     -0.571143
      19A     -0.560214    20A     -0.529768    21A     -0.519024
      22A     -0.494847    23A     -0.454502    24A     -0.442316

  @DF-RHF Final Energy:  -305.99117155242482

   => Energetics <=

    Nuclear Repulsion Energy =            249.1632181048878465
    One-Electron Energy =                -911.1309894963929992
    Two-Electron Energy =                 355.9765998390803361
    DFT Exchange-Correlation Energy =       0.0000000000000000
    Empirical Dispersion Energy =           0.0000000000000000
    PCM Polarization Energy =               0.0000000000000000
    EFP Energy =                            0.0000000000000000
    Total Energy =                       -305.9911715524248166
    Molecular point group: c1
  Basis Set: CC-PVTZ
  Basis Set:

  -Total Gradient:
     Atom            X                  Y                   Z
    ------   -----------------  -----------------  -----------------
       1       -0.000004925952     0.000000824348    -0.000015484325
       2        0.000027112961    -0.000000153398     0.000063565874
       3       -0.000004271523    -0.000000472215    -0.000020858016
       4       -0.000003371487    -0.000006508681    -0.000023802671
       5       -0.000002209813    -0.000001255426     0.000000271009
       6        0.000002722616     0.000000767281    -0.000001880881
       7        0.000005575059     0.000003393504    -0.000001249560
       8        0.000001104931     0.000002432728     0.000000562839
       9       -0.000024869548     0.000011485295    -0.000000209703
      10        0.000000185755    -0.000002622541    -0.000000829870
      11       -0.000002110607    -0.000001493433     0.000001179054
      12       -0.000002142900    -0.000002986974    -0.000003742155
      13        0.000003795278    -0.000002854754    -0.000000323211
      14        0.000003405228    -0.000000555736     0.000002801618

  **** Optimization is complete! (in 2 steps) ****
    Final optimized geometry and variables:
    Molecular point group: c1

    Geometry (in Angstrom), charge = 0, multiplicity = 1:

    O           -0.694935947621     1.313257516170    -0.205233651898
    C           -0.862586913472     0.152046430260    -0.046770280538
    C           -2.171316777592    -0.477168851297     0.338979527165
    O            0.085628109013    -0.756865780261    -0.191973461287
    H           -2.467523941335    -1.192036994114    -0.417690179027
    H           -2.923471892220     0.287659746178     0.443628154403
    H           -2.053755003451    -1.014950327316     1.270930862310
    C            1.392159782461    -0.330782250619    -0.560653558089
    C            2.205930253602     0.087371079624     0.646342204076
    H            1.315191066059     0.473452398145    -1.275490061579
    H            1.833814937790    -1.189550903368    -1.043552143774
    H            3.213056422497     0.340894076428     0.335199516402
    H            1.770118308011     0.953552187476     1.125077641884
    H            2.265057509571    -0.719928714586     1.366295874447

  Mulliken Charges: (a.u.)
   Center  Symbol    Alpha    Beta     Spin     Total
       1     O     4.19918  4.19918  0.00000 -0.39837
       2     C     2.80177  2.80177  0.00000  0.39647
       3     C     3.13847  3.13847  0.00000 -0.27694
       4     O     4.15735  4.15735  0.00000 -0.31469
       5     H     0.44560  0.44560  0.00000  0.10880
       6     H     0.43828  0.43828  0.00000  0.12344
       7     H     0.44599  0.44599  0.00000  0.10802
       8     C     2.98550  2.98550  0.00000  0.02899
       9     C     3.14820  3.14820  0.00000 -0.29640
      10     H     0.44882  0.44882  0.00000  0.10235
      11     H     0.44471  0.44471  0.00000  0.11058
      12     H     0.45147  0.45147  0.00000  0.09706
      13     H     0.44229  0.44229  0.00000  0.11543
      14     H     0.45237  0.45237  0.00000  0.09525

   Total alpha = 24.00000, Total beta = 24.00000, Total charge = -0.00000
