  ==> Input File <==

--------------------------------------------------------------------------
set {
	reference rhf
	basis cc-pvtz
}

set_num_threads( 4 )
memory 2 gb

molecule MOL {
0 1

H	 -3.885111	 -1.695707	 0.882384
C	 -2.817650	 -1.588739	 0.917895
C	 -2.128737	 -1.921879	 2.070308
C	 -2.135422	 -1.118463	 -0.188174
H	 -2.658941	 -2.286840	 2.928439
C	 -0.757054	 -1.784157	 2.115178
H	 -2.670603	 -0.860384	 -1.081398
C	 -0.761943	 -0.980005	 -0.144798
H	 -0.207986	 -2.037393	 2.999177
C	 -0.068606	 -1.312803	 1.008042
H	 -0.230569	 -0.616088	 -0.999630
C	 1.413287	 -1.182010	 1.107069
O	 1.968286	 -0.725612	 -0.000027
O	 2.036231	 -1.457606	 2.077206
C	 3.373556	 -0.568203	 0.000011
H	 3.695416	 -0.031588	 -0.879663
H	 3.782700	 -1.565294	 -0.000152
H	 3.695405	 -0.031851	 0.879862

	symmetry c1
}
set optking {
	frozen_dihedral = ("
		12 13 15 16
	")
}

ee = optimize('scf')
oeprop('DIPOLE', 'QUADRUPOLE', 'MULLIKEN_CHARGES')
f=open( 'psi4out.xyz', 'w' )
f.write( "18  " )
f.write( str(ee) + "\n" )
f.write( MOL.save_string_xyz() )
f.close()
--------------------------------------------------------------------------

    Molecular point group: c1
  Charge       = 0
  Multiplicity = 1
  Basis Set: CC-PVTZ
  Basis Set:
  @DF-RHF Final Energy:  -457.50856394251127
    Total Energy =                       -457.5085639425111594
    Molecular point group: c1
  Basis Set: CC-PVTZ
  Basis Set:
  Basis Set: CC-PVTZ
  Basis Set:
  @DF-RHF Final Energy:  -457.50977560229899
    Total Energy =                       -457.5097756022992144
  Basis Set: CC-PVTZ
  Basis Set:
  Basis Set: CC-PVTZ
  Basis Set:
  @DF-RHF Final Energy:  -457.50938173388948
    Total Energy =                       -457.5093817338898816
  Basis Set: CC-PVTZ
  Basis Set:
  Basis Set: CC-PVTZ
  Basis Set:
  @DF-RHF Final Energy:  -457.51006971468132
    Total Energy =                       -457.5100697146813218
  Basis Set: CC-PVTZ
  Basis Set:
  Basis Set: CC-PVTZ
  Basis Set:
  @DF-RHF Final Energy:  -457.51007651566903
    Total Energy =                       -457.5100765156687430
  Basis Set: CC-PVTZ
  Basis Set:
  Charge       = 0
  Multiplicity = 1
  Basis Set: CC-PVTZ
  Basis Set:

    Orbital Energies (a.u.)
    -----------------------

    Doubly Occupied:

       1A    -20.600924     2A    -20.534412     3A    -11.371854
       4A    -11.281182     5A    -11.244992     6A    -11.243501
       7A    -11.242702     8A    -11.240056     9A    -11.236068
      10A    -11.235308    11A     -1.476869    12A     -1.368508
      13A     -1.170800    14A     -1.051860    15A     -1.029066
      16A     -0.980637    17A     -0.863236    18A     -0.838482
      19A     -0.781245    20A     -0.745059    21A     -0.687911
      22A     -0.681672    23A     -0.676389    24A     -0.634112
      25A     -0.630084    26A     -0.601309    27A     -0.587620
      28A     -0.565477    29A     -0.531434    30A     -0.520316
      31A     -0.509552    32A     -0.502227    33A     -0.464054
      34A     -0.449454    35A     -0.350230    36A     -0.346263

  @DF-RHF Final Energy:  -457.51007712584584

   => Energetics <=

    Nuclear Repulsion Energy =            494.0042443203169000
    One-Electron Energy =               -1602.4789196361114136
    Two-Electron Energy =                 650.9645981899485605
    DFT Exchange-Correlation Energy =       0.0000000000000000
    Empirical Dispersion Energy =           0.0000000000000000
    PCM Polarization Energy =               0.0000000000000000
    EFP Energy =                            0.0000000000000000
    Total Energy =                       -457.5100771258458963
    Molecular point group: c1
  Basis Set: CC-PVTZ
  Basis Set:

  -Total Gradient:
     Atom            X                  Y                   Z
    ------   -----------------  -----------------  -----------------
       1        0.000007558706     0.000001087748    -0.000001086977
       2        0.000005249694    -0.000002548907     0.000008238110
       3       -0.000008678012     0.000002083054    -0.000007093444
       4        0.000009149689     0.000000977708     0.000001220040
       5        0.000001995761     0.000002695797    -0.000004108206
       6       -0.000000329410     0.000001807157    -0.000004244124
       7       -0.000001170857    -0.000001275789     0.000001986107
       8       -0.000010078463    -0.000000716555    -0.000012226659
       9       -0.000001043629     0.000000521400    -0.000005048243
      10        0.000015448420    -0.000008909483     0.000035365710
      11       -0.000006480881    -0.000002125467     0.000009192352
      12       -0.000152096627     0.000777861761     0.000258802312
      13        0.000096079309    -0.000952365991    -0.000241129267
      14       -0.000006577562     0.000010762175    -0.000033005029
      15        0.000171971772    -0.000646088990    -0.000456564467
      16       -0.000100855673     0.000806321991     0.000457998156
      17       -0.000005847131     0.000046071085     0.000009883382
      18       -0.000014295103    -0.000036158692    -0.000018179757

  **** Optimization is complete! (in 6 steps) ****
    Final optimized geometry and variables:
    Molecular point group: c1

    Geometry (in Angstrom), charge = 0, multiplicity = 1:

    H           -4.027118765810    -0.427659634912    -0.007712620782
    C           -2.959044098067    -0.327045291829     0.028672977649
    C           -2.272929544921    -0.665680180816     1.181256788055
    C           -2.273136402522     0.140402908596    -1.076258258273
    H           -2.805942876097    -1.028552724350     2.038591085726
    C           -0.900508173626    -0.536256134506     1.227286538570
    H           -2.805939585585     0.402721827741    -1.969703105423
    C           -0.898769614024     0.270679569889    -1.031666285160
    H           -0.353694789780    -0.794018167797     2.111426635028
    C           -0.208389088654    -0.067541516065     0.121243524186
    H           -0.364748605416     0.632379858483    -1.885830556220
    C            1.274487371028     0.054424504746     0.222048649229
    O            1.833108320142     0.505792556014    -0.885158915751
    O            1.894065971776    -0.224727875634     1.193248425644
    C            3.236818776104     0.675869061003    -0.882177485116
    H            3.473282269753     1.209932592557    -1.788071007278
    H            3.733436862934    -0.283318173956    -0.870539191329
    H            3.549420414151     1.247172276323    -0.022170833487

  Mulliken Charges: (a.u.)
   Center  Symbol    Alpha    Beta     Spin     Total
       1     H     0.42029  0.42029  0.00000  0.15943
       2     C     3.06974  3.06974  0.00000 -0.13948
       3     C     3.07551  3.07551  0.00000 -0.15102
       4     C     3.07494  3.07494  0.00000 -0.14987
       5     H     0.42038  0.42038  0.00000  0.15923
       6     C     3.07589  3.07589  0.00000 -0.15178
       7     H     0.42189  0.42189  0.00000  0.15623
       8     C     3.08212  3.08212  0.00000 -0.16424
       9     H     0.40665  0.40665  0.00000  0.18670
      10     C     3.01294  3.01294  0.00000 -0.02589
      11     H     0.41104  0.41104  0.00000  0.17792
      12     C     2.78168  2.78168  0.00000  0.43664
      13     O     4.14854  4.14854  0.00000 -0.29708
      14     O     4.21134  4.21134  0.00000 -0.42268
      15     C     3.03669  3.03669  0.00000 -0.07338
      16     H     0.44559  0.44559  0.00000  0.10882
      17     H     0.45414  0.45414  0.00000  0.09171
      18     H     0.45063  0.45063  0.00000  0.09873

   Total alpha = 36.00000, Total beta = 36.00000, Total charge = -0.00000
