                              Psi4 1.0.54 Driver

  ==> Input File <==

--------------------------------------------------------------------------
set {
	reference rhf
	basis cc-pvtz
}

set_num_threads( 4 )
memory 2 gb

molecule MOL {
0 1

H	 2.084071	 1.984660	 -0.338057
O	 1.164566	 1.941138	 -0.152957
C	 0.700177	 0.619554	 -0.266242
C	 -0.713111	 0.588314	 0.266177
H	 1.321387	 -0.055817	 0.314186
H	 0.706742	 0.293250	 -1.302996
O	 -1.421673	 -0.521378	 -0.196983
H	 -1.244794	 1.469161	 -0.069059
H	 -0.685100	 0.604721	 1.352683
H	 -0.933408	 -1.297830	 0.014544

	symmetry c1
}
set optking {
	frozen_dihedral = ("
		5 3 4 7
	")
}

ee,wfn = optimize('scf', return_wfn=True)
oeprop( wfn, 'DIPOLE', 'QUADRUPOLE', 'MULLIKEN_CHARGES')
f=open( 'psi4out.xyz', 'w' )
f.write( "10  " )
f.write( str(ee) + "\n" )
f.write( MOL.save_string_xyz() )
f.close()
--------------------------------------------------------------------------

    Molecular point group: c1
  Charge       = 0
  Multiplicity = 1
  Basis Set: CC-PVTZ
  Basis Set:
  @DF-RHF Final Energy:  -229.02307722718126
    Total Energy =                       -229.0230772271813180
    Molecular point group: c1
  Basis Set: CC-PVTZ
  Basis Set:
  Basis Set: CC-PVTZ
  Basis Set:
  @DF-RHF Final Energy:  -229.02384427570604
    Total Energy =                       -229.0238442757059261
  Basis Set: CC-PVTZ
  Basis Set:
  Basis Set: CC-PVTZ
  Basis Set:
  @DF-RHF Final Energy:  -229.02399125549732
    Total Energy =                       -229.0239912554974069
  Basis Set: CC-PVTZ
  Basis Set:
  Basis Set: CC-PVTZ
  Basis Set:
  @DF-RHF Final Energy:  -229.02405040564969
    Total Energy =                       -229.0240504056496036
  Basis Set: CC-PVTZ
  Basis Set:
  Basis Set: CC-PVTZ
  Basis Set:
  @DF-RHF Final Energy:  -229.02408728898925
    Total Energy =                       -229.0240872889892785
  Basis Set: CC-PVTZ
  Basis Set:
  Charge       = 0
  Multiplicity = 1
  Basis Set: CC-PVTZ
  Basis Set:

    Orbital Energies (a.u.)
    -----------------------

    Doubly Occupied:

       1A    -20.553958     2A    -20.552713     3A    -11.270305
       4A    -11.267053     5A     -1.377615     6A     -1.364620
       7A     -0.998992     8A     -0.846972     9A     -0.717930
      10A     -0.701530    11A     -0.634821    12A     -0.611186
      13A     -0.583339    14A     -0.528685    15A     -0.491788
      16A     -0.447295    17A     -0.442832

  @DF-RHF Final Energy:  -229.02408788368649

   => Energetics <=

    Nuclear Repulsion Energy =            131.4206079881897153
    One-Electron Energy =                -574.1061212227740498
    Two-Electron Energy =                 213.6614253508977583
    DFT Exchange-Correlation Energy =       0.0000000000000000
    Empirical Dispersion Energy =           0.0000000000000000
    PCM Polarization Energy =               0.0000000000000000
    EFP Energy =                            0.0000000000000000
    Total Energy =                       -229.0240878836865761
    Molecular point group: c1
  Basis Set: CC-PVTZ
  Basis Set:

  -Total Gradient:
     Atom            X                  Y                   Z
    ------   -----------------  -----------------  -----------------
       1       -0.000007403542    -0.000006328477     0.000001778280
       2       -0.000014048030     0.000007449668    -0.000001065849
       3       -0.001389209942    -0.003068958127    -0.004153091505
       4        0.001475932265    -0.001656103865     0.003989950989
       5        0.000872238599     0.002938097024     0.002631864869
       6        0.000007997426    -0.000002300976    -0.000010112601
       7       -0.000957230535     0.001785596195    -0.002454431834
       8        0.000009616425     0.000001129821    -0.000003456477
       9        0.000001130745     0.000005153484     0.000001788545
      10        0.000000976589    -0.000003734749    -0.000003224419

  **** Optimization is complete! (in 6 steps) ****
    Final optimized geometry and variables:
    Molecular point group: c1

    Geometry (in Angstrom), charge = 0, multiplicity = 1:

    H            2.125809397222     1.353014028747    -0.254034116435
    O            1.223124360652     1.290176034834    -0.003248802394
    C            0.758287568635    -0.021264289165    -0.181209936501
    C           -0.665907912678    -0.069194511437     0.344054782754
    H            1.391177218677    -0.710353045045     0.374875063550
    H            0.757723757534    -0.305616666561    -1.227944449106
    O           -1.374736363209    -1.168501119877    -0.156922944700
    H           -1.181167804365     0.814928615237    -0.002998736181
    H           -0.672218433510    -0.049462550011     1.429017264361
    H           -1.115080370189    -1.956502138359     0.284161147599

  Mulliken Charges: (a.u.)
   Center  Symbol    Alpha    Beta     Spin     Total
       1     H     0.39323  0.39323  0.00000  0.21354
       2     O     4.19924  4.19924  0.00000 -0.39849
       3     C     2.96848  2.96848  0.00000  0.06304
       4     C     2.97603  2.97603  0.00000  0.04794
       5     H     0.47967  0.47967  0.00000  0.04067
       6     H     0.46891  0.46891  0.00000  0.06218
       7     O     4.20071  4.20071  0.00000 -0.40142
       8     H     0.45200  0.45200  0.00000  0.09599
       9     H     0.46691  0.46691  0.00000  0.06618
      10     H     0.39482  0.39482  0.00000  0.21037

   Total alpha = 17.00000, Total beta = 17.00000, Total charge = -0.00000

*** Psi4 exiting successfully. Buy a developer a beer!
