  ==> Input File <==

--------------------------------------------------------------------------
set {
	reference rhf
	basis cc-pvtz
}

set_num_threads( 4 )
memory 2 gb

molecule MOL {
0 1

H	 2.479251	 -5.523194	 1.572812
C	 2.351181	 -4.507803	 1.252353
C	 1.117971	 -4.062738	 0.797445
C	 3.405701	 -3.625319	 1.285279
H	 0.283339	 -4.737160	 0.764605
C	 0.949458	 -2.762634	 0.385919
H	 4.367374	 -3.951240	 1.634060
C	 3.252899	 -2.308754	 0.873310
H	 0.000916	 -2.408766	 0.032767
C	 2.019927	 -1.875247	 0.421724
H	 4.093111	 -1.646884	 0.911178
O	 1.760432	 -0.625184	 0.000000
C	 2.773565	 0.334879	 0.000000
H	 2.728295	 0.960928	 -0.884150
H	 3.706387	 -0.206610	 0.000000
H	 2.728295	 0.960928	 0.884150

	symmetry c1
}
set optking {
	frozen_dihedral = ("
		10 12 13 14
	")
}

ee = optimize('scf')
oeprop('DIPOLE', 'QUADRUPOLE', 'MULLIKEN_CHARGES')
f=open( 'psi4out.xyz', 'w' )
f.write( "16  " )
f.write( str(ee) + "\n" )
f.write( MOL.save_string_xyz() )
f.close()
--------------------------------------------------------------------------

    Molecular point group: c1
  Charge       = 0
  Multiplicity = 1
  Basis Set: CC-PVTZ
  Basis Set:
  @DF-RHF Final Energy:  -344.69567684180885
    Total Energy =                       -344.6956768418090178
    Molecular point group: c1
  Basis Set: CC-PVTZ
  Basis Set:
  Basis Set: CC-PVTZ
  Basis Set:
  @DF-RHF Final Energy:  -344.69645553897874
    Total Energy =                       -344.6964555389783413
  Basis Set: CC-PVTZ
  Basis Set:
  Basis Set: CC-PVTZ
  Basis Set:
  @DF-RHF Final Energy:  -344.69988956829030
    Total Energy =                       -344.6998895682904731
  Basis Set: CC-PVTZ
  Basis Set:
  Basis Set: CC-PVTZ
  Basis Set:
  @DF-RHF Final Energy:  -344.70041003688601
    Total Energy =                       -344.7004100368859554
  Basis Set: CC-PVTZ
  Basis Set:
  Basis Set: CC-PVTZ
  Basis Set:
  @DF-RHF Final Energy:  -344.70068610898170
    Total Energy =                       -344.7006861089818130
  Basis Set: CC-PVTZ
  Basis Set:
  Basis Set: CC-PVTZ
  Basis Set:
  @DF-RHF Final Energy:  -344.70080629771309
    Total Energy =                       -344.7008062977130294
  Basis Set: CC-PVTZ
  Basis Set:
  Basis Set: CC-PVTZ
  Basis Set:
  @DF-RHF Final Energy:  -344.70082940293969
    Total Energy =                       -344.7008294029395188
  Basis Set: CC-PVTZ
  Basis Set:
  Charge       = 0
  Multiplicity = 1
  Basis Set: CC-PVTZ
  Basis Set:

    Orbital Energies (a.u.)
    -----------------------

    Doubly Occupied:

       1A    -20.575703     2A    -11.292554     3A    -11.277535
       4A    -11.231403     5A    -11.230036     6A    -11.222293
       7A    -11.218317     8A    -11.217894     9A     -1.414636
      10A     -1.151085    11A     -1.024527    12A     -1.016972
      13A     -0.942598    14A     -0.835393    15A     -0.808613
      16A     -0.723954    17A     -0.667172    18A     -0.667021
      19A     -0.655964    20A     -0.617857    21A     -0.591883
      22A     -0.582697    23A     -0.527849    24A     -0.520138
      25A     -0.511445    26A     -0.482753    27A     -0.459557
      28A     -0.339544    29A     -0.311849

  @DF-RHF Final Energy:  -344.70083014799917

   => Energetics <=

    Nuclear Repulsion Energy =            348.5350087700759900
    One-Electron Energy =               -1158.2331938308552708
    Two-Electron Energy =                 464.9973549127798833
    DFT Exchange-Correlation Energy =       0.0000000000000000
    Empirical Dispersion Energy =           0.0000000000000000
    PCM Polarization Energy =               0.0000000000000000
    EFP Energy =                            0.0000000000000000
    Total Energy =                       -344.7008301479993406
    Molecular point group: c1
  Basis Set: CC-PVTZ
  Basis Set:

  -Total Gradient:
     Atom            X                  Y                   Z
    ------   -----------------  -----------------  -----------------
       1       -0.000018504893    -0.000001049190     0.000000565293
       2        0.000214299330     0.000042822155     0.000049383119
       3       -0.000137373002     0.000165215908    -0.000075315835
       4       -0.000087027377    -0.000192429328     0.000015729936
       5        0.000008552456    -0.000013188365     0.000003479844
       6       -0.000083451644    -0.000218121186     0.000057421757
       7        0.000005944891     0.000013891918     0.000001789514
       8       -0.000129658016     0.000130590637    -0.000037871273
       9        0.000004905698     0.000013944685    -0.000005541762
      10       -0.000247136139    -0.000580406478    -0.002665985711
      11        0.000006549192     0.000005479488     0.000000405780
      12        0.000899053589     0.000474259699     0.003446587609
      13       -0.001302647561     0.002223870577     0.001304765338
      14        0.000874945232    -0.002042577049    -0.002100796921
      15       -0.000003840503    -0.000022559200     0.000010472640
      16       -0.000004611252     0.000000255731    -0.000005089326

  **** Optimization is complete! (in 8 steps) ****
    Final optimized geometry and variables:
    Molecular point group: c1

    Geometry (in Angstrom), charge = 0, multiplicity = 1:

    H            0.280394420205    -3.248143443803     0.742713061143
    C            0.146098295317    -2.208660436525     0.515290205116
    C           -1.067963509195    -1.745879708774     0.033419381352
    C            1.175922378020    -1.312874555688     0.702229600745
    H           -1.881462465910    -2.430287999844    -0.116003596588
    C           -1.243777671019    -0.413324496253    -0.263789378902
    H            2.120168070746    -1.652543739408     1.083895547399
    C            1.011552418994     0.032382382030     0.413855874629
    H           -2.178174975091    -0.045194460616    -0.639308148745
    C           -0.200216076446     0.483151791325    -0.078665518107
    H            1.819558201557     0.714424793584     0.587327398825
    O           -0.459558437840     1.774979343413    -0.357590973315
    C            0.568537154570     2.636227975445    -0.762460837346
    H            0.170503144359     3.267524637734    -1.543673409498
    H            1.407993063638     2.089481863133    -1.171117901247
    H            0.909061627123     3.246624559253     0.065008056677

  Mulliken Charges: (a.u.)
   Center  Symbol    Alpha    Beta     Spin     Total
       1     H     0.42430  0.42430  0.00000  0.15140
       2     C     3.09862  3.09862  0.00000 -0.19724
       3     C     3.05949  3.05949  0.00000 -0.11897
       4     C     3.06390  3.06390  0.00000 -0.12781
       5     H     0.42286  0.42286  0.00000  0.15427
       6     C     3.11017  3.11017  0.00000 -0.22034
       7     H     0.42299  0.42299  0.00000  0.15402
       8     C     3.13327  3.13327  0.00000 -0.26653
       9     H     0.41972  0.41972  0.00000  0.16056
      10     C     2.85596  2.85596  0.00000  0.28807
      11     H     0.42334  0.42334  0.00000  0.15332
      12     O     4.15966  4.15966  0.00000 -0.31932
      13     C     3.04046  3.04046  0.00000 -0.08092
      14     H     0.44454  0.44454  0.00000  0.11092
      15     H     0.46457  0.46457  0.00000  0.07086
      16     H     0.45614  0.45614  0.00000  0.08771

   Total alpha = 29.00000, Total beta = 29.00000, Total charge = -0.00000
