  ==> Input File <==

--------------------------------------------------------------------------
set {
	reference rhf
	basis cc-pvtz
}

set_num_threads( 4 )
memory 2 gb

molecule MOL {
0 1

H	 1.036592	 -0.996233	 1.150237
O	 1.303903	 -0.620616	 0.330537
C	 0.704124	 0.627169	 0.166450
C	 -0.793473	 0.591216	 0.050087
H	 1.122037	 1.051674	 -0.738783
H	 0.977497	 1.298631	 0.978302
C	 -1.534243	 -0.493009	 -0.013340
H	 -1.264533	 1.559845	 0.016790
H	 -1.101195	 -1.466332	 -0.144046
H	 -2.604242	 -0.437780	 0.050785

	symmetry c1
}
set optking {
	frozen_dihedral = ("
		3 4 7 9
	")
}

ee = optimize('scf')
oeprop('DIPOLE', 'QUADRUPOLE', 'MULLIKEN_CHARGES')
f=open( 'psi4out.xyz', 'w' )
f.write( "10  " )
f.write( str(ee) + "\n" )
f.write( MOL.save_string_xyz() )
f.close()
--------------------------------------------------------------------------

    Molecular point group: c1
  Charge       = 0
  Multiplicity = 1
  Basis Set: CC-PVTZ
  Basis Set:
  @DF-RHF Final Energy:  -191.99693817544227
    Total Energy =                       -191.9969381754423807
    Molecular point group: c1
  Basis Set: CC-PVTZ
  Basis Set:
  Basis Set: CC-PVTZ
  Basis Set:
  @DF-RHF Final Energy:  -191.99809406942478
    Total Energy =                       -191.9980940694248943
  Basis Set: CC-PVTZ
  Basis Set:
  Basis Set: CC-PVTZ
  Basis Set:
  @DF-RHF Final Energy:  -191.99817566538030
    Total Energy =                       -191.9981756653804723
  Basis Set: CC-PVTZ
  Basis Set:
  Basis Set: CC-PVTZ
  Basis Set:
  @DF-RHF Final Energy:  -191.99817859177324
    Total Energy =                       -191.9981785917732395
  Basis Set: CC-PVTZ
  Basis Set:
  Charge       = 0
  Multiplicity = 1
  Basis Set: CC-PVTZ
  Basis Set:

    Orbital Energies (a.u.)
    -----------------------

    Doubly Occupied:

       1A    -20.554428     2A    -11.278408     3A    -11.231340
       4A    -11.217011     5A     -1.375046     6A     -1.062673
       7A     -0.932774     8A     -0.772129     9A     -0.692327
      10A     -0.665661    11A     -0.621979    12A     -0.573800
      13A     -0.539961    14A     -0.498207    15A     -0.452373
      16A     -0.369295

  @DF-RHF Final Energy:  -191.99817953840488

   => Energetics <=

    Nuclear Repulsion Energy =            119.5702204428949784
    One-Electron Energy =                -497.4619763279591780
    Two-Electron Energy =                 185.8935763466593016
    DFT Exchange-Correlation Energy =       0.0000000000000000
    Empirical Dispersion Energy =           0.0000000000000000
    PCM Polarization Energy =               0.0000000000000000
    EFP Energy =                            0.0000000000000000
    Total Energy =                       -191.9981795384048837
    Molecular point group: c1
  Basis Set: CC-PVTZ
  Basis Set:

  -Total Gradient:
     Atom            X                  Y                   Z
    ------   -----------------  -----------------  -----------------
       1       -0.000009433045    -0.000003106397    -0.000000649029
       2       -0.000035257396     0.000000295683    -0.000009879103
       3       -0.000309457395     0.000230408566     0.003734388671
       4        0.000420739595    -0.000280334928    -0.008319889976
       5       -0.000009149558    -0.000001624099    -0.000010398101
       6       -0.000007362682     0.000000256601    -0.000001921416
       7        0.000206306623    -0.000158375423     0.009561571236
       8        0.000015353844     0.000000794808    -0.000004750054
       9       -0.000272889999     0.000211864326    -0.004962227402
      10        0.000001150018    -0.000000179137     0.000013755173

  **** Optimization is complete! (in 5 steps) ****
    Final optimized geometry and variables:
    Molecular point group: c1

    Geometry (in Angstrom), charge = 0, multiplicity = 1:

    H            1.028946716942    -1.014887196776     0.953446449159
    O            1.315742035733    -0.614153656268     0.152376873217
    C            0.711372278114     0.633434605721     0.008388279848
    C           -0.785044628141     0.592660440734    -0.120462329950
    H            1.142739351202     1.082144814198    -0.878790271114
    H            0.965372032277     1.287195009554     0.840722325812
    C           -1.527576934720    -0.492540792082    -0.126481809245
    H           -1.259642301550     1.560176319128    -0.129637462152
    H           -1.095106980177    -1.472778129230    -0.194642747283
    H           -2.598288822879    -0.429091448574    -0.168986100818

  Mulliken Charges: (a.u.)
   Center  Symbol    Alpha    Beta     Spin     Total
       1     H     0.39070  0.39070  0.00000  0.21861
       2     O     4.19972  4.19972  0.00000 -0.39944
       3     C     2.95009  2.95009  0.00000  0.09981
       4     C     3.08183  3.08183  0.00000 -0.16366
       5     H     0.45363  0.45363  0.00000  0.09273
       6     H     0.46874  0.46874  0.00000  0.06252
       7     C     3.18017  3.18017  0.00000 -0.36034
       8     H     0.42338  0.42338  0.00000  0.15324
       9     H     0.42328  0.42328  0.00000  0.15345
      10     H     0.42846  0.42846  0.00000  0.14309

   Total alpha = 16.00000, Total beta = 16.00000, Total charge = -0.00000
