                              Psi4 1.0.54 Driver

  ==> Input File <==

--------------------------------------------------------------------------
set {
	reference rhf
	basis cc-pvtz
}

set_num_threads( 4 )
memory 2 gb

molecule MOL {
0 1

H	 5.003027	 2.639970	 0.104773
C	 4.632934	 1.655613	 -0.157790
C	 3.219466	 1.438782	 0.371753
H	 4.660255	 1.569418	 -1.238548
H	 5.322345	 0.923359	 0.250028
C	 2.668481	 0.056277	 0.029603
H	 2.564231	 2.200042	 -0.035788
H	 3.216997	 1.568003	 1.451623
C	 1.257098	 -0.191694	 0.552477
H	 2.675681	 -0.080967	 -1.044613
H	 3.325086	 -0.700311	 0.449398
C	 0.166485	 0.574257	 -0.177158
H	 1.006101	 -1.244538	 0.451058
H	 1.192316	 0.024814	 1.614760
C	 -1.180025	 0.697761	 0.509157
O	 0.347347	 1.043810	 -1.254230
C	 -2.285431	 -0.137488	 -0.145671
H	 -1.447360	 1.745713	 0.496200
H	 -1.065514	 0.394096	 1.546399
C	 -3.646545	 0.082747	 0.508954
H	 -2.348635	 0.118247	 -1.199806
H	 -2.034895	 -1.192387	 -0.096473
C	 -4.757412	 -0.737227	 -0.138149
H	 -3.900211	 1.137405	 0.459735
H	 -3.580878	 -0.166775	 1.564416
H	 -4.867876	 -0.486707	 -1.187777
H	 -4.549650	 -1.800049	 -0.072540
H	 -5.709585	 -0.556397	 0.346597

	symmetry c1
}
set optking {
	frozen_dihedral = ("
		16 12 15 17
	")
}

ee,wfn = optimize('scf', return_wfn=True)
oeprop( wfn, 'DIPOLE', 'QUADRUPOLE', 'MULLIKEN_CHARGES')
f=open( 'psi4out.xyz', 'w' )
f.write( "28  " )
f.write( str(ee) + "\n" )
f.write( MOL.save_string_xyz() )
f.close()
--------------------------------------------------------------------------

    Molecular point group: c1
  Charge       = 0
  Multiplicity = 1
  Basis Set: CC-PVTZ
  Basis Set:
  @DF-RHF Final Energy:  -426.31933080259546
    Total Energy =                       -426.3193308025948909
    Molecular point group: c1
  Basis Set: CC-PVTZ
  Basis Set:
  Basis Set: CC-PVTZ
  Basis Set:
  @DF-RHF Final Energy:  -426.31443711285442
    Total Energy =                       -426.3144371128547618
  Basis Set: CC-PVTZ
  Basis Set:
  Basis Set: CC-PVTZ
  Basis Set:
  @DF-RHF Final Energy:  -426.32006895431414
    Total Energy =                       -426.3200689543145927
  Basis Set: CC-PVTZ
  Basis Set:
  Basis Set: CC-PVTZ
  Basis Set:
  @DF-RHF Final Energy:  -426.31266859425466
    Total Energy =                       -426.3126685942553422
  Basis Set: CC-PVTZ
  Basis Set:
  @DF-RHF Final Energy:  -426.31595681652357
    Total Energy =                       -426.3159568165236806
  @DF-RHF Final Energy:  -426.31944438187031
    Total Energy =                       -426.3194443818698574
  Basis Set: CC-PVTZ
  Basis Set:
  @DF-RHF Final Energy:  -426.32023991256904
    Total Energy =                       -426.3202399125689226
  Basis Set: CC-PVTZ
  Basis Set:
  Basis Set: CC-PVTZ
  Basis Set:
  @DF-RHF Final Energy:  -426.32042666283667
    Total Energy =                       -426.3204266628358710
  Basis Set: CC-PVTZ
  Basis Set:
  Basis Set: CC-PVTZ
  Basis Set:
  @DF-RHF Final Energy:  -426.32043306902744
    Total Energy =                       -426.3204330690268762
  Basis Set: CC-PVTZ
  Basis Set:
  Charge       = 0
  Multiplicity = 1
  Basis Set: CC-PVTZ
  Basis Set:

    Orbital Energies (a.u.)
    -----------------------

    Doubly Occupied:

       1A    -20.536334     2A    -11.317302     3A    -11.229792
       4A    -11.226715     5A    -11.224960     6A    -11.220949
       7A    -11.214731     8A    -11.211468     9A    -11.209197
      10A    -11.203078    11A     -1.397083    12A     -1.092481
      13A     -1.078929    14A     -1.023197    15A     -0.991857
      16A     -0.909723    17A     -0.869187    18A     -0.807248
      19A     -0.796332    20A     -0.726281    21A     -0.671902
      22A     -0.651908    23A     -0.631203    24A     -0.617367
      25A     -0.608746    26A     -0.589896    27A     -0.576431
      28A     -0.571247    29A     -0.542977    30A     -0.532981
      31A     -0.523297    32A     -0.509725    33A     -0.498601
      34A     -0.481005    35A     -0.476742    36A     -0.475152
      37A     -0.469538    38A     -0.465279    39A     -0.456365
      40A     -0.393794

  @DF-RHF Final Energy:  -426.32043225500479

   => Energetics <=

    Nuclear Repulsion Energy =            530.3779938975301320
    One-Electron Energy =               -1629.3348542637490937
    Two-Electron Energy =                 672.6364281112146273
    DFT Exchange-Correlation Energy =       0.0000000000000000
    Empirical Dispersion Energy =           0.0000000000000000
    PCM Polarization Energy =               0.0000000000000000
    EFP Energy =                            0.0000000000000000
    Total Energy =                       -426.3204322550043344
    Molecular point group: c1
  Basis Set: CC-PVTZ
  Basis Set:

  -Total Gradient:
     Atom            X                  Y                   Z
    ------   -----------------  -----------------  -----------------
       1        0.000011823285     0.000002003552     0.000000106781
       2        0.000007442613    -0.000011148792    -0.000027037570
       3        0.000025523512     0.000029664744     0.000035097973
       4        0.000006039675     0.000007890648     0.000016310580
       5        0.000002475327     0.000001078372    -0.000002301627
       6        0.000011895659    -0.000070256008     0.000038375720
       7       -0.000012922653     0.000023328779    -0.000011896624
       8       -0.000002949460    -0.000007584163    -0.000022154610
       9       -0.000094083789    -0.000146875711    -0.000022262514
      10        0.000015435150    -0.000006145685     0.000002824335
      11       -0.000010258119     0.000018142510    -0.000011030568
      12        0.000141911275    -0.000104087198     0.000008966016
      13        0.000050515064     0.000076224040    -0.000019922922
      14        0.000004834243     0.000013164832     0.000035271943
      15       -0.000084123770     0.000200322433    -0.000127436260
      16       -0.000034486060     0.000067848185     0.000074469872
      17        0.000085014603    -0.000026715402     0.000039980082
      18       -0.000007771789    -0.000073276800     0.000003303556
      19        0.000033910490     0.000028873700    -0.000017782051
      20       -0.000080843016    -0.000055289330    -0.000007127473
      21       -0.000070860692     0.000065411783    -0.000033145284
      22       -0.000010889402    -0.000011913842    -0.000000512089
      23        0.000044001878    -0.000015489373     0.000016746226
      24        0.000025471958    -0.000002953904    -0.000022131774
      25       -0.000012148543    -0.000004170511     0.000027827217
      26        0.000011367304     0.000018647365    -0.000009105722
      27       -0.000003127169    -0.000026748082     0.000008128486
      28       -0.000053197578     0.000010053856     0.000026438302

  **** Optimization is complete! (in 10 steps) ****
    Final optimized geometry and variables:
    Molecular point group: c1

    Geometry (in Angstrom), charge = 0, multiplicity = 1:

    H            5.346586255927     1.079213830992    -0.546669880337
    C            4.721938741287     0.195403420346    -0.486825193709
    C            3.363309498431     0.521600682131     0.123857595648
    H            4.611853706681    -0.199904487462    -1.490761940179
    H            5.252050311930    -0.544839644703     0.103962648801
    C            2.461079817802    -0.705523593665     0.239261102701
    H            2.870576675992     1.276101078888    -0.476915257952
    H            3.508333603989     0.951183390352     1.112383683190
    C            1.092480228133    -0.412712932999     0.843906389417
    H            2.327780213337    -1.149908242703    -0.740127119876
    H            2.955302848591    -1.449301132175     0.857596902133
    C            0.115975521109     0.299522293122    -0.069532794664
    H            0.603463856489    -1.334926313839     1.151238956064
    H            1.186297486518     0.176444705842     1.753090979593
    C           -1.251097979500     0.624379149505     0.506434331671
    O            0.375325131546     0.570159925701    -1.197447179190
    C           -2.337970438772    -0.267132038829    -0.102882984954
    H           -1.460925718941     1.662067340392     0.274308798180
    H           -1.244611155116     0.518339006515     1.585270830894
    C           -3.730521358685     0.046169069551     0.436320502854
    H           -2.324129154776    -0.144108295720    -1.179571528221
    H           -2.104635728302    -1.310833957544     0.093996327354
    C           -4.814152382736    -0.839167090131    -0.169624210474
    H           -3.963215022690     1.088556546069     0.238055519956
    H           -3.734267761048    -0.067672562925     1.516976836936
    H           -4.856957588252    -0.721871738977    -1.247031134768
    H           -4.627263325398    -1.886936252732     0.040976870905
    H           -5.790729522698    -0.590998507045     0.229668710122

  Mulliken Charges: (a.u.)
   Center  Symbol    Alpha    Beta     Spin     Total
       1     H     0.44874  0.44874  0.00000  0.10251
       2     C     3.15166  3.15166  0.00000 -0.30331
       3     C     3.08395  3.08395  0.00000 -0.16790
       4     H     0.45215  0.45215  0.00000  0.09571
       5     H     0.45734  0.45734  0.00000  0.08532
       6     C     3.08722  3.08722  0.00000 -0.17443
       7     H     0.44370  0.44370  0.00000  0.11259
       8     H     0.45874  0.45874  0.00000  0.08251
       9     C     3.12594  3.12594  0.00000 -0.25188
      10     H     0.44637  0.44637  0.00000  0.10727
      11     H     0.44799  0.44799  0.00000  0.10402
      12     C     2.87115  2.87115  0.00000  0.25770
      13     H     0.43433  0.43433  0.00000  0.13135
      14     H     0.44227  0.44227  0.00000  0.11546
      15     C     3.09207  3.09207  0.00000 -0.18413
      16     O     4.18313  4.18313  0.00000 -0.36626
      17     C     3.09143  3.09143  0.00000 -0.18286
      18     H     0.44006  0.44006  0.00000  0.11988
      19     H     0.44810  0.44810  0.00000  0.10380
      20     C     3.08790  3.08790  0.00000 -0.17580
      21     H     0.43964  0.43964  0.00000  0.12072
      22     H     0.45413  0.45413  0.00000  0.09173
      23     C     3.14941  3.14941  0.00000 -0.29883
      24     H     0.45235  0.45235  0.00000  0.09530
      25     H     0.45450  0.45450  0.00000  0.09101
      26     H     0.45283  0.45283  0.00000  0.09435
      27     H     0.45514  0.45514  0.00000  0.08972
      28     H     0.44777  0.44777  0.00000  0.10447

   Total alpha = 40.00000, Total beta = 40.00000, Total charge = -0.00000

*** Psi4 exiting successfully. Buy a developer a beer!
