                              Psi4 1.0.54 Driver

  ==> Input File <==

--------------------------------------------------------------------------
set {
	reference rhf
	basis cc-pvtz
}

set_num_threads( 4 )
memory 2 gb

molecule MOL {
0 1

O	 2.439664	 0.206372	 0.923266
C	 1.704209	 0.119472	 -0.000093
C	 0.380337	 -0.600947	 -0.000234
O	 1.957926	 0.658574	 -1.181369
C	 -0.824290	 0.329213	 -0.000115
H	 0.371455	 -1.255476	 -0.865660
H	 0.371410	 -1.255787	 0.864952
C	 -2.146151	 -0.432825	 -0.000068
H	 -0.773936	 0.979158	 -0.866319
H	 -0.773838	 0.979034	 0.866186
C	 -3.366283	 0.483552	 0.000557
H	 -2.189286	 -1.084450	 -0.869996
H	 -2.188867	 -1.085083	 0.869399
C	 -4.687436	 -0.278003	 0.000108
H	 -3.325150	 1.134819	 -0.867957
H	 -3.325087	 1.133730	 0.869885
H	 -4.773783	 -0.912098	 -0.876078
H	 -5.531922	 0.401392	 0.000363
H	 -4.773901	 -0.912898	 0.875703
C	 3.172027	 1.367809	 -1.323740
H	 3.210164	 2.200216	 -0.636821
H	 3.191319	 1.723603	 -2.341034
H	 4.016019	 0.719830	 -1.139309

	symmetry c1
}
set optking {
	frozen_dihedral = ("
		1 2 3 6
	")
}

ee,wfn = optimize('scf', return_wfn=True)
oeprop( wfn, 'DIPOLE', 'QUADRUPOLE', 'MULLIKEN_CHARGES')
f=open( 'psi4out.xyz', 'w' )
f.write( "23  " )
f.write( str(ee) + "\n" )
f.write( MOL.save_string_xyz() )
f.close()
--------------------------------------------------------------------------

    Molecular point group: c1
  Charge       = 0
  Multiplicity = 1
  Basis Set: CC-PVTZ
  Basis Set:
  @DF-RHF Final Energy:  -423.12950005816833
    Total Energy =                       -423.1295000581686736
    Molecular point group: c1
  Basis Set: CC-PVTZ
  Basis Set:
  Basis Set: CC-PVTZ
  Basis Set:
  @DF-RHF Final Energy:  -423.12987107233346
    Total Energy =                       -423.1298710723333443
  Basis Set: CC-PVTZ
  Basis Set:
  Basis Set: CC-PVTZ
  Basis Set:
  @DF-RHF Final Energy:  -423.12867126613236
    Total Energy =                       -423.1286712661319598
  Basis Set: CC-PVTZ
  Basis Set:
  Basis Set: CC-PVTZ
  Basis Set:
  @DF-RHF Final Energy:  -423.12994834909745
    Total Energy =                       -423.1299483490970488
  Basis Set: CC-PVTZ
  Basis Set:
  Basis Set: CC-PVTZ
  Basis Set:
  @DF-RHF Final Energy:  -423.12996226939561
    Total Energy =                       -423.1299622693961737
  Basis Set: CC-PVTZ
  Basis Set:
  Charge       = 0
  Multiplicity = 1
  Basis Set: CC-PVTZ
  Basis Set:

    Orbital Energies (a.u.)
    -----------------------

    Doubly Occupied:

       1A    -20.596737     2A    -20.532489     3A    -11.363150
       4A    -11.278348     5A    -11.232163     6A    -11.226916
       7A    -11.219717     8A    -11.218180     9A    -11.210299
      10A     -1.471517    11A     -1.364346    12A     -1.098546
      13A     -1.046804    14A     -0.985282    15A     -0.935479
      16A     -0.847772    17A     -0.799093    18A     -0.775286
      19A     -0.695958    20A     -0.683415    21A     -0.675910
      22A     -0.655297    23A     -0.609370    24A     -0.594907
      25A     -0.580283    26A     -0.572452    27A     -0.543874
      28A     -0.535115    29A     -0.525163    30A     -0.506730
      31A     -0.492720    32A     -0.478331    33A     -0.471388
      34A     -0.468799    35A     -0.457726    36A     -0.430077

  @DF-RHF Final Energy:  -423.12996303655797

   => Energetics <=

    Nuclear Repulsion Energy =            455.6011193129796197
    One-Electron Energy =               -1479.1028897507248985
    Two-Electron Energy =                 600.3718074011871977
    DFT Exchange-Correlation Energy =       0.0000000000000000
    Empirical Dispersion Energy =           0.0000000000000000
    PCM Polarization Energy =               0.0000000000000000
    EFP Energy =                            0.0000000000000000
    Total Energy =                       -423.1299630365581379
    Molecular point group: c1
  Basis Set: CC-PVTZ
  Basis Set:

  -Total Gradient:
     Atom            X                  Y                   Z
    ------   -----------------  -----------------  -----------------
       1        0.000024392543    -0.000191189654    -0.000199205287
       2       -0.000055177012     0.000181574038     0.000432697101
       3       -0.000053271894     0.000102095175    -0.000213914415
       4        0.000036375561     0.000079914806    -0.000129399844
       5        0.000024089535    -0.000013608369    -0.000008488805
       6        0.000084222368    -0.000142272529     0.000129511480
       7       -0.000007175383    -0.000000879454     0.000002481398
       8       -0.000020532796     0.000001839869    -0.000005902261
       9       -0.000004432713    -0.000005494269     0.000000198755
      10       -0.000006022349     0.000009574198     0.000002234437
      11        0.000001756195    -0.000001908046     0.000004149453
      12        0.000001388425     0.000000894859    -0.000005047057
      13        0.000003358568    -0.000005860476    -0.000000303676
      14       -0.000006816415     0.000003206198     0.000004250387
      15       -0.000000385165    -0.000000813946    -0.000002268673
      16       -0.000001223162     0.000007790974     0.000003913288
      17        0.000000204436    -0.000002153168    -0.000004369134
      18       -0.000003311780     0.000000140341     0.000000123901
      19       -0.000001582359    -0.000002760524     0.000004969687
      20        0.000004983507    -0.000021999167    -0.000025038583
      21       -0.000006302812    -0.000024997804    -0.000012398549
      22        0.000013322271     0.000000901780     0.000028866129
      23       -0.000027859570     0.000026005170    -0.000007059728

  **** Optimization is complete! (in 6 steps) ****
    Final optimized geometry and variables:
    Molecular point group: c1

    Geometry (in Angstrom), charge = 0, multiplicity = 1:

    O            2.550388661292     0.068923101492     1.112463201150
    C            1.822910213423    -0.072225012767     0.188937114371
    C            0.526352461045    -0.837576496430     0.224261596217
    O            2.061794669427     0.444854558224    -1.005688116768
    C           -0.694463041198     0.084772111353     0.145825184433
    H            0.516084287275    -1.532024398003    -0.607819108021
    H            0.515061896815    -1.403422749509     1.144716205301
    C           -2.008981991492    -0.686370536755     0.215653958194
    H           -0.654242393378     0.655260875642    -0.775134141841
    H           -0.651367687725     0.800442302669     0.961620448401
    C           -3.237916770855     0.215660405495     0.147625982728
    H           -2.046558509218    -1.405981832358    -0.598686028329
    H           -2.038953291790    -1.264709500225     1.135658765802
    C           -4.550853296402    -0.556940350387     0.216939911574
    H           -3.207924027561     0.793623511728    -0.771870117731
    H           -3.199887688090     0.934961861469     0.960939163943
    H           -4.634471282218    -1.261290578195    -0.604019623809
    H           -5.402317159023     0.111708078095     0.166474279969
    H           -4.626012268897    -1.118738157527     1.141984126620
    C            3.241018285151     1.208597695563    -1.157883056445
    H            3.232941524502     2.058911182821    -0.492265143141
    H            3.251890292976     1.538968251963    -2.183869461118
    H            4.113549896499     0.607243074725    -0.950392381770

  Mulliken Charges: (a.u.)
   Center  Symbol    Alpha    Beta     Spin     Total
       1     O     4.20130  4.20130  0.00000 -0.40261
       2     C     2.80835  2.80835  0.00000  0.38329
       3     C     3.07625  3.07625  0.00000 -0.15250
       4     O     4.15031  4.15031  0.00000 -0.30063
       5     C     3.10190  3.10190  0.00000 -0.20381
       6     H     0.44601  0.44601  0.00000  0.10798
       7     H     0.43790  0.43790  0.00000  0.12419
       8     C     3.09076  3.09076  0.00000 -0.18152
       9     H     0.44421  0.44421  0.00000  0.11159
      10     H     0.44696  0.44696  0.00000  0.10608
      11     C     3.08442  3.08442  0.00000 -0.16883
      12     H     0.45409  0.45409  0.00000  0.09183
      13     H     0.45274  0.45274  0.00000  0.09451
      14     C     3.15027  3.15027  0.00000 -0.30055
      15     H     0.45384  0.45384  0.00000  0.09232
      16     H     0.45321  0.45321  0.00000  0.09359
      17     H     0.45493  0.45493  0.00000  0.09014
      18     H     0.44762  0.44762  0.00000  0.10476
      19     H     0.45449  0.45449  0.00000  0.09102
      20     C     3.03778  3.03778  0.00000 -0.07557
      21     H     0.45446  0.45446  0.00000  0.09109
      22     H     0.44558  0.44558  0.00000  0.10884
      23     H     0.45261  0.45261  0.00000  0.09478

   Total alpha = 36.00000, Total beta = 36.00000, Total charge = -0.00000

*** Psi4 exiting successfully. Buy a developer a beer!
