  ==> Input File <==

--------------------------------------------------------------------------
set {
	reference rhf
	basis cc-pvtz
}

set_num_threads( 4 )
memory 2 gb

molecule MOL {
0 1

H	 -2.644180	 -0.653737	 1.272255
C	 -2.092774	 -0.380414	 0.391915
O	 -0.808934	 -0.154049	 0.752536
F	 -2.163230	 -1.351640	 -0.507133
F	 -2.627232	 0.691260	 -0.169301
C	 0.085006	 0.250800	 -0.215074
C	 1.370439	 -0.548013	 -0.012993
Cl	 0.421658	 1.987697	 -0.091007
H	 -0.272219	 0.063284	 -1.212508
F	 1.195907	 -1.794975	 -0.370271
F	 1.686906	 -0.532880	 1.260166
F	 2.371173	 -0.054699	 -0.689323

	symmetry c1
}
set optking {
	frozen_dihedral = ("
		10 7 6 9
	")
}

ee = optimize('scf')
oeprop('DIPOLE', 'QUADRUPOLE', 'MULLIKEN_CHARGES')
f=open( 'psi4out.xyz', 'w' )
f.write( "12  " )
f.write( str(ee) + "\n" )
f.write( MOL.save_string_xyz() )
f.close()
--------------------------------------------------------------------------

    Molecular point group: c1
  Charge       = 0
  Multiplicity = 1
  Basis Set: CC-PVTZ
  Basis Set:
  @DF-RHF Final Energy: -1146.61867845700272
    Total Energy =                      -1146.6186784570029431
    Molecular point group: c1
  Basis Set: CC-PVTZ
  Basis Set:
  Basis Set: CC-PVTZ
  Basis Set:
  @DF-RHF Final Energy: -1146.61934589817611
    Total Energy =                      -1146.6193458981756521
  Basis Set: CC-PVTZ
  Basis Set:
  Basis Set: CC-PVTZ
  Basis Set:
  @DF-RHF Final Energy: -1146.61974315621683
    Total Energy =                      -1146.6197431562163729
  Basis Set: CC-PVTZ
  Basis Set:
  Basis Set: CC-PVTZ
  Basis Set:
  @DF-RHF Final Energy: -1146.61976115408402
    Total Energy =                      -1146.6197611540833350
  Basis Set: CC-PVTZ
  Basis Set:
  Basis Set: CC-PVTZ
  Basis Set:
  @DF-RHF Final Energy: -1146.61976373109246
    Total Energy =                      -1146.6197637310926893
  Basis Set: CC-PVTZ
  Basis Set:
  Charge       = 0
  Multiplicity = 1
  Basis Set: CC-PVTZ
  Basis Set:

    Orbital Energies (a.u.)
    -----------------------

    Doubly Occupied:

       1A   -104.857194     2A    -26.354227     3A    -26.353965
       4A    -26.353651     5A    -26.343086     6A    -26.342975
       7A    -20.640684     8A    -11.520302     9A    -11.483575
      10A    -11.400996    11A    -10.582729    12A     -8.049533
      13A     -8.047533    14A     -8.047466    15A     -1.767947
      16A     -1.724544    17A     -1.663297    18A     -1.660781
      19A     -1.644610    20A     -1.486554    21A     -1.178565
      22A     -1.053642    23A     -0.990301    24A     -0.924544
      25A     -0.864741    26A     -0.858076    27A     -0.852390
      28A     -0.829323    29A     -0.817736    30A     -0.794009
      31A     -0.732934    32A     -0.732352    33A     -0.712490
      34A     -0.708341    35A     -0.684791    36A     -0.681282
      37A     -0.665256    38A     -0.664015    39A     -0.649633
      40A     -0.638885    41A     -0.598591    42A     -0.581964
      43A     -0.526027    44A     -0.478312    45A     -0.470459

  @DF-RHF Final Energy: -1146.61976433589234

   => Energetics <=

    Nuclear Repulsion Energy =            738.2297752361106404
    One-Electron Energy =               -3059.6704661854091682
    Two-Electron Energy =                1174.8209266134063000
    DFT Exchange-Correlation Energy =       0.0000000000000000
    Empirical Dispersion Energy =           0.0000000000000000
    PCM Polarization Energy =               0.0000000000000000
    EFP Energy =                            0.0000000000000000
    Total Energy =                      -1146.6197643358923415
    Molecular point group: c1
  Basis Set: CC-PVTZ
  Basis Set:

  -Total Gradient:
     Atom            X                  Y                   Z
    ------   -----------------  -----------------  -----------------
       1       -0.000003615152     0.000002861693    -0.000002472952
       2        0.000062510795    -0.000023418461    -0.000088972320
       3        0.000013549307     0.000064824893     0.000033070947
       4       -0.000038022316    -0.000016685419     0.000010096565
       5       -0.000059711432    -0.000014438839     0.000024553128
       6        0.002685195095     0.003616259719    -0.002334553046
       7       -0.001534254580    -0.001371270810     0.004049798739
       8        0.000032093448    -0.000020674156     0.000007854205
       9       -0.002010938841    -0.002804515947     0.001292324047
      10        0.000842680878     0.000493095761    -0.002833790911
      11       -0.000037167040     0.000013226736    -0.000146377311
      12        0.000047679843     0.000060734802    -0.000011531095

  **** Optimization is complete! (in 6 steps) ****
    Final optimized geometry and variables:
    Molecular point group: c1

    Geometry (in Angstrom), charge = 0, multiplicity = 1:

    H           -2.649249472861    -0.674628786673     1.239054265507
    C           -2.091347121820    -0.388471493522     0.366819772061
    O           -0.810760515466    -0.166561754441     0.739985136436
    F           -2.154796769029    -1.347557432464    -0.546185860487
    F           -2.623541899692     0.690088929068    -0.183527701355
    C            0.091931448060     0.255455003717    -0.216624682807
    C            1.374676216895    -0.546086851144     0.003153852825
    CL           0.404672441230     1.992074801826    -0.077774398942
    H           -0.264260075790     0.049093035779    -1.210665620483
    F            1.154478192690    -1.794263510034    -0.340682216620
    F            1.767989547848    -0.518075458441     1.245460707978
    F            2.342769509476    -0.094489978257    -0.753277505621

  Mulliken Charges: (a.u.)
   Center  Symbol    Alpha    Beta     Spin     Total
       1     H     0.45200  0.45200  0.00000  0.09601
       2     C     2.74031  2.74031  0.00000  0.51937
       3     O     4.15665  4.15665  0.00000 -0.31330
       4     F     4.61819  4.61819  0.00000 -0.23638
       5     F     4.61513  4.61513  0.00000 -0.23026
       6     C     2.93872  2.93872  0.00000  0.12257
       7     C     2.66982  2.66982  0.00000  0.66036
       8    CL     8.57234  8.57234  0.00000 -0.14468
       9     H     0.43024  0.43024  0.00000  0.13953
      10     F     4.60564  4.60564  0.00000 -0.21128
      11     F     4.59935  4.59935  0.00000 -0.19870
      12     F     4.60162  4.60162  0.00000 -0.20324

   Total alpha = 45.00000, Total beta = 45.00000, Total charge = -0.00000
