                              Psi4 1.0.54 Driver

  ==> Input File <==

--------------------------------------------------------------------------
set {
	reference rhf
	basis cc-pvtz
}

set_num_threads( 4 )
memory 2 gb

molecule MOL {
0 1

O	 2.868453	 1.353349	 -0.000734
C	 2.841259	 0.166180	 -0.000295
C	 1.542794	 -0.614730	 -0.000853
C	 4.113372	 -0.651103	 0.000743
C	 0.288398	 0.247429	 0.000314
H	 1.557171	 -1.273139	 -0.866508
H	 1.557484	 -1.274998	 0.863344
C	 -0.993089	 -0.581367	 -0.000217
H	 0.305153	 0.900562	 -0.864701
H	 0.305567	 0.898805	 0.866656
C	 -2.258482	 0.271340	 0.000669
H	 -1.002280	 -1.233920	 -0.870484
H	 -1.002061	 -1.235367	 0.868958
C	 -2.215672	 1.420540	 1.003785
H	 -3.116385	 -0.360759	 0.216465
H	 -2.421112	 0.672325	 -0.996773
C	 -3.483585	 2.267985	 0.998866
H	 -2.054329	 1.020571	 2.001248
H	 -1.359170	 2.053615	 0.788056
H	 -4.354685	 1.670112	 1.245391
H	 -3.420713	 3.073760	 1.721219
H	 -3.654248	 2.710992	 0.023333
H	 4.145311	 -1.294584	 -0.871587
H	 4.970080	 0.004978	 -0.000091
H	 4.145223	 -1.291980	 0.874988

	symmetry c1
}
set optking {
	frozen_dihedral = ("
		15 11 8 12
	")
}

ee,wfn = optimize('scf', return_wfn=True)
oeprop( wfn, 'DIPOLE', 'QUADRUPOLE', 'MULLIKEN_CHARGES')
f=open( 'psi4out.xyz', 'w' )
f.write( "25  " )
f.write( str(ee) + "\n" )
f.write( MOL.save_string_xyz() )
f.close()
--------------------------------------------------------------------------

    Molecular point group: c1
  Charge       = 0
  Multiplicity = 1
  Basis Set: CC-PVTZ
  Basis Set:
  @DF-RHF Final Energy:  -387.26985107533403
    Total Energy =                       -387.2698510753336905
    Molecular point group: c1
  Basis Set: CC-PVTZ
  Basis Set:
  Basis Set: CC-PVTZ
  Basis Set:
  @DF-RHF Final Energy:  -387.26913728456196
    Total Energy =                       -387.2691372845623619
  Basis Set: CC-PVTZ
  Basis Set:
  Basis Set: CC-PVTZ
  Basis Set:
  @DF-RHF Final Energy:  -387.27147490913325
    Total Energy =                       -387.2714749091331896
  Basis Set: CC-PVTZ
  Basis Set:
  Basis Set: CC-PVTZ
  Basis Set:
  @DF-RHF Final Energy:  -387.27164400628038
    Total Energy =                       -387.2716440062802121
  Basis Set: CC-PVTZ
  Basis Set:
  Basis Set: CC-PVTZ
  Basis Set:
  @DF-RHF Final Energy:  -387.27144250902381
    Total Energy =                       -387.2714425090237000
  Basis Set: CC-PVTZ
  Basis Set:
  Basis Set: CC-PVTZ
  Basis Set:
  @DF-RHF Final Energy:  -387.27163992567654
    Total Energy =                       -387.2716399256764817
  Basis Set: CC-PVTZ
  Basis Set:
  Basis Set: CC-PVTZ
  Basis Set:
  @DF-RHF Final Energy:  -387.27165795789284
    Total Energy =                       -387.2716579578930123
  Basis Set: CC-PVTZ
  Basis Set:
  Charge       = 0
  Multiplicity = 1
  Basis Set: CC-PVTZ
  Basis Set:

    Orbital Energies (a.u.)
    -----------------------

    Doubly Occupied:

       1A    -20.538909     2A    -11.320514     3A    -11.230040
       4A    -11.226582     5A    -11.215641     6A    -11.214137
       7A    -11.212204     8A    -11.210876     9A    -11.204986
      10A     -1.398915    11A     -1.094815    12A     -1.055542
      13A     -1.013972    14A     -0.969638    15A     -0.889430
      16A     -0.832079    17A     -0.772725    18A     -0.732045
      19A     -0.659319    20A     -0.652413    21A     -0.635547
      22A     -0.624434    23A     -0.600187    24A     -0.581409
      25A     -0.570036    26A     -0.562282    27A     -0.550199
      28A     -0.519987    29A     -0.503008    30A     -0.499670
      31A     -0.492131    32A     -0.479795    33A     -0.459473
      34A     -0.457853    35A     -0.447030    36A     -0.401826

  @DF-RHF Final Energy:  -387.27165800325668

   => Energetics <=

    Nuclear Repulsion Energy =            446.3856873795592719
    One-Electron Energy =               -1409.6553931388693854
    Two-Electron Energy =                 575.9980477560535519
    DFT Exchange-Correlation Energy =       0.0000000000000000
    Empirical Dispersion Energy =           0.0000000000000000
    PCM Polarization Energy =               0.0000000000000000
    EFP Energy =                            0.0000000000000000
    Total Energy =                       -387.2716580032565616
    Molecular point group: c1
  Basis Set: CC-PVTZ
  Basis Set:

  -Total Gradient:
     Atom            X                  Y                   Z
    ------   -----------------  -----------------  -----------------
       1        0.000016420840     0.000004940898     0.000000538725
       2       -0.000008936371    -0.000017503131    -0.000000822481
       3        0.000001939088     0.000002706921     0.000008048834
       4        0.000003496617     0.000009773680    -0.000013123846
       5       -0.000011386834    -0.000004304348     0.000002568535
       6       -0.000000437801    -0.000000978695    -0.000004152646
       7       -0.000003200555    -0.000003153470    -0.000004379333
       8       -0.001926647836    -0.003195491566     0.003599332765
       9       -0.000000694546    -0.000001302284     0.000004397104
      10        0.000000656008     0.000003781757     0.000004256623
      11       -0.000241090095    -0.000484996450    -0.005148989016
      12        0.001668068760     0.002782543135    -0.002270742719
      13       -0.000003106868     0.000000948165    -0.000000420192
      14        0.000013694265     0.000005568997    -0.000023253864
      15        0.000492777435     0.000887240365     0.003827008087
      16        0.000004729086     0.000000595702     0.000002522461
      17       -0.000014244361    -0.000000486216     0.000007113595
      18        0.000002154155    -0.000003358452    -0.000003497943
      19        0.000010750148     0.000007696770    -0.000000857567
      20       -0.000008691885    -0.000001173789     0.000000185879
      21       -0.000001914621     0.000001346295     0.000001690564
      22        0.000002184174    -0.000000184854     0.000002196920
      23       -0.000001430951    -0.000001605211     0.000004975547
      24        0.000007744041     0.000002131897     0.000000678732
      25       -0.000002831897     0.000005263882     0.000004725236

  **** Optimization is complete! (in 8 steps) ****
    Final optimized geometry and variables:
    Molecular point group: c1

    Geometry (in Angstrom), charge = 0, multiplicity = 1:

    O            2.595537840186     0.984342282395    -0.378317303136
    C            2.582360574337    -0.202849885259    -0.401803050764
    C            1.298841044367    -1.001734500337    -0.299000023300
    C            3.858640566202    -1.002316156312    -0.537462419666
    C            0.039359045954    -0.156655234124    -0.167681028242
    H            1.243390613822    -1.646025934659    -1.173455748635
    H            1.400146227697    -1.675631825479     0.548931647810
    C           -1.219816424143    -1.016706441357    -0.053293935067
    H           -0.038671516160     0.499873517473    -1.027711120495
    H            0.142063189234     0.488838996402     0.694319817738
    C           -2.537920621610    -0.235322106627    -0.063716429255
    H           -1.227967623667    -1.700229336802    -0.898394807942
    H           -1.162270490279    -1.622385953870     0.847268490664
    C           -2.607626787720     0.940498478097     0.911441183713
    H           -3.337958028115    -0.921540215926     0.200430136191
    H           -2.742023870268     0.122634860190    -1.068984246032
    C           -3.992796120391     1.577772106703     0.959053546224
    H           -2.335116919790     0.599000856344     1.907177840756
    H           -1.880599758467     1.696769172678     0.638187393459
    H           -4.743884647646     0.862810589167     1.278373918277
    H           -4.016869504045     2.413367365319     1.649069715121
    H           -4.285801743547     1.948209507791    -0.017886046255
    H            3.817035700359    -1.625397960849    -1.424053257749
    H            4.704057018581    -0.334772175307    -0.601875625019
    H            3.978621990264    -1.662221098564     0.314698465624

  Mulliken Charges: (a.u.)
   Center  Symbol    Alpha    Beta     Spin     Total
       1     O     4.17085  4.17085  0.00000 -0.34169
       2     C     2.86135  2.86135  0.00000  0.27729
       3     C     3.11554  3.11554  0.00000 -0.23107
       4     C     3.15147  3.15147  0.00000 -0.30293
       5     C     3.08627  3.08627  0.00000 -0.17254
       6     H     0.44450  0.44450  0.00000  0.11101
       7     H     0.44538  0.44538  0.00000  0.10925
       8     C     3.09962  3.09962  0.00000 -0.19924
       9     H     0.44559  0.44559  0.00000  0.10881
      10     H     0.44271  0.44271  0.00000  0.11457
      11     C     3.09277  3.09277  0.00000 -0.18554
      12     H     0.45117  0.45117  0.00000  0.09765
      13     H     0.45292  0.45292  0.00000  0.09415
      14     C     3.08962  3.08962  0.00000 -0.17924
      15     H     0.45070  0.45070  0.00000  0.09859
      16     H     0.45215  0.45215  0.00000  0.09569
      17     C     3.15058  3.15058  0.00000 -0.30116
      18     H     0.45436  0.45436  0.00000  0.09128
      19     H     0.44787  0.44787  0.00000  0.10426
      20     H     0.45536  0.45536  0.00000  0.08928
      21     H     0.44791  0.44791  0.00000  0.10418
      22     H     0.45513  0.45513  0.00000  0.08974
      23     H     0.45030  0.45030  0.00000  0.09941
      24     H     0.43538  0.43538  0.00000  0.12923
      25     H     0.45049  0.45049  0.00000  0.09903

   Total alpha = 36.00000, Total beta = 36.00000, Total charge = -0.00000

*** Psi4 exiting successfully. Buy a developer a beer!
