                              Psi4 1.0.54 Driver

  ==> Input File <==

--------------------------------------------------------------------------
set {
	reference rhf
	basis cc-pvtz
}

set_num_threads( 4 )
memory 2 gb

molecule MOL {
0 1

H	 -4.230259	 0.539112	 0.036360
O	 -3.515113	 -0.019339	 -0.206321
C	 -2.302264	 0.528872	 0.237390
C	 -1.175688	 -0.398187	 -0.171891
H	 -2.148018	 1.514076	 -0.197759
H	 -2.310727	 0.646384	 1.319032
C	 0.196029	 0.106276	 0.266738
H	 -1.201873	 -0.515469	 -1.250677
H	 -1.365975	 -1.378728	 0.252664
C	 1.330220	 -0.826136	 -0.155230
H	 0.359542	 1.097229	 -0.145561
H	 0.212134	 0.218135	 1.348778
C	 2.719700	 -0.407669	 0.328325
H	 1.339388	 -0.911200	 -1.239363
H	 1.119001	 -1.821953	 0.224128
C	 3.288959	 -1.265792	 1.455679
H	 2.667963	 0.622175	 0.668105
H	 3.408709	 -0.413904	 -0.512307
H	 2.617376	 -1.284000	 2.308150
H	 3.453892	 -2.289882	 1.143068
H	 4.240608	 -0.872655	 1.794766

	symmetry c1
}
set optking {
	frozen_dihedral = ("
		16 13 10 14
	")
}

ee,wfn = optimize('scf', return_wfn=True)
oeprop( wfn, 'DIPOLE', 'QUADRUPOLE', 'MULLIKEN_CHARGES')
f=open( 'psi4out.xyz', 'w' )
f.write( "21  " )
f.write( str(ee) + "\n" )
f.write( MOL.save_string_xyz() )
f.close()
--------------------------------------------------------------------------

    Molecular point group: c1
  Charge       = 0
  Multiplicity = 1
  Basis Set: CC-PVTZ
  Basis Set:
  @DF-RHF Final Energy:  -310.32922759246009
    Total Energy =                       -310.3292275924601995
    Molecular point group: c1
  Basis Set: CC-PVTZ
  Basis Set:
  Basis Set: CC-PVTZ
  Basis Set:
  @DF-RHF Final Energy:  -310.32961395831541
    Total Energy =                       -310.3296139583152353
  Basis Set: CC-PVTZ
  Basis Set:
  Basis Set: CC-PVTZ
  Basis Set:
  @DF-RHF Final Energy:  -310.32966666650890
    Total Energy =                       -310.3296666665087287
  Basis Set: CC-PVTZ
  Basis Set:
  Charge       = 0
  Multiplicity = 1
  Basis Set: CC-PVTZ
  Basis Set:

    Orbital Energies (a.u.)
    -----------------------

    Doubly Occupied:

       1A    -20.545461     2A    -11.265122     3A    -11.214220
       4A    -11.212449     5A    -11.210674     6A    -11.208894
       7A    -11.206572     8A     -1.363325     9A     -1.086318
      10A     -1.034545    11A     -0.956980    12A     -0.870124
      13A     -0.804864    14A     -0.788489    15A     -0.696419
      16A     -0.662678    17A     -0.621726    18A     -0.607405
      19A     -0.587911    20A     -0.566734    21A     -0.540994
      22A     -0.523247    23A     -0.508517    24A     -0.487468
      25A     -0.479370    26A     -0.463206    27A     -0.453655
      28A     -0.443355    29A     -0.437449

  @DF-RHF Final Energy:  -310.32966640040848

   => Energetics <=

    Nuclear Repulsion Energy =            310.8746042936066374
    One-Electron Energy =               -1036.7121960870074417
    Two-Electron Energy =                 415.5079253929923198
    DFT Exchange-Correlation Energy =       0.0000000000000000
    Empirical Dispersion Energy =           0.0000000000000000
    PCM Polarization Energy =               0.0000000000000000
    EFP Energy =                            0.0000000000000000
    Total Energy =                       -310.3296664004085414
    Molecular point group: c1
  Basis Set: CC-PVTZ
  Basis Set:

  -Total Gradient:
     Atom            X                  Y                   Z
    ------   -----------------  -----------------  -----------------
       1        0.000003021633    -0.000000516002    -0.000000271515
       2       -0.000007297364    -0.000001960096     0.000002135316
       3        0.000001813806     0.000019959528    -0.000046599692
       4       -0.000018384909     0.000077138653    -0.000046404757
       5       -0.000002853007     0.000007507230     0.000003538927
       6        0.000006181727    -0.000019720624    -0.000008585585
       7       -0.000044065719     0.000006231011     0.000136495074
       8       -0.000011425969    -0.000013307436    -0.000016188445
       9        0.000033813450     0.000026023969     0.000031693586
      10       -0.000451220348     0.002435315782    -0.000722990450
      11        0.000025080755     0.000053195438     0.000053446383
      12       -0.000016067280    -0.000030774674    -0.000003310056
      13       -0.000932759168     0.001012953689     0.001449095750
      14        0.000697535664    -0.002357166340     0.000244436919
      15        0.000167709610    -0.000021919293     0.000053792703
      16        0.000715614461    -0.001165377437    -0.001058026659
      17       -0.000152144699    -0.000004630635    -0.000085396529
      18        0.000014713449     0.000029139323    -0.000017843160
      19        0.000041165890    -0.000030759920     0.000035846901
      20       -0.000055586448    -0.000018268156    -0.000006434635
      21       -0.000014845534    -0.000003064008     0.000001569924

  **** Optimization is complete! (in 4 steps) ****
    Final optimized geometry and variables:
    Molecular point group: c1

    Geometry (in Angstrom), charge = 0, multiplicity = 1:

    H           -4.222883745545     0.911598455730    -0.227446879330
    O           -3.516657443785     0.343673894328    -0.474064647419
    C           -2.296570079631     0.863254415187    -0.016123300959
    C           -1.184625627178    -0.078196753848    -0.432517120639
    H           -2.121955931390     1.851535272154    -0.436295140224
    H           -2.308931409295     0.965454236468     1.067017848669
    C            0.193035215985     0.394832651682     0.019022260034
    H           -1.207333284291    -0.180658773406    -1.512888706597
    H           -1.394124182922    -1.060784851241    -0.021919031328
    C            1.320739859476    -0.540323244497    -0.410879885592
    H            0.385139346113     1.388215549562    -0.379422030115
    H            0.206545964895     0.494337970987     1.102260561883
    C            2.713894967614    -0.096882497945     0.075175481708
    H            1.317815580247    -0.639641002309    -1.491476567658
    H            1.112223207785    -1.537066394112    -0.031805706257
    C            3.263294549349    -0.956154473687     1.211129764700
    H            2.675939218418     0.940371612735     0.392772170630
    H            3.416526741619    -0.129163058935    -0.750662949433
    H            2.597882727184    -0.949463321711     2.068696171386
    H            3.379528597599    -1.986872347221     0.894178914405
    H            4.231901595648    -0.599102147525     1.542591371293

  Mulliken Charges: (a.u.)
   Center  Symbol    Alpha    Beta     Spin     Total
       1     H     0.39760  0.39760  0.00000  0.20480
       2     O     4.19431  4.19431  0.00000 -0.38863
       3     C     2.96314  2.96314  0.00000  0.07372
       4     C     3.08565  3.08565  0.00000 -0.17131
       5     H     0.47487  0.47487  0.00000  0.05026
       6     H     0.47499  0.47499  0.00000  0.05002
       7     C     3.10045  3.10045  0.00000 -0.20090
       8     H     0.45099  0.45099  0.00000  0.09801
       9     H     0.45058  0.45058  0.00000  0.09885
      10     C     3.09505  3.09505  0.00000 -0.19011
      11     H     0.45466  0.45466  0.00000  0.09068
      12     H     0.45476  0.45476  0.00000  0.09048
      13     C     3.09038  3.09038  0.00000 -0.18076
      14     H     0.44734  0.44734  0.00000  0.10532
      15     H     0.45468  0.45468  0.00000  0.09064
      16     C     3.14691  3.14691  0.00000 -0.29383
      17     H     0.45490  0.45490  0.00000  0.09021
      18     H     0.44901  0.44901  0.00000  0.10197
      19     H     0.45560  0.45560  0.00000  0.08880
      20     H     0.45448  0.45448  0.00000  0.09105
      21     H     0.44964  0.44964  0.00000  0.10072

   Total alpha = 29.00000, Total beta = 29.00000, Total charge =  0.00000

*** Psi4 exiting successfully. Buy a developer a beer!
