  ==> Input File <==

--------------------------------------------------------------------------
set {
	reference rhf
	basis cc-pvtz
}

set_num_threads( 4 )
memory 2 gb

molecule MOL {
0 1

H	 -2.122914	 1.354011	 -2.124813
O	 -2.258976	 1.913784	 -1.381447
C	 -1.118959	 1.916352	 -0.578963
C	 -0.793473	 0.591216	 0.050087
H	 -1.294615	 2.647812	 0.201047
H	 -0.251713	 2.262283	 -1.138351
C	 -1.534243	 -0.493009	 -0.013340
H	 0.136560	 0.568819	 0.593948
H	 -1.101195	 -1.466332	 -0.144046
H	 -2.604242	 -0.437780	 0.050785

	symmetry c1
}
set optking {
	frozen_dihedral = ("
		3 4 7 9
	")
}

ee = optimize('scf')
oeprop('DIPOLE', 'QUADRUPOLE', 'MULLIKEN_CHARGES')
f=open( 'psi4out.xyz', 'w' )
f.write( "10  " )
f.write( str(ee) + "\n" )
f.write( MOL.save_string_xyz() )
f.close()
--------------------------------------------------------------------------

    Molecular point group: c1
  Charge       = 0
  Multiplicity = 1
  Basis Set: CC-PVTZ
  Basis Set:
  @DF-RHF Final Energy:  -191.96318985909903
    Total Energy =                       -191.9631898590991170
    Molecular point group: c1
  Basis Set: CC-PVTZ
  Basis Set:
  Basis Set: CC-PVTZ
  Basis Set:
  @DF-RHF Final Energy:  -191.97839936518818
    Total Energy =                       -191.9783993651881246
  Basis Set: CC-PVTZ
  Basis Set:
  Basis Set: CC-PVTZ
  Basis Set:
  @DF-RHF Final Energy:  -191.98348566213210
    Total Energy =                       -191.9834856621321251
  Basis Set: CC-PVTZ
  Basis Set:
  Basis Set: CC-PVTZ
  Basis Set:
  @DF-RHF Final Energy:  -191.98370575361568
    Total Energy =                       -191.9837057536157658
  Basis Set: CC-PVTZ
  Basis Set:
  @DF-RHF Final Energy:  -191.98372293608776
    Total Energy =                       -191.9837229360878155
  @DF-RHF Final Energy:  -191.98372144188218
    Total Energy =                       -191.9837214418820963
  @DF-RHF Final Energy:  -191.97676894494816
    Total Energy =                       -191.9767689449481622
  @DF-RHF Final Energy:  -191.91720239273610
    Total Energy =                       -191.9172023927361295
  @DF-RHF Final Energy:  -191.96257843119776
    Total Energy =                       -191.9625784311977554
  @DF-RHF Final Energy:  -191.98012607223919
    Total Energy =                       -191.9801260722391305
  @DF-RHF Final Energy:  -191.98330090957160
    Total Energy =                       -191.9833009095715397
  @DF-RHF Final Energy:  -191.98361750619389
    Total Energy =                       -191.9836175061939798
  @DF-RHF Final Energy:  -191.98366043315951
    Total Energy =                       -191.9836604331595709
  @DF-RHF Final Energy:  -191.98368273946016
    Total Energy =                       -191.9836827394603915
  @DF-RHF Final Energy:  -191.98368996096670
    Total Energy =                       -191.9836899609666148
  @DF-RHF Final Energy:  -191.98369862739324
    Total Energy =                       -191.9836986273931814
  @DF-RHF Final Energy:  -191.98365054474448
    Total Energy =                       -191.9836505447444779
  @DF-RHF Final Energy:  -191.98370331772287
    Total Energy =                       -191.9837033177228989
  @DF-RHF Final Energy:  -191.98369480806230
    Total Energy =                       -191.9836948080622676
  @DF-RHF Final Energy:  -191.98370226124115
    Total Energy =                       -191.9837022612411488
  @DF-RHF Final Energy:  -191.96180676948052
    Total Energy =                       -191.9618067694805177
  @DF-RHF Final Energy:  -191.91012417786851
    Total Energy =                       -191.9101241778685107
  @DF-RHF Final Energy:  -191.96702825630774
    Total Energy =                       -191.9670282563077706
  @DF-RHF Final Energy:  -191.98186075603360
    Total Energy =                       -191.9818607560335124
  @DF-RHF Final Energy:  -191.98351106750945
    Total Energy =                       -191.9835110675094825
  @DF-RHF Final Energy:  -191.98360197978457
    Total Energy =                       -191.9836019797843676
  @DF-RHF Final Energy:  -191.98367240917023
    Total Energy =                       -191.9836724091700830
  @DF-RHF Final Energy:  -191.98370112684984
    Total Energy =                       -191.9837011268498941
  @DF-RHF Final Energy:  -191.98367350297019
    Total Energy =                       -191.9836735029702766
  @DF-RHF Final Energy:  -191.98371343714911
    Total Energy =                       -191.9837134371491629
  @DF-RHF Final Energy:  -191.98371549167186
    Total Energy =                       -191.9837154916718021
  @DF-RHF Final Energy:  -191.98371402191646
    Total Energy =                       -191.9837140219165121
  @DF-RHF Final Energy:  -191.98371710484770
    Total Energy =                       -191.9837171048476705
  @DF-RHF Final Energy:  -191.98371662980608
    Total Energy =                       -191.9837166298060822
  @DF-RHF Final Energy:  -191.98358028147180
    Total Energy =                       -191.9835802814718591
  @DF-RHF Final Energy:  -191.98371731883753
    Total Energy =                       -191.9837173188374777
  Basis Set: CC-PVTZ
  Basis Set:
  @DF-RHF Final Energy:  -191.98371743647462
    Total Energy =                       -191.9837174364744499
  Basis Set: CC-PVTZ
  Basis Set:
  Basis Set: CC-PVTZ
  Basis Set:
  @DF-RHF Final Energy:  -191.98371659728525
    Total Energy =                       -191.9837165972853086
  Basis Set: CC-PVTZ
  Basis Set:
  Basis Set: CC-PVTZ
  Basis Set:
  @DF-RHF Final Energy:  -191.98219199305296
    Total Energy =                       -191.9821919930530782
  Basis Set: CC-PVTZ
  Basis Set:
  Charge       = 0
  Multiplicity = 1
  Basis Set: CC-PVTZ
  Basis Set:

    Orbital Energies (a.u.)
    -----------------------

    Doubly Occupied:

       1A    -20.555384     2A    -11.282165     3A    -11.235812
       4A    -11.219485     5A     -1.376624     6A     -1.064598
       7A     -0.935311     8A     -0.773927     9A     -0.694987
      10A     -0.663166    11A     -0.622936    12A     -0.578355
      13A     -0.536268    14A     -0.502673    15A     -0.452642
      16A     -0.364153

  @DF-RHF Final Energy:  -191.98371543967482

   => Energetics <=

    Nuclear Repulsion Energy =            119.3855796113889340
    One-Electron Energy =                -497.0216209633710491
    Two-Electron Energy =                 185.6523259123072762
    DFT Exchange-Correlation Energy =       0.0000000000000000
    Empirical Dispersion Energy =           0.0000000000000000
    PCM Polarization Energy =               0.0000000000000000
    EFP Energy =                            0.0000000000000000
    Total Energy =                       -191.9837154396748247
    Molecular point group: c1
  Basis Set: CC-PVTZ
  Basis Set:

  -Total Gradient:
     Atom            X                  Y                   Z
    ------   -----------------  -----------------  -----------------
       1       -0.000061523531     0.000183830216     0.000227318355
       2       -0.000041414776    -0.000041707910    -0.000220839513
       3        0.012775479439    -0.005490579807    -0.013774644986
       4       -0.019271510381     0.009366018615     0.013413456706
       5       -0.000313792690    -0.000079280030     0.000034740534
       6       -0.000335101289     0.000041535558    -0.000080774013
       7        0.004271102699    -0.005465186311     0.025729327141
       8        0.000241132788     0.000137632608    -0.000575982777
       9        0.002601987016     0.001445142677    -0.024445098290
      10        0.000133640724    -0.000097405614    -0.000307503157

    Molecular point group: c1

    Geometry (in Angstrom), charge = 0, multiplicity = 1:

    H           -0.824641737723     0.251487128783    -1.454910966021
    O           -0.821634403818     0.926151126528    -0.800033524583
    C            0.366115613436     0.873343238415    -0.076180037000
    C            0.622508672165    -0.424748598783     0.640153990458
    H            0.342323209537     1.712471299316     0.609019695001
    H            1.228083243787     1.022376719897    -0.722617669730
    C           -0.043756793091    -1.553427696083     0.500812888403
    H            1.621436935692    -0.474326076322     1.047388431578
    H            0.445877788753    -2.509412052947     0.485067219008
    H           -1.023520568181    -1.546229560798     0.054931384624

  Mulliken Charges: (a.u.)
   Center  Symbol    Alpha    Beta     Spin     Total
       1     H     0.39127  0.39127  0.00000  0.21747
       2     O     4.19880  4.19880  0.00000 -0.39760
       3     C     2.94870  2.94870  0.00000  0.10260
       4     C     3.07596  3.07596  0.00000 -0.15192
       5     H     0.45222  0.45222  0.00000  0.09556
       6     H     0.46853  0.46853  0.00000  0.06294
       7     C     3.17685  3.17685  0.00000 -0.35370
       8     H     0.42837  0.42837  0.00000  0.14325
       9     H     0.42570  0.42570  0.00000  0.14860
      10     H     0.43360  0.43360  0.00000  0.13279

   Total alpha = 16.00000, Total beta = 16.00000, Total charge = -0.00000
