                              Psi4 1.0.54 Driver

  ==> Input File <==

--------------------------------------------------------------------------
set {
	reference rhf
	basis cc-pvtz
}

set_num_threads( 4 )
memory 2 gb

molecule MOL {
0 1

O	 -0.191836	 0.203133	 -2.055552
C	 0.053047	 -0.434516	 -1.088451
C	 1.237653	 -1.354135	 -0.930750
O	 -0.695554	 -0.422406	 0.000602
C	 2.132553	 -1.403334	 -2.158637
H	 0.850566	 -2.336740	 -0.684577
H	 1.786007	 -1.023939	 -0.055414
H	 1.585619	 -1.748930	 -3.025611
H	 2.962923	 -2.077359	 -1.986812
H	 2.529571	 -0.424188	 -2.390749
C	 -1.852370	 0.402254	 0.000718
C	 -3.063338	 -0.501097	 -0.000437
H	 -1.831732	 1.039442	 -0.872158
H	 -1.832493	 1.038301	 0.874430
H	 -3.071944	 -1.133732	 -0.879113
H	 -3.966302	 0.097976	 -0.000483
H	 -3.072764	 -1.134834	 0.877435

	symmetry c1
}
set optking {
	frozen_dihedral = ("
		2 4 11 13
	")
}

ee,wfn = optimize('scf', return_wfn=True)
oeprop( wfn, 'DIPOLE', 'QUADRUPOLE', 'MULLIKEN_CHARGES')
f=open( 'psi4out.xyz', 'w' )
f.write( "17  " )
f.write( str(ee) + "\n" )
f.write( MOL.save_string_xyz() )
f.close()
--------------------------------------------------------------------------

    Molecular point group: c1
  Charge       = 0
  Multiplicity = 1
  Basis Set: CC-PVTZ
  Basis Set:
  @DF-RHF Final Energy:  -345.03765190630412
    Total Energy =                       -345.0376519063038359
    Molecular point group: c1
  Basis Set: CC-PVTZ
  Basis Set:
  Basis Set: CC-PVTZ
  Basis Set:
  @DF-RHF Final Energy:  -345.03813177594191
    Total Energy =                       -345.0381317759420199
  Basis Set: CC-PVTZ
  Basis Set:
  Basis Set: CC-PVTZ
  Basis Set:
  @DF-RHF Final Energy:  -345.03851481278292
    Total Energy =                       -345.0385148127830917
  Basis Set: CC-PVTZ
  Basis Set:
  Basis Set: CC-PVTZ
  Basis Set:
  @DF-RHF Final Energy:  -345.03855029296614
    Total Energy =                       -345.0385502929660788
  Basis Set: CC-PVTZ
  Basis Set:
  Basis Set: CC-PVTZ
  Basis Set:
  @DF-RHF Final Energy:  -345.03869364773107
    Total Energy =                       -345.0386936477308382
  Basis Set: CC-PVTZ
  Basis Set:
  Basis Set: CC-PVTZ
  Basis Set:
  @DF-RHF Final Energy:  -345.03871799486143
    Total Energy =                       -345.0387179948615994
  Basis Set: CC-PVTZ
  Basis Set:
  Charge       = 0
  Multiplicity = 1
  Basis Set: CC-PVTZ
  Basis Set:

    Orbital Energies (a.u.)
    -----------------------

    Doubly Occupied:

       1A    -20.592221     2A    -20.532410     3A    -11.365018
       4A    -11.281132     5A    -11.235358     6A    -11.219272
       7A    -11.213423     8A     -1.468003     9A     -1.365349
      10A     -1.070098    11A     -1.030737    12A     -0.914898
      13A     -0.851533    14A     -0.767761    15A     -0.704011
      16A     -0.684087    17A     -0.662885    18A     -0.626277
      19A     -0.602047    20A     -0.569864    21A     -0.553949
      22A     -0.532569    23A     -0.521243    24A     -0.515902
      25A     -0.496316    26A     -0.494907    27A     -0.450808
      28A     -0.439996

  @DF-RHF Final Energy:  -345.03871869978047

   => Energetics <=

    Nuclear Repulsion Energy =            316.5535158962956075
    One-Electron Energy =               -1097.6603195704260543
    Two-Electron Energy =                 436.0680849743498015
    DFT Exchange-Correlation Energy =       0.0000000000000000
    Empirical Dispersion Energy =           0.0000000000000000
    PCM Polarization Energy =               0.0000000000000000
    EFP Energy =                            0.0000000000000000
    Total Energy =                       -345.0387186997806452
    Molecular point group: c1
  Basis Set: CC-PVTZ
  Basis Set:

  -Total Gradient:
     Atom            X                  Y                   Z
    ------   -----------------  -----------------  -----------------
       1        0.000066181940     0.000007599397    -0.000053318575
       2        0.000263569683     0.000516390140     0.000271789201
       3        0.000007365322     0.000046697429     0.000023300024
       4       -0.000672705460    -0.000957740873    -0.000407506454
       5       -0.000011157993     0.000005637738    -0.000009175694
       6       -0.000012371881     0.000001580588    -0.000006715117
       7       -0.000000156544    -0.000011029074    -0.000003087588
       8        0.000000362312     0.000004304129     0.000009409781
       9       -0.000003914540     0.000001171802     0.000006273828
      10        0.000000663740     0.000001489567    -0.000000764208
      11        0.000632965183     0.001052409280     0.000555926758
      12        0.000053698387    -0.000057754293     0.000021680937
      13       -0.000388665678    -0.000549929571    -0.000418129236
      14        0.000059226504    -0.000043829345     0.000002119816
      15       -0.000004588693    -0.000002454326    -0.000003036568
      16        0.000035803520     0.000013504376     0.000000381659
      17       -0.000026275805    -0.000028046961     0.000010851437

  **** Optimization is complete! (in 7 steps) ****
    Final optimized geometry and variables:
    Molecular point group: c1

    Geometry (in Angstrom), charge = 0, multiplicity = 1:

    O            0.192866891438     0.679310999961    -1.200278068873
    C            0.414673425994     0.064374759923    -0.213394913456
    C            1.606587543149    -0.837002191000    -0.008232929113
    O           -0.357371061045     0.076554846072     0.860712859513
    C            2.533534277816    -0.898924254589    -1.211451966287
    H            1.225071162174    -1.819256690617     0.247582304841
    H            2.127798032358    -0.482866856996     0.874222455799
    H            2.013819415391    -1.268742044816    -2.085139440849
    H            3.367376228439    -1.558707983182    -1.004565699113
    H            2.924442888186     0.080381589606    -1.452951948351
    C           -1.528433013283     0.883772533774     0.886415711155
    C           -2.760584168319     0.004322316107     0.904842977850
    H           -1.531711096843     1.538491655673     0.031675881305
    H           -1.462706973110     1.476364743284     1.787929662605
    H           -2.830256172702    -0.577416650611    -0.006103614464
    H           -3.649659569870     0.619522041219     0.984215236582
    H           -2.737947256729    -0.675422973676     1.747506886537

  Mulliken Charges: (a.u.)
   Center  Symbol    Alpha    Beta     Spin     Total
       1     O     4.19854  4.19854  0.00000 -0.39708
       2     C     2.80060  2.80060  0.00000  0.39880
       3     C     3.09523  3.09523  0.00000 -0.19046
       4     O     4.15764  4.15764  0.00000 -0.31527
       5     C     3.14028  3.14028  0.00000 -0.28056
       6     H     0.44198  0.44198  0.00000  0.11604
       7     H     0.44181  0.44181  0.00000  0.11639
       8     H     0.44860  0.44860  0.00000  0.10279
       9     H     0.45065  0.45065  0.00000  0.09871
      10     H     0.44846  0.44846  0.00000  0.10308
      11     C     2.99056  2.99056  0.00000  0.01887
      12     C     3.13931  3.13931  0.00000 -0.27861
      13     H     0.44270  0.44270  0.00000  0.11459
      14     H     0.44923  0.44923  0.00000  0.10155
      15     H     0.44975  0.44975  0.00000  0.10051
      16     H     0.45298  0.45298  0.00000  0.09405
      17     H     0.45169  0.45169  0.00000  0.09661

   Total alpha = 28.00000, Total beta = 28.00000, Total charge = -0.00000

*** Psi4 exiting successfully. Buy a developer a beer!
