                              Psi4 1.0.54 Driver

  ==> Input File <==

--------------------------------------------------------------------------
set {
	reference rhf
	basis cc-pvtz
}

set_num_threads( 4 )
memory 2 gb

molecule MOL {
0 1

H	 -0.471811	 -1.594251	 -0.300422
N	 -0.625934	 -0.663929	 -0.000707
C	 -1.978635	 -0.158664	 0.001017
C	 0.444706	 0.064033	 0.387085
H	 -2.519057	 -0.493535	 -0.876362
H	 -1.938890	 0.917202	 -0.004137
H	 -2.514266	 -0.485137	 0.884506
C	 1.766382	 -0.667900	 0.307913
O	 0.365944	 1.193842	 0.769714
H	 1.965927	 -0.979016	 -0.710903
H	 2.551221	 -0.009758	 0.642492
H	 1.747139	 -1.553664	 0.932150

	symmetry c1
}
set optking {
	frozen_dihedral = ("
		4 2 3 5
	")
}

ee,wfn = optimize('scf', return_wfn=True)
oeprop( wfn, 'DIPOLE', 'QUADRUPOLE', 'MULLIKEN_CHARGES')
f=open( 'psi4out.xyz', 'w' )
f.write( "12  " )
f.write( str(ee) + "\n" )
f.write( MOL.save_string_xyz() )
f.close()
--------------------------------------------------------------------------

    Molecular point group: c1
  Charge       = 0
  Multiplicity = 1
  Basis Set: CC-PVTZ
  Basis Set:
  @DF-RHF Final Energy:  -247.10093120147701
    Total Energy =                       -247.1009312014770103
    Molecular point group: c1
  Basis Set: CC-PVTZ
  Basis Set:
  Basis Set: CC-PVTZ
  Basis Set:
  @DF-RHF Final Energy:  -247.10098060915820
    Total Energy =                       -247.1009806091581140
  Basis Set: CC-PVTZ
  Basis Set:
  Basis Set: CC-PVTZ
  Basis Set:
  @DF-RHF Final Energy:  -247.10087314605215
    Total Energy =                       -247.1008731460518675
  Basis Set: CC-PVTZ
  Basis Set:
  Basis Set: CC-PVTZ
  Basis Set:
  @DF-RHF Final Energy:  -247.10105265705758
    Total Energy =                       -247.1010526570576076
  Basis Set: CC-PVTZ
  Basis Set:
  Basis Set: CC-PVTZ
  Basis Set:
  @DF-RHF Final Energy:  -247.10106151738134
    Total Energy =                       -247.1010615173812539
  Basis Set: CC-PVTZ
  Basis Set:
  Basis Set: CC-PVTZ
  Basis Set:
  @DF-RHF Final Energy:  -247.10107127766528
    Total Energy =                       -247.1010712776654259
  Basis Set: CC-PVTZ
  Basis Set:
  Basis Set: CC-PVTZ
  Basis Set:
  @DF-RHF Final Energy:  -247.10107283076505
    Total Energy =                       -247.1010728307650197
  Basis Set: CC-PVTZ
  Basis Set:
  Charge       = 0
  Multiplicity = 1
  Basis Set: CC-PVTZ
  Basis Set:

    Orbital Energies (a.u.)
    -----------------------

    Doubly Occupied:

       1A    -20.506932     2A    -15.574758     3A    -11.336563
       4A    -11.252711     5A    -11.228095     6A     -1.388683
       7A     -1.230920     8A     -1.016641     9A     -0.932854
      10A     -0.788231    11A     -0.690868    12A     -0.651596
      13A     -0.635563    14A     -0.586491    15A     -0.582984
      16A     -0.555910    17A     -0.545330    18A     -0.510586
      19A     -0.417551    20A     -0.389613

  @DF-RHF Final Energy:  -247.10107369567237

   => Energetics <=

    Nuclear Repulsion Energy =            181.6809826502548617
    One-Electron Energy =                -695.9183525408885771
    Two-Electron Energy =                 267.1362961949613464
    DFT Exchange-Correlation Energy =       0.0000000000000000
    Empirical Dispersion Energy =           0.0000000000000000
    PCM Polarization Energy =               0.0000000000000000
    EFP Energy =                            0.0000000000000000
    Total Energy =                       -247.1010736956724259
    Molecular point group: c1
  Basis Set: CC-PVTZ
  Basis Set:

  -Total Gradient:
     Atom            X                  Y                   Z
    ------   -----------------  -----------------  -----------------
       1        0.000007536881     0.000041408254     0.000035123293
       2       -0.000027927790    -0.000117588362     0.000184657923
       3       -0.000063780372    -0.000155426753     0.000083541995
       4        0.000018117542     0.000065880313    -0.000140378734
       5        0.000089207765     0.000177612508    -0.000096389967
       6       -0.000010684449    -0.000005700892    -0.000001508119
       7       -0.000017153852    -0.000004082646    -0.000019444162
       8       -0.000007968427    -0.000018948602     0.000057884484
       9       -0.000002843300     0.000007580534    -0.000050248571
      10       -0.000000195469     0.000023354442    -0.000028278746
      11        0.000006673292     0.000008364948     0.000000387552
      12        0.000009018179    -0.000022453744    -0.000025346949

  **** Optimization is complete! (in 8 steps) ****
    Final optimized geometry and variables:
    Molecular point group: c1

    Geometry (in Angstrom), charge = 0, multiplicity = 1:

    H           -0.461934821208    -1.554775232369    -0.565852419110
    N           -0.605204798033    -0.608012610283    -0.316549313259
    C           -1.957995376709    -0.103907058032    -0.281892192116
    C            0.462599075226     0.110111950949     0.097145290630
    H           -2.488136333434    -0.409018519099    -1.174720900009
    H           -1.924597096622     0.972051785283    -0.245406827373
    H           -2.500842603791    -0.461750282706     0.586033276707
    C            1.784325959862    -0.622683835375     0.025126878120
    O            0.379730923105     1.238165722826     0.483541184284
    H            1.980899699159    -0.952625244005    -0.988194825385
    H            2.570212301883     0.040697235328     0.347000421661
    H            1.766485044376    -1.496918948610     0.665807090065

  Mulliken Charges: (a.u.)
   Center  Symbol    Alpha    Beta     Spin     Total
       1     H     0.41087  0.41087  0.00000  0.17827
       2     N     3.62093  3.62093  0.00000 -0.24187
       3     C     3.08399  3.08399  0.00000 -0.16798
       4     C     2.83691  2.83691  0.00000  0.32618
       5     H     0.45492  0.45492  0.00000  0.09016
       6     H     0.43309  0.43309  0.00000  0.13382
       7     H     0.45682  0.45682  0.00000  0.08635
       8     C     3.15377  3.15377  0.00000 -0.30753
       9     O     4.21522  4.21522  0.00000 -0.43043
      10     H     0.44967  0.44967  0.00000  0.10066
      11     H     0.43355  0.43355  0.00000  0.13290
      12     H     0.45027  0.45027  0.00000  0.09947

   Total alpha = 20.00000, Total beta = 20.00000, Total charge = -0.00000

*** Psi4 exiting successfully. Buy a developer a beer!
