  ==> Input File <==

--------------------------------------------------------------------------
set {
	reference rhf
	basis 6-31G*
}

set_num_threads( 4 )
memory 2 gb

molecule MOL {
0 1

H	 1.495700	 1.233985	 0.395233
C	 0.850167	 0.441173	 0.000644
C	 -0.623425	 0.760064	 0.000248
O	 1.323763	 -0.576314	 -0.389449
C	 -1.518387	 -0.473136	 -0.000101
H	 -0.818289	 1.390622	 -0.866171
H	 -0.818694	 1.390413	 0.866696
H	 -1.333417	 -1.085530	 -0.874338
H	 -2.563510	 -0.183466	 -0.000351
H	 -1.333864	 -1.085676	 0.874123

	symmetry c1
}
set optking {
	frozen_dihedral = ("
		4 2 3 6
	")
}

ee = optimize('scf')
oeprop('DIPOLE', 'QUADRUPOLE', 'MULLIKEN_CHARGES')
f=open( 'psi4out.xyz', 'w' )
f.write( "10  " )
f.write( str(ee) + "\n" )
f.write( MOL.save_string_xyz() )
f.close()
--------------------------------------------------------------------------

    Molecular point group: c1
  Charge       = 0
  Multiplicity = 1
  Basis Set: 6-31G*
  Basis Set:
  @DF-RHF Final Energy:  -191.95091011823018
    Total Energy =                       -191.9509101182300981
    Molecular point group: c1
  Basis Set: 6-31G*
  Basis Set:
  Basis Set: 6-31G*
  Basis Set:
  @DF-RHF Final Energy:  -191.94982043974210
    Total Energy =                       -191.9498204397420977
  Basis Set: 6-31G*
  Basis Set:
  Basis Set: 6-31G*
  Basis Set:
  @DF-RHF Final Energy:  -191.95107496837710
    Total Energy =                       -191.9510749683771564
  Basis Set: 6-31G*
  Basis Set:
  Charge       = 0
  Multiplicity = 1
  Basis Set: 6-31G*
  Basis Set:

    Orbital Energies (a.u.)
    -----------------------

    Doubly Occupied:

       1A    -20.564691     2A    -11.329229     3A    -11.240376
       4A    -11.220037     5A     -1.405064     6A     -1.059692
       7A     -0.909075     8A     -0.775109     9A     -0.683148
      10A     -0.636781    11A     -0.626347    12A     -0.545187
      13A     -0.532700    14A     -0.516650    15A     -0.492511
      16A     -0.414192

  @DF-RHF Final Energy:  -191.95117550214309

   => Energetics <=

    Nuclear Repulsion Energy =            119.0913829139388582
    One-Electron Energy =                -496.1835412203658962
    Two-Electron Energy =                 185.1409828042839649
    DFT Exchange-Correlation Energy =       0.0000000000000000
    Empirical Dispersion Energy =           0.0000000000000000
    PCM Polarization Energy =               0.0000000000000000
    EFP Energy =                            0.0000000000000000
    Total Energy =                       -191.9511755021430872
    Molecular point group: c1
  Basis Set: 6-31G*
  Basis Set:

  -Total Gradient:
     Atom            X                  Y                   Z
    ------   -----------------  -----------------  -----------------
       1        0.000075768704    -0.000009072217     0.000014189686
       2       -0.000245375991    -0.001373627013     0.002486222862
       3        0.000483953547     0.002253072122     0.000332470795
       4        0.000139013969     0.000786695361    -0.001874372295
       5       -0.000039734151     0.000035231883     0.000113952451
       6       -0.000318004000    -0.001508681615    -0.001058137254
       7       -0.000033508470    -0.000076905777    -0.000046295552
       8        0.000000494829     0.000037892560     0.000019092814
       9       -0.000003822998    -0.000039239039    -0.000010624885
      10       -0.000058785444    -0.000105366268     0.000023501378

  **** Optimization is complete! (in 4 steps) ****
    Final optimized geometry and variables:
    Molecular point group: c1

    Geometry (in Angstrom), charge = 0, multiplicity = 1:

    H            1.513434196328     1.228625729587     0.430950747523
    C            0.850179881693     0.422550549349     0.097857648656
    C           -0.624658138904     0.745310035791     0.118163815260
    O            1.307485194149    -0.604911990175    -0.285836243619
    C           -1.517829102151    -0.491831039170     0.089398771280
    H           -0.813991119693     1.361886413113    -0.760598308261
    H           -0.834799453995     1.371295220099     0.981069556462
    H           -1.310182332450    -1.095338340459    -0.784697889654
    H           -2.563371062015    -0.204417681547     0.068549339096
    H           -1.354546743351    -1.111027071872     0.964568750319

  Mulliken Charges: (a.u.)
   Center  Symbol    Alpha    Beta     Spin     Total
       1     H     0.42735  0.42735  0.00000  0.14531
       2     C     2.83794  2.83794  0.00000  0.32411
       3     C     3.20940  3.20940  0.00000 -0.41879
       4     O     4.23642  4.23642  0.00000 -0.47284
       5     C     3.23842  3.23842  0.00000 -0.47684
       6     H     0.40350  0.40350  0.00000  0.19301
       7     H     0.41095  0.41095  0.00000  0.17811
       8     H     0.40495  0.40495  0.00000  0.19010
       9     H     0.41736  0.41736  0.00000  0.16527
      10     H     0.41372  0.41372  0.00000  0.17257

   Total alpha = 16.00000, Total beta = 16.00000, Total charge =  0.00000
