  ==> Input File <==

--------------------------------------------------------------------------
set {
	reference rhf
	basis cc-pvtz
}

set_num_threads( 4 )
memory 2 gb

molecule MOL {
0 1

O	 -1.278239	 1.034789	 -0.784693
C	 -1.204115	 0.062668	 -0.112312
C	 -2.386398	 -0.667698	 0.460323
O	 -0.068058	 -0.518372	 0.226882
H	 -2.382952	 -1.693172	 0.114333
H	 -3.296656	 -0.175702	 0.158400
H	 -2.312537	 -0.685191	 1.540100
C	 1.169086	 0.037484	 -0.230612
C	 1.696248	 -0.913090	 -1.286842
C	 2.120284	 0.211345	 0.939688
H	 0.957326	 1.000105	 -0.670620
H	 0.987789	 -1.013455	 -2.099099
H	 2.629304	 -0.538673	 -1.690489
H	 1.874605	 -1.895102	 -0.865207
H	 3.061987	 0.620768	 0.593178
H	 1.706804	 0.889357	 1.673161
H	 2.316962	 -0.743239	 1.414420

	symmetry c1
}
set optking {
	frozen_dihedral = ("
		11 8 4 2
	")
}

ee = optimize('scf')
oeprop('DIPOLE', 'QUADRUPOLE', 'MULLIKEN_CHARGES')
f=open( 'psi4out.xyz', 'w' )
f.write( "17  " )
f.write( str(ee) + "\n" )
f.write( MOL.save_string_xyz() )
f.close()
--------------------------------------------------------------------------

    Molecular point group: c1
  Charge       = 0
  Multiplicity = 1
  Basis Set: CC-PVTZ
  Basis Set:
  @DF-RHF Final Energy:  -345.04196313110407
    Total Energy =                       -345.0419631311036710
    Molecular point group: c1
  Basis Set: CC-PVTZ
  Basis Set:
  Basis Set: CC-PVTZ
  Basis Set:
  @DF-RHF Final Energy:  -345.04244033068699
    Total Energy =                       -345.0424403306868726
  Basis Set: CC-PVTZ
  Basis Set:
  Basis Set: CC-PVTZ
  Basis Set:
  @DF-RHF Final Energy:  -345.04244471962676
    Total Energy =                       -345.0424447196267010
  Basis Set: CC-PVTZ
  Basis Set:
  Basis Set: CC-PVTZ
  Basis Set:
  @DF-RHF Final Energy:  -345.04254227774931
    Total Energy =                       -345.0425422777493054
  Basis Set: CC-PVTZ
  Basis Set:
  Basis Set: CC-PVTZ
  Basis Set:
  @DF-RHF Final Energy:  -345.04257700568445
    Total Energy =                       -345.0425770056839383
  Basis Set: CC-PVTZ
  Basis Set:
  Charge       = 0
  Multiplicity = 1
  Basis Set: CC-PVTZ
  Basis Set:

    Orbital Energies (a.u.)
    -----------------------

    Doubly Occupied:

       1A    -20.590515     2A    -20.531043     3A    -11.367221
       4A    -11.286772     5A    -11.230302     6A    -11.217812
       7A    -11.216839     8A     -1.467317     9A     -1.364624
      10A     -1.080034    11A     -1.005532    12A     -0.949541
      13A     -0.849683    14A     -0.770092    15A     -0.694997
      16A     -0.667434    17A     -0.664045    18A     -0.614078
      19A     -0.587334    20A     -0.579240    21A     -0.567998
      22A     -0.551882    23A     -0.535456    24A     -0.524530
      25A     -0.504545    26A     -0.482948    27A     -0.447252
      28A     -0.440293

  @DF-RHF Final Energy:  -345.04257731587018

   => Energetics <=

    Nuclear Repulsion Energy =            322.3980914444407517
    One-Electron Energy =               -1109.3026239715870815
    Two-Electron Energy =                 441.8619552112763245
    DFT Exchange-Correlation Energy =       0.0000000000000000
    Empirical Dispersion Energy =           0.0000000000000000
    PCM Polarization Energy =               0.0000000000000000
    EFP Energy =                            0.0000000000000000
    Total Energy =                       -345.0425773158700054
    Molecular point group: c1
  Basis Set: CC-PVTZ
  Basis Set:

  -Total Gradient:
     Atom            X                  Y                   Z
    ------   -----------------  -----------------  -----------------
       1        0.000101362533    -0.000047778170     0.000019955194
       2        0.000024525225     0.000476893215     0.000647878938
       3       -0.000019236273    -0.000030157284    -0.000007373233
       4       -0.000056062320    -0.000658197668    -0.001097643234
       5       -0.000000586491     0.000006139616     0.000008066034
       6       -0.000000431964    -0.000001988850     0.000003010397
       7       -0.000006542647    -0.000002427417     0.000010275312
       8        0.000146918711     0.000625538890     0.001191094872
       9        0.000027662202     0.000012234057    -0.000028333844
      10       -0.000044691102    -0.000018970911     0.000016521980
      11       -0.000153300355    -0.000363806512    -0.000763979457
      12        0.000002806607    -0.000004110555    -0.000006277140
      13        0.000005534915    -0.000007314840    -0.000010849565
      14       -0.000005734705     0.000008953308     0.000010121865
      15       -0.000019379509    -0.000002314799    -0.000014748094
      16       -0.000002686678     0.000002453358     0.000016842887
      17       -0.000000158152     0.000004854560     0.000005437086

  **** Optimization is complete! (in 6 steps) ****
    Final optimized geometry and variables:
    Molecular point group: c1

    Geometry (in Angstrom), charge = 0, multiplicity = 1:

    O           -1.311280124068     1.130496959215    -0.692210427586
    C           -1.215196120963     0.175672677880     0.001254327706
    C           -2.380701556673    -0.542928615850     0.621727248019
    O           -0.071253676138    -0.398209864088     0.328738204621
    H           -2.383381432423    -1.575986839364     0.299009847015
    H           -3.299687189309    -0.060006779565     0.331947059693
    H           -2.278880708308    -0.536008208783     1.699287038191
    C            1.168341314896     0.143782635432    -0.139105655977
    C            1.731450284831    -0.795178594100    -1.190090083049
    C            2.074017605358     0.304039454269     1.066259049635
    H            0.966173224676     1.103229562105    -0.585366879239
    H            1.050315005994    -0.881953920915    -2.027217030769
    H            2.677071996450    -0.417494957930    -1.560896728172
    H            1.895073840406    -1.782513556828    -0.774327759823
    H            3.031247568339     0.710062666977     0.761458267139
    H            1.632977810354     0.978743917340     1.789136877442
    H            2.244348074519    -0.651231563848     1.548544472253

  Mulliken Charges: (a.u.)
   Center  Symbol    Alpha    Beta     Spin     Total
       1     O     4.19946  4.19946  0.00000 -0.39892
       2     C     2.80275  2.80275  0.00000  0.39450
       3     C     3.14077  3.14077  0.00000 -0.28153
       4     O     4.16698  4.16698  0.00000 -0.33396
       5     H     0.44604  0.44604  0.00000  0.10793
       6     H     0.43848  0.43848  0.00000  0.12304
       7     H     0.44623  0.44623  0.00000  0.10755
       8     C     2.93669  2.93669  0.00000  0.12662
       9     C     3.14472  3.14472  0.00000 -0.28944
      10     C     3.13925  3.13925  0.00000 -0.27851
      11     H     0.43489  0.43489  0.00000  0.13023
      12     H     0.44517  0.44517  0.00000  0.10966
      13     H     0.45207  0.45207  0.00000  0.09587
      14     H     0.45312  0.45312  0.00000  0.09376
      15     H     0.45346  0.45346  0.00000  0.09307
      16     H     0.44716  0.44716  0.00000  0.10567
      17     H     0.45276  0.45276  0.00000  0.09449

   Total alpha = 28.00000, Total beta = 28.00000, Total charge = -0.00000
