  ==> Input File <==

--------------------------------------------------------------------------
set {
	reference rhf
	basis 6-31G*
}

set_num_threads( 1 )
memory 2 gb

molecule MOL {
0 1

O	 1.214711	 1.306902	 -0.000018
C	 1.122059	 0.121804	 -0.000188
C	 -0.170150	 -0.657997	 -0.000612
O	 2.172624	 -0.688929	 0.000216
C	 -1.412532	 0.227344	 -0.000452
H	 -0.153702	 -1.313099	 -0.867402
H	 -0.153924	 -1.313811	 0.865644
C	 -1.561173	 1.020333	 1.298948
H	 -2.292015	 -0.389250	 -0.158011
H	 -1.367067	 0.908782	 -0.844300
C	 -2.802759	 1.911064	 1.307107
H	 -1.605438	 0.332848	 2.141255
H	 -0.676197	 1.634401	 1.453249
H	 -3.707758	 1.322227	 1.189200
H	 -2.884674	 2.461725	 2.238953
H	 -2.771581	 2.633466	 0.496673
C	 3.452279	 -0.082609	 0.000533
H	 3.583069	 0.529321	 -0.880332
H	 4.163299	 -0.894027	 0.001117
H	 3.582335	 0.529955	 0.881077

	symmetry c1
}
set optking {
	frozen_dihedral = ("
		9 5 8 12,
		1 2 3 6,
		1 2 4 17
	")
}

ee = energy('scf')
oeprop('DIPOLE', 'QUADRUPOLE', 'MULLIKEN_CHARGES')
f=open( 'psi4out.xyz', 'w' )
f.write( "20  " )
f.write( str(ee) + "\n" )
f.write( MOL.save_string_xyz() )
f.close()
--------------------------------------------------------------------------

    Molecular point group: c1

    Geometry (in Angstrom), charge = 0, multiplicity = 1:

       Center              X                  Y                   Z               Mass
    ------------   -----------------  -----------------  -----------------  -----------------
           O          0.927025124478     0.903256764010    -0.325949280914    15.994914619560
           C          0.834373124478    -0.281841235990    -0.326119280914    12.000000000000
           C         -0.457835875522    -1.061642235990    -0.326543280914    12.000000000000
           O          1.884938124478    -1.092574235990    -0.325715280914    15.994914619560
           C         -1.700217875522    -0.176301235990    -0.326383280914    12.000000000000
           H         -0.441387875522    -1.716744235990    -1.193333280914     1.007825032070
           H         -0.441609875522    -1.717456235990     0.539712719086     1.007825032070
           C         -1.848858875522     0.616687764010     0.973016719086    12.000000000000
           H         -2.579700875522    -0.792895235990    -0.483942280914     1.007825032070
           H         -1.654752875522     0.505136764010    -1.170231280914     1.007825032070
           C         -3.090444875522     1.507418764010     0.981175719086    12.000000000000
           H         -1.893123875522    -0.070797235990     1.815323719086     1.007825032070
           H         -0.963882875522     1.230755764010     1.127317719086     1.007825032070
           H         -3.995443875522     0.918581764010     0.863268719086     1.007825032070
           H         -3.172359875522     2.058079764010     1.913021719086     1.007825032070
           H         -3.059266875522     2.229820764010     0.170741719086     1.007825032070
           C          3.164593124478    -0.486254235990    -0.325398280914    12.000000000000
           H          3.295383124478     0.125675764010    -1.206263280914     1.007825032070
           H          3.875613124478    -1.297672235990    -0.324814280914     1.007825032070
           H          3.294649124478     0.126309764010     0.555145719086     1.007825032070

  Charge       = 0
  Multiplicity = 1
  Basis Set: 6-31G*
  Basis Set:

    Orbital Energies (a.u.)
    -----------------------

    Doubly Occupied:

       1A    -20.605163     2A    -20.547073     3A    -11.373982
       4A    -11.281879     5A    -11.235921     6A    -11.219363
       7A    -11.209010     8A    -11.204284     9A     -1.471109
      10A     -1.365045    11A     -1.086442    12A     -1.020470
      13A     -0.968380    14A     -0.882710    15A     -0.803619
      16A     -0.767619    17A     -0.702177    18A     -0.681425
      19A     -0.673107    20A     -0.629917    21A     -0.606649
      22A     -0.585028    23A     -0.577058    24A     -0.544127
      25A     -0.532596    26A     -0.517721    27A     -0.509396
      28A     -0.477429    29A     -0.470732    30A     -0.460932
      31A     -0.455072    32A     -0.432995

  @DF-RHF Final Energy:  -383.94015480212596

   => Energetics <=

    Nuclear Repulsion Energy =            390.5761261091742540
    One-Electron Energy =               -1297.2355930333642391
    Two-Electron Energy =                 522.7193121220630019
    DFT Exchange-Correlation Energy =       0.0000000000000000
    Empirical Dispersion Energy =           0.0000000000000000
    PCM Polarization Energy =               0.0000000000000000
    EFP Energy =                            0.0000000000000000
    Total Energy =                       -383.9401548021269264

  Mulliken Charges: (a.u.)
   Center  Symbol    Alpha    Beta     Spin     Total
       1     O     4.28595  4.28595  0.00000 -0.57191
       2     C     2.60561  2.60561  0.00000  0.78878
       3     C     3.20974  3.20974  0.00000 -0.41948
       4     O     4.30675  4.30675  0.00000 -0.61351
       5     C     3.15287  3.15287  0.00000 -0.30574
       6     H     0.39800  0.39800  0.00000  0.20400
       7     H     0.40029  0.40029  0.00000  0.19942
       8     C     3.16110  3.16110  0.00000 -0.32221
       9     H     0.41870  0.41870  0.00000  0.16259
      10     H     0.41153  0.41153  0.00000  0.17694
      11     C     3.23971  3.23971  0.00000 -0.47941
      12     H     0.42770  0.42770  0.00000  0.14460
      13     H     0.40000  0.40000  0.00000  0.20001
      14     H     0.42460  0.42460  0.00000  0.15079
      15     H     0.41930  0.41930  0.00000  0.16140
      16     H     0.41952  0.41952  0.00000  0.16096
      17     C     3.09248  3.09248  0.00000 -0.18496
      18     H     0.40890  0.40890  0.00000  0.18220
      19     H     0.40817  0.40817  0.00000  0.18367
      20     H     0.40907  0.40907  0.00000  0.18187

   Total alpha = 32.00000, Total beta = 32.00000, Total charge = -0.00000
