                              Psi4 1.0.54 Driver

  ==> Input File <==

--------------------------------------------------------------------------
set {
	reference rhf
	basis cc-pvtz
}

set_num_threads( 4 )
memory 2 gb

molecule MOL {
0 1

H	 -2.297630	 1.018154	 1.996028
C	 -1.647066	 0.939421	 2.864043
O	 -0.374828	 0.512015	 2.508693
H	 -1.553362	 1.915231	 3.317808
H	 -2.110398	 0.263801	 3.580804
C	 -0.336449	 -0.744700	 1.916382
C	 1.072022	 -1.060087	 1.479249
H	 -0.665036	 -1.505640	 2.624175
H	 -0.996125	 -0.783267	 1.052223
O	 1.401606	 -0.295166	 0.366636
H	 1.755239	 -0.858101	 2.301348
H	 1.138111	 -2.121495	 1.240469
C	 2.714315	 -0.441627	 -0.061017
H	 2.765292	 -0.641548	 -1.128869
H	 3.305661	 0.447341	 0.150952
H	 3.143725	 -1.278506	 0.470147

	symmetry c1
}
set optking {
	frozen_dihedral = ("
		7 10 13 14
	")
}

ee,wfn = optimize('scf', return_wfn=True)
oeprop( wfn, 'DIPOLE', 'QUADRUPOLE', 'MULLIKEN_CHARGES')
f=open( 'psi4out.xyz', 'w' )
f.write( "16  " )
f.write( str(ee) + "\n" )
f.write( MOL.save_string_xyz() )
f.close()
--------------------------------------------------------------------------

    Molecular point group: c1
  Charge       = 0
  Multiplicity = 1
  Basis Set: CC-PVTZ
  Basis Set:
  @DF-RHF Final Energy:  -307.09345372939856
    Total Energy =                       -307.0934537293985613
    Molecular point group: c1
  Basis Set: CC-PVTZ
  Basis Set:
  Basis Set: CC-PVTZ
  Basis Set:
  @DF-RHF Final Energy:  -307.09425911402803
    Total Energy =                       -307.0942591140278637
  Basis Set: CC-PVTZ
  Basis Set:
  Basis Set: CC-PVTZ
  Basis Set:
  @DF-RHF Final Energy:  -307.09453194925800
    Total Energy =                       -307.0945319492581120
  Basis Set: CC-PVTZ
  Basis Set:
  Charge       = 0
  Multiplicity = 1
  Basis Set: CC-PVTZ
  Basis Set:

    Orbital Energies (a.u.)
    -----------------------

    Doubly Occupied:

       1A    -20.547449     2A    -20.544309     3A    -11.267786
       4A    -11.266575     5A    -11.261333     6A    -11.261111
       7A     -1.389615     8A     -1.371670     9A     -1.031719
      10A     -0.937201    11A     -0.892207    12A     -0.824001
      13A     -0.685055    14A     -0.681172    15A     -0.658539
      16A     -0.636251    17A     -0.630759    18A     -0.597011
      19A     -0.554571    20A     -0.538641    21A     -0.508309
      22A     -0.478937    23A     -0.463946    24A     -0.420950
      25A     -0.410571

  @DF-RHF Final Energy:  -307.09453436159561

   => Energetics <=

    Nuclear Repulsion Energy =            258.6303625943064617
    One-Electron Energy =                -931.7304223732890023
    Two-Electron Energy =                 366.0055254173869344
    DFT Exchange-Correlation Energy =       0.0000000000000000
    Empirical Dispersion Energy =           0.0000000000000000
    PCM Polarization Energy =               0.0000000000000000
    EFP Energy =                            0.0000000000000000
    Total Energy =                       -307.0945343615956062
    Molecular point group: c1
  Basis Set: CC-PVTZ
  Basis Set:

  -Total Gradient:
     Atom            X                  Y                   Z
    ------   -----------------  -----------------  -----------------
       1        0.000002765188    -0.000000482907    -0.000001839009
       2       -0.000007097138    -0.000010288006     0.000003349968
       3        0.000006877268    -0.000003007232    -0.000003940557
       4        0.000005580605    -0.000001609337    -0.000002795614
       5       -0.000000230155     0.000000690483    -0.000000643422
       6       -0.000019563421     0.000017326711    -0.000007160969
       7       -0.000371331731    -0.000951745118    -0.000711251770
       8       -0.000008301678    -0.000002803239     0.000012815659
       9        0.000007425425    -0.000000713330     0.000004913240
      10        0.000657704889     0.000909710075     0.001014753681
      11        0.000012449671     0.000014964729    -0.000026494132
      12        0.000012513576     0.000031781564    -0.000020561657
      13       -0.000293343719     0.001423972595    -0.000462015884
      14       -0.000085889583    -0.001450457711     0.000242906039
      15        0.000045146704     0.000028557947    -0.000034907772
      16        0.000035294097    -0.000005897225    -0.000007127804

  **** Optimization is complete! (in 4 steps) ****
    Final optimized geometry and variables:
    Molecular point group: c1

    Geometry (in Angstrom), charge = 0, multiplicity = 1:

    H           -2.771782055623     1.179052547118     0.485972923220
    C           -2.127222892565     1.091660328444     1.357619510847
    O           -0.852239381475     0.669011841712     1.006656880673
    H           -2.037510213366     2.062690851691     1.822325189574
    H           -2.595005236594     0.408158757473     2.063982273231
    C           -0.808699227836    -0.581332568830     0.401385228155
    C            0.602499611299    -0.890583518819    -0.031125455160
    H           -1.139712901506    -1.350219089387     1.099590665431
    H           -1.463567585759    -0.611830550194    -0.466660671681
    O            0.933616781053    -0.110015486887    -1.133735315074
    H            1.277851611701    -0.698075562518     0.799009724446
    H            0.668612386846    -1.948462784591    -0.282278992658
    C            2.246404713937    -0.220901200158    -1.588882866947
    H            2.239466758680    -0.396334791031    -2.657684511841
    H            2.797221926421     0.690278887828    -1.382523970171
    H            2.769012903244    -1.049063143966    -1.119912180658

  Mulliken Charges: (a.u.)
   Center  Symbol    Alpha    Beta     Spin     Total
       1     H     0.47016  0.47016  0.00000  0.05968
       2     C     3.03201  3.03201  0.00000 -0.06402
       3     O     4.17039  4.17039  0.00000 -0.34078
       4     H     0.44645  0.44645  0.00000  0.10711
       5     H     0.47374  0.47374  0.00000  0.05252
       6     C     2.96330  2.96330  0.00000  0.07340
       7     C     2.95864  2.95864  0.00000  0.08272
       8     H     0.47618  0.47618  0.00000  0.04765
       9     H     0.47118  0.47118  0.00000  0.05765
      10     O     4.17501  4.17501  0.00000 -0.35002
      11     H     0.47082  0.47082  0.00000  0.05836
      12     H     0.47592  0.47592  0.00000  0.04816
      13     C     3.02726  3.02726  0.00000 -0.05453
      14     H     0.45651  0.45651  0.00000  0.08699
      15     H     0.45818  0.45818  0.00000  0.08364
      16     H     0.47425  0.47425  0.00000  0.05149

   Total alpha = 25.00000, Total beta = 25.00000, Total charge =  0.00000

*** Psi4 exiting successfully. Buy a developer a beer!
