  ==> Input File <==

--------------------------------------------------------------------------
set {
	reference rhf
	basis 6-31G*
}

set_num_threads( 4 )
memory 2 gb

molecule MOL {
0 1

H	 -4.042684	 -0.942487	 1.159298
O	 -3.400949	 -0.912148	 0.464200
C	 -2.181131	 -0.431937	 0.968215
C	 -1.177863	 -0.397191	 -0.171080
H	 -2.305619	 0.566161	 1.386078
H	 -1.816192	 -1.076512	 1.766766
C	 0.198102	 0.111031	 0.262842
H	 -1.578279	 0.233568	 -0.960091
H	 -1.094723	 -1.398689	 -0.584076
C	 1.331804	 -0.827780	 -0.158768
H	 0.361943	 1.100838	 -0.156218
H	 0.217265	 0.229072	 1.345532
C	 2.723619	 -0.410569	 0.329459
H	 1.342964	 -0.912588	 -1.244120
H	 1.116806	 -1.824343	 0.220779
C	 3.243875	 0.895854	 -0.272975
H	 3.424222	 -1.207124	 0.091250
H	 2.714788	 -0.329854	 1.414619
H	 3.251977	 0.848779	 -1.358681
H	 2.637085	 1.747371	 0.016682
H	 4.259473	 1.094070	 0.055697

	symmetry c1
}
set optking {
	frozen_dihedral = ("
		8 4 7 10
	")
}

ee = optimize('scf')
oeprop('DIPOLE', 'QUADRUPOLE', 'MULLIKEN_CHARGES')
f=open( 'psi4out.xyz', 'w' )
f.write( "21  " )
f.write( str(ee) + "\n" )
f.write( MOL.save_string_xyz() )
f.close()
--------------------------------------------------------------------------

    Molecular point group: c1
  Charge       = 0
  Multiplicity = 1
  Basis Set: 6-31G*
  Basis Set:
  @DF-RHF Final Energy:  -310.20794935564965
    Total Energy =                       -310.2079493556497596
    Molecular point group: c1
  Basis Set: 6-31G*
  Basis Set:
  Basis Set: 6-31G*
  Basis Set:
  @DF-RHF Final Energy:  -310.20816727908328
    Total Energy =                       -310.2081672790834546
  Basis Set: 6-31G*
  Basis Set:
  Basis Set: 6-31G*
  Basis Set:
  @DF-RHF Final Energy:  -310.20823990255144
    Total Energy =                       -310.2082399025510995
  Basis Set: 6-31G*
  Basis Set:
  Basis Set: 6-31G*
  Basis Set:
  @DF-RHF Final Energy:  -310.20821516942470
    Total Energy =                       -310.2082151694245340
  Basis Set: 6-31G*
  Basis Set:
  Basis Set: 6-31G*
  Basis Set:
  @DF-RHF Final Energy:  -310.20824761527859
    Total Energy =                       -310.2082476152784807
  Basis Set: 6-31G*
  Basis Set:
  Charge       = 0
  Multiplicity = 1
  Basis Set: 6-31G*
  Basis Set:

    Orbital Energies (a.u.)
    -----------------------

    Doubly Occupied:

       1A    -20.551896     2A    -11.267408     3A    -11.215645
       4A    -11.215158     5A    -11.213990     6A    -11.210308
       7A    -11.208121     8A     -1.359043     9A     -1.084939
      10A     -1.032037    11A     -0.954029    12A     -0.875917
      13A     -0.808091    14A     -0.779490    15A     -0.693606
      16A     -0.655362    17A     -0.622971    18A     -0.609425
      19A     -0.590182    20A     -0.554252    21A     -0.551581
      22A     -0.517033    23A     -0.504196    24A     -0.496176
      25A     -0.475105    26A     -0.458887    27A     -0.453828
      28A     -0.445030    29A     -0.432167

  @DF-RHF Final Energy:  -310.20824697427304

   => Energetics <=

    Nuclear Repulsion Energy =            312.6373350493132648
    One-Electron Energy =               -1040.0194145307382314
    Two-Electron Energy =                 417.1738325071518148
    DFT Exchange-Correlation Energy =       0.0000000000000000
    Empirical Dispersion Energy =           0.0000000000000000
    PCM Polarization Energy =               0.0000000000000000
    EFP Energy =                            0.0000000000000000
    Total Energy =                       -310.2082469742731519
    Molecular point group: c1
  Basis Set: 6-31G*
  Basis Set:

  -Total Gradient:
     Atom            X                  Y                   Z
    ------   -----------------  -----------------  -----------------
       1        0.000014726354     0.000005328003     0.000004537394
       2        0.000033843189     0.000004594055    -0.000026674779
       3        0.000027835603     0.000015557934     0.000096216832
       4        0.001053909092    -0.001616230849    -0.001286508863
       5       -0.000009830225    -0.000005349408    -0.000000056264
       6       -0.000018010167    -0.000002656155     0.000011883254
       7       -0.000059502202     0.001226666183    -0.001283219746
       8       -0.000809770387     0.001139222320     0.001346986234
       9        0.000057166146     0.000006593066    -0.000003408153
      10       -0.000158922058    -0.000765007941     0.001144827398
      11       -0.000037340950     0.000007074186    -0.000029388581
      12       -0.000083186864    -0.000024540069     0.000029666407
      13       -0.000024342108     0.000048021140    -0.000011403253
      14       -0.000008485915    -0.000037902332    -0.000015127514
      15        0.000034616541     0.000015665553     0.000019096285
      16        0.000011757256    -0.000019326217    -0.000004629653
      17       -0.000003736417     0.000003735878     0.000000978084
      18       -0.000012236834     0.000003822118     0.000002931507
      19       -0.000013106318     0.000005875634    -0.000001603460
      20       -0.000001393823    -0.000003320285     0.000012960852
      21        0.000006010084    -0.000007822813    -0.000008063982

  **** Optimization is complete! (in 6 steps) ****
    Final optimized geometry and variables:
    Molecular point group: c1

    Geometry (in Angstrom), charge = 0, multiplicity = 1:

    H           -4.104949949834    -0.620454794854     0.919762642458
    O           -3.459034009790    -0.592392829670     0.228416667783
    C           -2.230019622986    -0.155555055848     0.746650707944
    C           -1.219198426286    -0.121758130653    -0.387462857313
    H           -2.328421087315     0.836456240064     1.185999168176
    H           -1.883161467988    -0.826455508820     1.531876436031
    C            0.167801204772     0.374273665619     0.071762158764
    H           -1.621010724625     0.521431761816    -1.163431549650
    H           -1.153431968250    -1.119608031711    -0.809629911789
    C            1.310739723065    -0.550702113961    -0.358021734034
    H            0.336865198550     1.378244954522    -0.302798824088
    H            0.188144246499     0.455589267341     1.158125532008
    C            2.701120902576    -0.115159085652     0.116770803053
    H            1.313445818548    -0.641016853732    -1.443263446534
    H            1.108085214886    -1.547730829320     0.027461753667
    C            3.208801421987     1.185257630517    -0.509204404243
    H            3.406916295007    -0.909891550959    -0.112150318079
    H            2.697061347503    -0.017242534075     1.200725687355
    H            3.210730203262     1.120859056304    -1.593989228907
    H            2.598185789749     2.037323012864    -0.229618306367
    H            4.225003201794     1.395343770661    -0.189912731711

  Mulliken Charges: (a.u.)
   Center  Symbol    Alpha    Beta     Spin     Total
       1     H     0.28114  0.28114  0.00000  0.43771
       2     O     4.37160  4.37160  0.00000 -0.74319
       3     C     2.99363  2.99363  0.00000  0.01274
       4     C     3.16050  3.16050  0.00000 -0.32101
       5     H     0.43248  0.43248  0.00000  0.13504
       6     H     0.43291  0.43291  0.00000  0.13418
       7     C     3.16488  3.16488  0.00000 -0.32975
       8     H     0.41224  0.41224  0.00000  0.17552
       9     H     0.41215  0.41215  0.00000  0.17570
      10     C     3.15353  3.15353  0.00000 -0.30705
      11     H     0.41653  0.41653  0.00000  0.16695
      12     H     0.42409  0.42409  0.00000  0.15182
      13     C     3.15328  3.15328  0.00000 -0.30657
      14     H     0.42230  0.42230  0.00000  0.15540
      15     H     0.42165  0.42165  0.00000  0.15671
      16     C     3.24103  3.24103  0.00000 -0.48205
      17     H     0.42065  0.42065  0.00000  0.15871
      18     H     0.42393  0.42393  0.00000  0.15214
      19     H     0.42172  0.42172  0.00000  0.15656
      20     H     0.42051  0.42051  0.00000  0.15899
      21     H     0.41927  0.41927  0.00000  0.16146

   Total alpha = 29.00000, Total beta = 29.00000, Total charge =  0.00000
