  ==> Input File <==

--------------------------------------------------------------------------
set {
	reference rhf
	basis 6-31G*
}

set_num_threads( 4 )
memory 2 gb

molecule MOL {
0 1

H	 -2.698709	 -0.000305	 0.034435
C	 -1.693833	 0.000034	 0.434417
O	 -0.828952	 -0.000968	 -0.659236
H	 -1.574200	 0.882896	 1.055746
H	 -1.574147	 -0.881698	 1.057355
C	 0.559449	 -0.000018	 -0.420814
C	 1.233050	 1.287792	 -0.890627
C	 0.905028	 -0.340985	 1.027383
H	 0.917340	 -0.808961	 -1.046559
H	 0.925886	 1.525108	 -1.903484
H	 2.311739	 1.167044	 -0.881355
H	 0.994135	 2.132917	 -0.252781
H	 0.370290	 -1.230555	 1.342307
H	 1.969484	 -0.533106	 1.119510
H	 0.659335	 0.466504	 1.709613

	symmetry c1
}
set optking {
	frozen_dihedral = ("
		9 6 3 2
	")
}

ee = optimize('scf')
oeprop('DIPOLE', 'QUADRUPOLE', 'MULLIKEN_CHARGES')
f=open( 'psi4out.xyz', 'w' )
f.write( "15  " )
f.write( str(ee) + "\n" )
f.write( MOL.save_string_xyz() )
f.close()
--------------------------------------------------------------------------

    Molecular point group: c1
  Charge       = 0
  Multiplicity = 1
  Basis Set: 6-31G*
  Basis Set:
  @DF-RHF Final Energy:  -232.13024505844726
    Total Energy =                       -232.1302450584469170
    Molecular point group: c1
  Basis Set: 6-31G*
  Basis Set:
  Basis Set: 6-31G*
  Basis Set:
  @DF-RHF Final Energy:  -232.13046792514916
    Total Energy =                       -232.1304679251492189
  Basis Set: 6-31G*
  Basis Set:
  Basis Set: 6-31G*
  Basis Set:
  @DF-RHF Final Energy:  -232.13330663198602
    Total Energy =                       -232.1333066319859313
  Basis Set: 6-31G*
  Basis Set:
  Basis Set: 6-31G*
  Basis Set:
  @DF-RHF Final Energy:  -232.13351354825474
    Total Energy =                       -232.1335135482548822
  Basis Set: 6-31G*
  Basis Set:
  @DF-RHF Final Energy:  -232.13359645752951
    Total Energy =                       -232.1335964575296202
  @DF-RHF Final Energy:  -232.13360866964825
    Total Energy =                       -232.1336086696483108
  Basis Set: 6-31G*
  Basis Set:
  @DF-RHF Final Energy:  -232.13361636400504
    Total Energy =                       -232.1336163640050927
  Basis Set: 6-31G*
  Basis Set:
  Basis Set: 6-31G*
  Basis Set:
  @DF-RHF Final Energy:  -232.13362137367980
    Total Energy =                       -232.1336213736797731
  Basis Set: 6-31G*
  Basis Set:
  Basis Set: 6-31G*
  Basis Set:
  @DF-RHF Final Energy:  -232.13362402011006
    Total Energy =                       -232.1336240201098349
  Basis Set: 6-31G*
  Basis Set:
  Charge       = 0
  Multiplicity = 1
  Basis Set: 6-31G*
  Basis Set:

    Orbital Energies (a.u.)
    -----------------------

    Doubly Occupied:

       1A    -20.545040     2A    -11.274746     3A    -11.262461
       4A    -11.215632     5A    -11.205475     6A     -1.366236
       7A     -1.052428     8A     -0.948164     9A     -0.918919
      10A     -0.781692    11A     -0.674781    12A     -0.642544
      13A     -0.630558    14A     -0.582149    15A     -0.554842
      16A     -0.542928    17A     -0.535662    18A     -0.507339
      19A     -0.492197    20A     -0.445727    21A     -0.398654

  @DF-RHF Final Energy:  -232.13362455338748

   => Energetics <=

    Nuclear Repulsion Energy =            198.0570342026046831
    One-Electron Energy =                -707.2249706758686898
    Two-Electron Energy =                 277.0343119198764725
    DFT Exchange-Correlation Energy =       0.0000000000000000
    Empirical Dispersion Energy =           0.0000000000000000
    PCM Polarization Energy =               0.0000000000000000
    EFP Energy =                            0.0000000000000000
    Total Energy =                       -232.1336245533875626
    Molecular point group: c1
  Basis Set: 6-31G*
  Basis Set:

  -Total Gradient:
     Atom            X                  Y                   Z
    ------   -----------------  -----------------  -----------------
       1       -0.000002855912    -0.000001867563     0.000002803986
       2       -0.000083481100    -0.001894932018    -0.000017121298
       3        0.000053356668     0.002577021044     0.000346748454
       4        0.000002994205     0.000003064316     0.000005095232
       5        0.000000414404     0.000005045436    -0.000003348883
       6        0.000374436699     0.000687759345    -0.001947812866
       7       -0.000003174793     0.000001095067     0.000002460156
       8       -0.000002178049    -0.000000434140    -0.000004851629
       9       -0.000337439901    -0.001380353436     0.001618223275
      10       -0.000000043387     0.000002069521    -0.000001330673
      11       -0.000001584168    -0.000001409376    -0.000000972120
      12        0.000001241542     0.000000464665     0.000000473311
      13        0.000001697560     0.000000860302     0.000000389087
      14        0.000000711886    -0.000000354726     0.000000579440
      15       -0.000004095656     0.000001971562    -0.000001335469

  **** Optimization is complete! (in 10 steps) ****
    Final optimized geometry and variables:
    Molecular point group: c1

    Geometry (in Angstrom), charge = 0, multiplicity = 1:

    H           -2.730211258772    -0.054689278307     0.042579819111
    C           -1.749843849985    -0.135984304652     0.492736742449
    O           -0.838000609157    -0.168817179656    -0.559476324148
    H           -1.604514499599     0.720806165052     1.145830524636
    H           -1.725557416508    -1.039080697456     1.094876704979
    C            0.555171519481    -0.230822727011    -0.319759309163
    C            1.177625327008     1.074828826388    -0.798185243264
    C            0.958962894845    -0.556050040610     1.117595773121
    H            0.916692280526    -1.045463125651    -0.939681370212
    H            0.886413924248     1.271600047248    -1.823361814599
    H            2.261861166777     1.034189927218    -0.748991891522
    H            0.838789863086     1.905674333999    -0.185906689285
    H            0.536689961308    -1.496885474777     1.451925659536
    H            2.039123418135    -0.647846544546     1.164518457217
    H            0.665159197430     0.221444154961     1.814726743269

  Mulliken Charges: (a.u.)
   Center  Symbol    Alpha    Beta     Spin     Total
       1     H     0.41224  0.41224  0.00000  0.17552
       2     C     3.07577  3.07577  0.00000 -0.15155
       3     O     4.32024  4.32024  0.00000 -0.64048
       4     H     0.43130  0.43130  0.00000  0.13741
       5     H     0.42960  0.42960  0.00000  0.14081
       6     C     2.90156  2.90156  0.00000  0.19689
       7     C     3.23948  3.23948  0.00000 -0.47895
       8     C     3.26436  3.26436  0.00000 -0.52871
       9     H     0.42131  0.42131  0.00000  0.15738
      10     H     0.41110  0.41110  0.00000  0.17780
      11     H     0.42551  0.42551  0.00000  0.14898
      12     H     0.42212  0.42212  0.00000  0.15577
      13     H     0.41347  0.41347  0.00000  0.17305
      14     H     0.41420  0.41420  0.00000  0.17159
      15     H     0.41775  0.41775  0.00000  0.16449

   Total alpha = 21.00000, Total beta = 21.00000, Total charge =  0.00000
