                              Psi4 1.0.54 Driver

  ==> Input File <==

--------------------------------------------------------------------------
set {
	reference rhf
	basis cc-pvtz
}

set_num_threads( 4 )
memory 2 gb

molecule MOL {
0 1

H	 -1.835082	 1.385983	 0.000069
C	 -1.300516	 0.441153	 -0.000028
O	 -0.006604	 0.654344	 -0.000106
O	 -1.828920	 -0.612308	 0.000113
C	 0.852093	 -0.482521	 -0.000161
C	 1.155662	 -0.831002	 -1.437905
H	 0.355851	 -1.295032	 0.511236
H	 1.750366	 -0.241760	 0.550387
H	 0.247156	 -1.065910	 -1.977725
H	 1.808948	 -1.694612	 -1.473243
H	 1.648661	 -0.007329	 -1.938390

	symmetry c1
}
set optking {
	frozen_dihedral = ("
		7 5 3 2
	")
}

ee,wfn = optimize('scf', return_wfn=True)
oeprop( wfn, 'DIPOLE', 'QUADRUPOLE', 'MULLIKEN_CHARGES')
f=open( 'psi4out.xyz', 'w' )
f.write( "11  " )
f.write( str(ee) + "\n" )
f.write( MOL.save_string_xyz() )
f.close()
--------------------------------------------------------------------------

    Molecular point group: c1
  Charge       = 0
  Multiplicity = 1
  Basis Set: CC-PVTZ
  Basis Set:
  @DF-RHF Final Energy:  -266.92951348347270
    Total Energy =                       -266.9295134834727605
    Molecular point group: c1
  Basis Set: CC-PVTZ
  Basis Set:
  Basis Set: CC-PVTZ
  Basis Set:
  @DF-RHF Final Energy:  -266.91606791304019
    Total Energy =                       -266.9160679130401377
  Basis Set: CC-PVTZ
  Basis Set:
  Basis Set: CC-PVTZ
  Basis Set:
  @DF-RHF Final Energy:  -266.93056017767395
    Total Energy =                       -266.9305601776740104
  Basis Set: CC-PVTZ
  Basis Set:
  Basis Set: CC-PVTZ
  Basis Set:
  @DF-RHF Final Energy:  -266.93030998855028
    Total Energy =                       -266.9303099885503343
  Basis Set: CC-PVTZ
  Basis Set:
  Basis Set: CC-PVTZ
  Basis Set:
  @DF-RHF Final Energy:  -266.93000699612145
    Total Energy =                       -266.9300069961213921
  Basis Set: CC-PVTZ
  Basis Set:
  Basis Set: CC-PVTZ
  Basis Set:
  @DF-RHF Final Energy:  -266.93074722376343
    Total Energy =                       -266.9307472237632055
  Basis Set: CC-PVTZ
  Basis Set:
  Charge       = 0
  Multiplicity = 1
  Basis Set: CC-PVTZ
  Basis Set:

    Orbital Energies (a.u.)
    -----------------------

    Doubly Occupied:

       1A    -20.604951     2A    -20.545390     3A    -11.371189
       4A    -11.289389     5A    -11.222660     6A     -1.478075
       7A     -1.377380     8A     -1.050214     9A     -0.911923
      10A     -0.797626    11A     -0.748923    12A     -0.687719
      13A     -0.657958    14A     -0.624697    15A     -0.576010
      16A     -0.542990    17A     -0.540011    18A     -0.502134
      19A     -0.461415    20A     -0.457300

  @DF-RHF Final Energy:  -266.93075151616949

   => Energetics <=

    Nuclear Repulsion Energy =            181.8043502573258650
    One-Electron Energy =                -724.5743045201700170
    Two-Electron Energy =                 275.8392027466746868
    DFT Exchange-Correlation Energy =       0.0000000000000000
    Empirical Dispersion Energy =           0.0000000000000000
    PCM Polarization Energy =               0.0000000000000000
    EFP Energy =                            0.0000000000000000
    Total Energy =                       -266.9307515161694937
    Molecular point group: c1
  Basis Set: CC-PVTZ
  Basis Set:

  -Total Gradient:
     Atom            X                  Y                   Z
    ------   -----------------  -----------------  -----------------
       1       -0.000044352475     0.000055346779     0.000008800364
       2        0.000179888163     0.000325732568     0.000734885852
       3       -0.000386497744    -0.000202364405    -0.001264100657
       4       -0.000044528768    -0.000184848812     0.000027465635
       5        0.000759718384     0.000440809368     0.001120523151
       6        0.000039108409    -0.000035342170    -0.000010290273
       7       -0.000535011755    -0.000429086357    -0.000560244842
       8        0.000038775382     0.000026855398    -0.000014310638
       9       -0.000042934884    -0.000014820176     0.000007054251
      10        0.000013607669    -0.000016792705    -0.000017245241
      11        0.000022227617     0.000034510514    -0.000032537601

  **** Optimization is complete! (in 7 steps) ****
    Final optimized geometry and variables:
    Molecular point group: c1

    Geometry (in Angstrom), charge = 0, multiplicity = 1:

    H           -1.400633560366     1.723620519458     0.500069092108
    C           -0.940934079416     0.740267263229     0.482982880502
    O            0.306980449414     0.837728704840     0.090071951824
    O           -1.506160667379    -0.250920690952     0.779305238653
    C            1.103324198294    -0.343965780757     0.022122232516
    C            1.050470124105    -0.953721440562    -1.362875389631
    H            0.761505180923    -1.045492271429     0.766118895559
    H            2.103301814638    -0.020492896438     0.267793636235
    H            0.047071632096    -1.282499711060    -1.600180261750
    H            1.709458380097    -1.813227497970    -1.408008549292
    H            1.369837704886    -0.237873213210    -2.110115983605

  Mulliken Charges: (a.u.)
   Center  Symbol    Alpha    Beta     Spin     Total
       1     H     0.44740  0.44740  0.00000  0.10520
       2     C     2.84164  2.84164  0.00000  0.31672
       3     O     4.14947  4.14947  0.00000 -0.29894
       4     O     4.19730  4.19730  0.00000 -0.39459
       5     C     2.98120  2.98120  0.00000  0.03760
       6     C     3.14277  3.14277  0.00000 -0.28554
       7     H     0.44760  0.44760  0.00000  0.10479
       8     H     0.44482  0.44482  0.00000  0.11037
       9     H     0.44480  0.44480  0.00000  0.11041
      10     H     0.45190  0.45190  0.00000  0.09621
      11     H     0.45111  0.45111  0.00000  0.09777

   Total alpha = 20.00000, Total beta = 20.00000, Total charge = -0.00000

*** Psi4 exiting successfully. Buy a developer a beer!
