  ==> Input File <==

--------------------------------------------------------------------------
set {
	reference rhf
	basis 6-31G*
}

set_num_threads( 4 )
memory 2 gb

molecule MOL {
0 1

H	 1.620708	 3.236772	 2.758933
N	 0.785475	 2.686623	 2.701775
C	 0.685415	 2.033730	 1.404376
H	 0.015796	 3.313904	 2.839408
C	 -0.535347	 1.120984	 1.355483
H	 1.583239	 1.439449	 1.264373
H	 0.644004	 2.739400	 0.570881
C	 -0.679275	 0.379305	 0.025956
H	 -0.466480	 0.411932	 2.175444
H	 -1.431048	 1.714776	 1.535667
C	 -1.903357	 -0.536963	 -0.023547
H	 0.216849	 -0.212009	 -0.156134
H	 -0.739101	 1.099563	 -0.788597
C	 -3.225172	 0.228290	 0.028445
H	 -1.867824	 -1.134999	 -0.931459
H	 -1.860449	 -1.239604	 0.805977
H	 -3.313397	 0.915643	 -0.808262
H	 -4.073500	 -0.448134	 -0.008893
H	 -3.306061	 0.809945	 0.942516

	symmetry c1
}
set optking {
	frozen_dihedral = ("
		12 8 11 15
	")
}

ee = optimize('scf')
oeprop('DIPOLE', 'QUADRUPOLE', 'MULLIKEN_CHARGES')
f=open( 'psi4out.xyz', 'w' )
f.write( "19  " )
f.write( str(ee) + "\n" )
f.write( MOL.save_string_xyz() )
f.close()
--------------------------------------------------------------------------

    Molecular point group: c1
  Charge       = 0
  Multiplicity = 1
  Basis Set: 6-31G*
  Basis Set:
  @DF-RHF Final Energy:  -251.34961362605756
    Total Energy =                       -251.3496136260574190
    Molecular point group: c1
  Basis Set: 6-31G*
  Basis Set:
  Basis Set: 6-31G*
  Basis Set:
  @DF-RHF Final Energy:  -251.34989265727825
    Total Energy =                       -251.3498926572781329
  Basis Set: 6-31G*
  Basis Set:
  Basis Set: 6-31G*
  Basis Set:
  @DF-RHF Final Energy:  -251.35014234506068
    Total Energy =                       -251.3501423450605330
  Basis Set: 6-31G*
  Basis Set:
  Basis Set: 6-31G*
  Basis Set:
  @DF-RHF Final Energy:  -251.35015099785119
    Total Energy =                       -251.3501509978511876
  Basis Set: 6-31G*
  Basis Set:
  Charge       = 0
  Multiplicity = 1
  Basis Set: 6-31G*
  Basis Set:

    Orbital Energies (a.u.)
    -----------------------

    Doubly Occupied:

       1A    -15.532479     2A    -11.239746     3A    -11.214267
       4A    -11.212997     5A    -11.209078     6A    -11.207169
       7A     -1.176599     8A     -1.072365     9A     -0.995349
      10A     -0.903656    11A     -0.822492    12A     -0.777612
      13A     -0.664592    14A     -0.631674    15A     -0.616256
      16A     -0.603932    17A     -0.564897    18A     -0.550854
      19A     -0.520700    20A     -0.501112    21A     -0.488397
      22A     -0.461038    23A     -0.454758    24A     -0.451063
      25A     -0.380935

  @DF-RHF Final Energy:  -251.35015139335786

   => Energetics <=

    Nuclear Repulsion Energy =            248.7471858532403530
    One-Electron Energy =                -831.6866388019049054
    Two-Electron Energy =                 331.5893015553066903
    DFT Exchange-Correlation Energy =       0.0000000000000000
    Empirical Dispersion Energy =           0.0000000000000000
    PCM Polarization Energy =               0.0000000000000000
    EFP Energy =                            0.0000000000000000
    Total Energy =                       -251.3501513933578622
    Molecular point group: c1
  Basis Set: 6-31G*
  Basis Set:

  -Total Gradient:
     Atom            X                  Y                   Z
    ------   -----------------  -----------------  -----------------
       1       -0.000000762580    -0.000003633144    -0.000006257319
       2       -0.000010243779     0.000000863140    -0.000005095265
       3        0.000004711600    -0.000007100848     0.000013925658
       4       -0.000002394254     0.000001851189     0.000002574743
       5        0.000003006267     0.000034918913     0.000014294609
       6       -0.000001054824    -0.000006254317    -0.000006085779
       7       -0.000008225401     0.000000896807     0.000005459875
       8        0.000068694177    -0.000099103464     0.000267655320
       9        0.000009660028     0.000009001312     0.000002919065
      10        0.000003379147    -0.000000864666     0.000008283517
      11       -0.000125163952     0.000181191815    -0.000198844963
      12       -0.000014620875     0.000032914911    -0.000203130093
      13        0.000003696632    -0.000009561215    -0.000001544724
      14       -0.000030861858     0.000005082290     0.000019353790
      15        0.000111466974    -0.000142329977     0.000098060497
      16        0.000004749587    -0.000002904979    -0.000007442080
      17       -0.000005920331    -0.000007779648    -0.000003475693
      18       -0.000005132495     0.000010446836     0.000009089857
      19       -0.000004984062     0.000002365043    -0.000009741016

  **** Optimization is complete! (in 5 steps) ****
    Final optimized geometry and variables:
    Molecular point group: c1

    Geometry (in Angstrom), charge = 0, multiplicity = 1:

    H            2.488995089648     2.177185997298     1.824904595111
    N            1.628980746424     1.667074681706     1.763900743442
    C            1.517842952291     0.995515093912     0.476935111781
    H            0.888738333080     2.333414684870     1.877457204742
    C            0.256495001826     0.139412379460     0.425200864121
    H            2.389201867760     0.358186164341     0.361251061500
    H            1.521227238490     1.686945901476    -0.369442341853
    C            0.101826574829    -0.608552023404    -0.901148043700
    H            0.286761048038    -0.565767523540     1.251206639787
    H           -0.606998711915     0.778976593972     0.595800004470
    C           -1.103154392400    -1.554472161262    -0.962917720299
    H            1.004272877578    -1.188975302797    -1.083063992764
    H            0.034093901822     0.108616064718    -1.718032184388
    C           -2.462687209808    -0.854277605931    -0.925182590111
    H           -1.036118507432    -2.138663870763    -1.877444044663
    H           -1.041237159078    -2.267398006465    -0.143453037404
    H           -2.550256822386    -0.128310318963    -1.729267012771
    H           -3.269063655211    -1.572061223062    -1.040464166789
    H           -2.624549129486    -0.331960198409     0.011816301254

  Mulliken Charges: (a.u.)
   Center  Symbol    Alpha    Beta     Spin     Total
       1     H     0.33250  0.33250  0.00000  0.33499
       2     N     3.92188  3.92188  0.00000 -0.84377
       3     C     3.06004  3.06004  0.00000 -0.12008
       4     H     0.33541  0.33541  0.00000  0.32919
       5     C     3.15292  3.15292  0.00000 -0.30584
       6     H     0.42093  0.42093  0.00000  0.15814
       7     H     0.43474  0.43474  0.00000  0.13051
       8     C     3.15676  3.15676  0.00000 -0.31351
       9     H     0.41365  0.41365  0.00000  0.17271
      10     H     0.42579  0.42579  0.00000  0.14843
      11     C     3.15176  3.15176  0.00000 -0.30351
      12     H     0.42208  0.42208  0.00000  0.15583
      13     H     0.42502  0.42502  0.00000  0.14995
      14     C     3.24126  3.24126  0.00000 -0.48252
      15     H     0.42135  0.42135  0.00000  0.15730
      16     H     0.42215  0.42215  0.00000  0.15570
      17     H     0.42294  0.42294  0.00000  0.15413
      18     H     0.41926  0.41926  0.00000  0.16148
      19     H     0.41957  0.41957  0.00000  0.16087

   Total alpha = 25.00000, Total beta = 25.00000, Total charge =  0.00000
