  ==> Input File <==

--------------------------------------------------------------------------
set {
	reference rhf
	basis cc-pvtz
}

set_num_threads( 4 )
memory 2 gb

molecule MOL {
0 1

H	 -3.268214	 -0.875720	 0.463107
C	 -2.806015	 0.000007	 0.024886
N	 -1.391133	 0.000016	 0.301321
H	 -3.029448	 0.000055	 -1.045738
H	 -3.268126	 0.875758	 0.463150
C	 -0.598233	 -0.232280	 -0.886502
C	 -1.034989	 -0.932737	 1.348539
H	 -0.810176	 -1.213265	 -1.321932
H	 -0.850458	 0.516138	 -1.628351
C	 0.882694	 -0.142474	 -0.569006
H	 -1.606055	 -0.695685	 2.238359
H	 -1.276701	 -1.961471	 1.065469
C	 0.445937	 -0.842931	 1.666036
H	 1.453759	 -0.379526	 -1.458826
H	 1.124405	 0.886260	 -0.285936
N	 1.238837	 -1.075227	 0.478212
H	 0.698163	 -1.591349	 2.407884
H	 0.657880	 0.138054	 2.101465
C	 2.653719	 -1.075218	 0.754647
H	 3.206203	 -1.313546	 -0.145644
H	 2.885099	 -1.828503	 1.497337
H	 3.013585	 -0.111861	 1.126934

	symmetry c1
}
set optking {
	frozen_dihedral = ("
		6 3 2 4
	")
}

ee = optimize('scf')
oeprop('DIPOLE', 'QUADRUPOLE', 'MULLIKEN_CHARGES')
f=open( 'psi4out.xyz', 'w' )
f.write( "22  " )
f.write( str(ee) + "\n" )
f.write( MOL.save_string_xyz() )
f.close()
--------------------------------------------------------------------------

    Molecular point group: c1
  Charge       = 0
  Multiplicity = 1
  Basis Set: CC-PVTZ
  Basis Set:
  @DF-RHF Final Energy:  -344.34444865094821
    Total Energy =                       -344.3444486509487206
    Molecular point group: c1
  Basis Set: CC-PVTZ
  Basis Set:
  Basis Set: CC-PVTZ
  Basis Set:
  @DF-RHF Final Energy:  -344.34532132648388
    Total Energy =                       -344.3453213264832584
  Basis Set: CC-PVTZ
  Basis Set:
  Basis Set: CC-PVTZ
  Basis Set:
  @DF-RHF Final Energy:  -344.34546629050158
    Total Energy =                       -344.3454662905016903
  Basis Set: CC-PVTZ
  Basis Set:
  Basis Set: CC-PVTZ
  Basis Set:
  @DF-RHF Final Energy:  -344.34547998295039
    Total Energy =                       -344.3454799829499962
  Basis Set: CC-PVTZ
  Basis Set:
  Charge       = 0
  Multiplicity = 1
  Basis Set: CC-PVTZ
  Basis Set:

    Orbital Energies (a.u.)
    -----------------------

    Doubly Occupied:

       1A    -15.537214     2A    -15.533537     3A    -11.237450
       4A    -11.237298     5A    -11.236390     6A    -11.236363
       7A    -11.234158     8A    -11.233926     9A     -1.255304
      10A     -1.203566    11A     -1.025825    12A     -0.991978
      13A     -0.912691    14A     -0.868082    15A     -0.836477
      16A     -0.753944    17A     -0.666061    18A     -0.636663
      19A     -0.631733    20A     -0.625487    21A     -0.621142
      22A     -0.580598    23A     -0.552673    24A     -0.548839
      25A     -0.542915    26A     -0.519540    27A     -0.497385
      28A     -0.487995    29A     -0.466791    30A     -0.456945
      31A     -0.351097    32A     -0.340761

  @DF-RHF Final Energy:  -344.34548096943973

   => Energetics <=

    Nuclear Repulsion Energy =            421.4421076122987984
    One-Electron Energy =               -1301.8535230091843005
    Two-Electron Energy =                 536.0659344274459954
    DFT Exchange-Correlation Energy =       0.0000000000000000
    Empirical Dispersion Energy =           0.0000000000000000
    PCM Polarization Energy =               0.0000000000000000
    EFP Energy =                            0.0000000000000000
    Total Energy =                       -344.3454809694395635
    Molecular point group: c1
  Basis Set: CC-PVTZ
  Basis Set:

  -Total Gradient:
     Atom            X                  Y                   Z
    ------   -----------------  -----------------  -----------------
       1       -0.000011085016    -0.000008033463    -0.000003197116
       2        0.000148899193     0.005459910263     0.000018352976
       3       -0.000205350454    -0.004561790386     0.000440953105
       4       -0.000130780069    -0.003436847198    -0.000157946160
       5        0.000037810697    -0.000044921502     0.000005766812
       6        0.000157111443     0.002579402524    -0.000376310798
       7       -0.000000840601     0.000019783818     0.000033036569
       8       -0.000013608017     0.000003927787     0.000008727058
       9        0.000004271427     0.000000380913     0.000003964447
      10        0.000011537278     0.000017815853     0.000018605012
      11        0.000000433581    -0.000005601045     0.000002985636
      12        0.000011384808     0.000011537260     0.000001698113
      13       -0.000004876798    -0.000045804819     0.000016083994
      14       -0.000002384580     0.000000182751     0.000002658707
      15        0.000002823668     0.000012038620    -0.000005815948
      16       -0.000020360375     0.000014322381    -0.000006367803
      17        0.000018380566    -0.000001366798     0.000008748054
      18       -0.000015838007    -0.000006946775    -0.000005839789
      19        0.000005232140    -0.000011236270    -0.000007168227
      20        0.000004934920     0.000001072411     0.000002412434
      21        0.000004337127     0.000001545839    -0.000000165303
      22       -0.000002032926     0.000000627837    -0.000001181773

  **** Optimization is complete! (in 5 steps) ****
    Final optimized geometry and variables:
    Molecular point group: c1

    Geometry (in Angstrom), charge = 0, multiplicity = 1:

    H           -3.259824555927    -0.323977356317     0.013419398596
    C           -2.745530925006     0.565076354566    -0.348759705255
    N           -1.318208022869     0.497224008564    -0.106469595817
    H           -2.952827452949     0.619749443832    -1.410047884313
    H           -3.189352673283     1.426294821601     0.137708940955
    C           -0.517428872325     0.288213762394    -1.290826930556
    C           -0.955332139428    -0.402891423212     0.962272661491
    H           -0.707889596411    -0.689331531996    -1.744838345835
    H           -0.769735947905     1.044543012802    -2.023743788909
    C            0.959802053582     0.394903116868    -0.959662041794
    H           -1.526783653859    -0.146991804957     1.847057094627
    H           -1.190687047115    -1.440979470789     0.708406058763
    C            0.524728751887    -0.295189728835     1.278286724634
    H            1.541316798563     0.163703966472    -1.844365252658
    H            1.186562940303     1.426975599334    -0.675535039087
    N            1.319114720800    -0.531278935048     0.092290773096
    H            0.784840164982    -1.033452853422     2.027728561701
    H            0.727603326193     0.692456082262     1.703207187725
    C            2.733675291345    -0.522888413203     0.369826774233
    H            3.288157567359    -0.764004460468    -0.528544301537
    H            2.968187346353    -1.270437970937     1.117384357613
    H            3.088856886577     0.444476041604     0.736556442518

  Mulliken Charges: (a.u.)
   Center  Symbol    Alpha    Beta     Spin     Total
       1     H     0.46486  0.46486  0.00000  0.07028
       2     C     3.09332  3.09332  0.00000 -0.18663
       3     N     3.61465  3.61465  0.00000 -0.22929
       4     H     0.45791  0.45791  0.00000  0.08417
       5     H     0.44981  0.44981  0.00000  0.10039
       6     C     3.03466  3.03466  0.00000 -0.06931
       7     C     3.03474  3.03474  0.00000 -0.06948
       8     H     0.46922  0.46922  0.00000  0.06155
       9     H     0.45370  0.45370  0.00000  0.09259
      10     C     3.03666  3.03666  0.00000 -0.07331
      11     H     0.45358  0.45358  0.00000  0.09285
      12     H     0.46868  0.46868  0.00000  0.06264
      13     C     3.03713  3.03713  0.00000 -0.07427
      14     H     0.45410  0.45410  0.00000  0.09179
      15     H     0.46877  0.46877  0.00000  0.06246
      16     N     3.61304  3.61304  0.00000 -0.22608
      17     H     0.45409  0.45409  0.00000  0.09182
      18     H     0.46867  0.46867  0.00000  0.06266
      19     C     3.09825  3.09825  0.00000 -0.19650
      20     H     0.45197  0.45197  0.00000  0.09606
      21     H     0.45196  0.45196  0.00000  0.09608
      22     H     0.47023  0.47023  0.00000  0.05954

   Total alpha = 32.00000, Total beta = 32.00000, Total charge = -0.00000
