  ==> Input File <==

--------------------------------------------------------------------------
set {
	reference rhf
	basis 6-31G*
}

set_num_threads( 1 )
memory 2 gb

molecule MOL {
0 1

O	 1.214711	 1.306902	 -0.000018
C	 1.122059	 0.121804	 -0.000188
C	 -0.170150	 -0.657997	 -0.000612
O	 2.172624	 -0.688929	 0.000216
C	 -1.412532	 0.227344	 -0.000452
H	 -0.153702	 -1.313099	 -0.867402
H	 -0.153924	 -1.313811	 0.865644
C	 -1.070597	 1.708954	 0.164712
H	 -2.077333	 -0.088163	 0.797670
H	 -1.959884	 0.076909	 -0.925805
C	 -2.309572	 2.603351	 0.164670
H	 -0.521592	 1.853978	 1.092956
H	 -0.402268	 2.019177	 -0.636018
H	 -2.982227	 2.340390	 0.975867
H	 -2.039573	 3.647993	 0.283418
H	 -2.861696	 2.507238	 -0.765685
C	 3.452279	 -0.082609	 0.000533
H	 3.583069	 0.529321	 -0.880332
H	 4.163299	 -0.894027	 0.001117
H	 3.582335	 0.529955	 0.881077

	symmetry c1
}
set optking {
	frozen_dihedral = ("
		9 5 8 12,
		1 2 3 6,
		1 2 4 17
	")
}

ee = energy('scf')
oeprop('DIPOLE', 'QUADRUPOLE', 'MULLIKEN_CHARGES')
f=open( 'psi4out.xyz', 'w' )
f.write( "20  " )
f.write( str(ee) + "\n" )
f.write( MOL.save_string_xyz() )
f.close()
--------------------------------------------------------------------------

    Molecular point group: c1

    Geometry (in Angstrom), charge = 0, multiplicity = 1:

       Center              X                  Y                   Z               Mass
    ------------   -----------------  -----------------  -----------------  -----------------
           O          0.803971154264     0.730525913372    -0.041161286421    15.994914619560
           C          0.711319154264    -0.454572086628    -0.041331286421    12.000000000000
           C         -0.580889845736    -1.234373086628    -0.041755286421    12.000000000000
           O          1.761884154264    -1.265305086628    -0.040927286421    15.994914619560
           C         -1.823271845736    -0.349032086628    -0.041595286421    12.000000000000
           H         -0.564441845736    -1.889475086628    -0.908545286421     1.007825032070
           H         -0.564663845736    -1.890187086628     0.824500713579     1.007825032070
           C         -1.481336845736     1.132577913372     0.123568713579    12.000000000000
           H         -2.488072845736    -0.664539086628     0.756526713579     1.007825032070
           H         -2.370623845736    -0.499467086628    -0.966948286421     1.007825032070
           C         -2.720311845736     2.026974913372     0.123526713579    12.000000000000
           H         -0.932331845736     1.277601913372     1.051812713579     1.007825032070
           H         -0.813007845736     1.442800913372    -0.677161286421     1.007825032070
           H         -3.392966845736     1.764013913372     0.934723713579     1.007825032070
           H         -2.450312845736     3.071616913372     0.242274713579     1.007825032070
           H         -3.272435845736     1.930861913372    -0.806828286421     1.007825032070
           C          3.041539154264    -0.658985086628    -0.040610286421    12.000000000000
           H          3.172329154264    -0.047055086628    -0.921475286421     1.007825032070
           H          3.752559154264    -1.470403086628    -0.040026286421     1.007825032070
           H          3.171595154264    -0.046421086628     0.839933713579     1.007825032070

  Charge       = 0
  Multiplicity = 1
  Basis Set: 6-31G*
  Basis Set:

    Orbital Energies (a.u.)
    -----------------------

    Doubly Occupied:

       1A    -20.605695     2A    -20.541275     3A    -11.375905
       4A    -11.282611     5A    -11.236280     6A    -11.216638
       7A    -11.191858     8A    -11.190344     9A     -1.473054
      10A     -1.369431    11A     -1.083237    12A     -1.016812
      13A     -0.965408    14A     -0.879060    15A     -0.801632
      16A     -0.773628    17A     -0.696459    18A     -0.687007
      19A     -0.666317    20A     -0.639164    21A     -0.600738
      22A     -0.580332    23A     -0.567957    24A     -0.546120
      25A     -0.536570    26A     -0.517839    27A     -0.499692
      28A     -0.493925    29A     -0.467767    30A     -0.456226
      31A     -0.436648    32A     -0.401040

  @DF-RHF Final Energy:  -383.90236124719848

   => Energetics <=

    Nuclear Repulsion Energy =            398.4369065416049693
    One-Electron Energy =               -1313.0850765629006673
    Two-Electron Energy =                 530.7458087740974406
    DFT Exchange-Correlation Energy =       0.0000000000000000
    Empirical Dispersion Energy =           0.0000000000000000
    PCM Polarization Energy =               0.0000000000000000
    EFP Energy =                            0.0000000000000000
    Total Energy =                       -383.9023612471983142

  Mulliken Charges: (a.u.)
   Center  Symbol    Alpha    Beta     Spin     Total
       1     O     4.28408  4.28408  0.00000 -0.56816
       2     C     2.60705  2.60705  0.00000  0.78589
       3     C     3.21202  3.21202  0.00000 -0.42403
       4     O     4.30718  4.30718  0.00000 -0.61437
       5     C     3.15712  3.15712  0.00000 -0.31423
       6     H     0.39637  0.39637  0.00000  0.20725
       7     H     0.39663  0.39663  0.00000  0.20675
       8     C     3.14999  3.14999  0.00000 -0.29999
       9     H     0.41845  0.41845  0.00000  0.16311
      10     H     0.41850  0.41850  0.00000  0.16300
      11     C     3.23608  3.23608  0.00000 -0.47216
      12     H     0.41886  0.41886  0.00000  0.16228
      13     H     0.40021  0.40021  0.00000  0.19959
      14     H     0.42957  0.42957  0.00000  0.14086
      15     H     0.42083  0.42083  0.00000  0.15835
      16     H     0.42816  0.42816  0.00000  0.14369
      17     C     3.09242  3.09242  0.00000 -0.18484
      18     H     0.40929  0.40929  0.00000  0.18142
      19     H     0.40805  0.40805  0.00000  0.18390
      20     H     0.40915  0.40915  0.00000  0.18170

   Total alpha = 32.00000, Total beta = 32.00000, Total charge = -0.00000
