  ==> Input File <==

--------------------------------------------------------------------------
set {
	reference rhf
	basis cc-pvtz
}

set_num_threads( 4 )
memory 2 gb

molecule MOL {
0 1

O	 0.395927	 1.296676	 -0.000076
C	 0.503051	 0.114301	 -0.000074
C	 -0.701422	 -0.805636	 -0.000109
C	 1.858118	 -0.556123	 0.000212
C	 -1.097669	 -1.308132	 -1.379445
H	 -0.479971	 -1.635462	 0.666062
H	 -1.523023	 -0.269838	 0.468220
H	 -0.289305	 -1.862247	 -1.837409
H	 -1.961764	 -1.957938	 -1.309099
H	 -1.341611	 -0.484528	 -2.037017
H	 1.961106	 -1.191101	 -0.872843
H	 2.636688	 0.191085	 -0.000109
H	 1.961070	 -1.190284	 0.873873

	symmetry c1
}
set optking {
	frozen_dihedral = ("
		6 3 2 1
	")
}

ee = optimize('scf')
oeprop('DIPOLE', 'QUADRUPOLE', 'MULLIKEN_CHARGES')
f=open( 'psi4out.xyz', 'w' )
f.write( "13  " )
f.write( str(ee) + "\n" )
f.write( MOL.save_string_xyz() )
f.close()
--------------------------------------------------------------------------

    Molecular point group: c1
  Charge       = 0
  Multiplicity = 1
  Basis Set: CC-PVTZ
  Basis Set:
  @DF-RHF Final Energy:  -231.08053016275647
    Total Energy =                       -231.0805301627565598
    Molecular point group: c1
  Basis Set: CC-PVTZ
  Basis Set:
  Basis Set: CC-PVTZ
  Basis Set:
  @DF-RHF Final Energy:  -231.08117387751540
    Total Energy =                       -231.0811738775154822
  Basis Set: CC-PVTZ
  Basis Set:
  Basis Set: CC-PVTZ
  Basis Set:
  @DF-RHF Final Energy:  -231.07948890439457
    Total Energy =                       -231.0794889043942817
  Basis Set: CC-PVTZ
  Basis Set:
  Basis Set: CC-PVTZ
  Basis Set:
  @DF-RHF Final Energy:  -231.08126837220291
    Total Energy =                       -231.0812683722027430
  Basis Set: CC-PVTZ
  Basis Set:
  Basis Set: CC-PVTZ
  Basis Set:
  @DF-RHF Final Energy:  -231.08129668064038
    Total Energy =                       -231.0812966806402642
  Basis Set: CC-PVTZ
  Basis Set:
  Basis Set: CC-PVTZ
  Basis Set:
  @DF-RHF Final Energy:  -231.08131047550702
    Total Energy =                       -231.0813104755071095
  Basis Set: CC-PVTZ
  Basis Set:
  Basis Set: CC-PVTZ
  Basis Set:
  @DF-RHF Final Energy:  -231.08131684769418
    Total Energy =                       -231.0813168476943247
  Basis Set: CC-PVTZ
  Basis Set:
  Charge       = 0
  Multiplicity = 1
  Basis Set: CC-PVTZ
  Basis Set:

    Orbital Energies (a.u.)
    -----------------------

    Doubly Occupied:

       1A    -20.538444     2A    -11.320411     3A    -11.231925
       4A    -11.227841     5A    -11.227584     6A     -1.398318
       7A     -1.067726     8A     -0.997537     9A     -0.886015
      10A     -0.735138    11A     -0.656483    12A     -0.649924
      13A     -0.611275    14A     -0.595920    15A     -0.564025
      16A     -0.541717    17A     -0.530344    18A     -0.503724
      19A     -0.486197    20A     -0.402221

  @DF-RHF Final Energy:  -231.08131700157324

   => Energetics <=

    Nuclear Repulsion Energy =            177.2628253998833259
    One-Electron Energy =                -664.3427482937572677
    Two-Electron Energy =                 255.9986058923007306
    DFT Exchange-Correlation Energy =       0.0000000000000000
    Empirical Dispersion Energy =           0.0000000000000000
    PCM Polarization Energy =               0.0000000000000000
    EFP Energy =                            0.0000000000000000
    Total Energy =                       -231.0813170015731828
    Molecular point group: c1
  Basis Set: CC-PVTZ
  Basis Set:

  -Total Gradient:
     Atom            X                  Y                   Z
    ------   -----------------  -----------------  -----------------
       1        0.000019327256    -0.000012556534     0.000625351248
       2       -0.000083373832     0.000059803197    -0.000765772130
       3        0.000315504070    -0.000350424585    -0.000340251414
       4       -0.000010858012     0.000023688075    -0.000002340360
       5       -0.000002023904    -0.000021929123    -0.000038829715
       6       -0.000233538666     0.000303131538     0.000483702268
       7       -0.000010127819    -0.000002028918     0.000007182961
       8        0.000003043535     0.000003434190     0.000003719219
       9       -0.000000034531     0.000003820779     0.000011513411
      10        0.000002971131     0.000002800517     0.000011632377
      11       -0.000002510579    -0.000006189220    -0.000000996248
      12        0.000001400825     0.000000382019     0.000001842578
      13        0.000000220525    -0.000003931936     0.000003245807

  **** Optimization is complete! (in 8 steps) ****
    Final optimized geometry and variables:
    Molecular point group: c1

    Geometry (in Angstrom), charge = 0, multiplicity = 1:

    O            0.178687149575     1.534942580102     0.334161542398
    C            0.304191669262     0.354422967292     0.295913508966
    C           -0.901705880781    -0.564052779806     0.294291033020
    C            1.669650496532    -0.291887501792     0.254483656712
    C           -1.266623579748    -1.021288983143    -1.121480374100
    H           -0.703207710271    -1.427017814086     0.921503053443
    H           -1.726495470230    -0.014295170133     0.726231050631
    H           -0.466806476844    -1.589314163933    -1.581629603887
    H           -2.145589062766    -1.652637383180    -1.095641346666
    H           -1.483140095560    -0.169270879916    -1.753779764825
    H            1.720236191823    -1.056418475466    -0.511291379115
    H            2.426601428344     0.457157833660     0.079981117573
    H            1.858233361246    -0.777062871362     1.206957713443

  Mulliken Charges: (a.u.)
   Center  Symbol    Alpha    Beta     Spin     Total
       1     O     4.17447  4.17447  0.00000 -0.34893
       2     C     2.85362  2.85362  0.00000  0.29276
       3     C     3.09692  3.09692  0.00000 -0.19385
       4     C     3.15463  3.15463  0.00000 -0.30927
       5     C     3.15135  3.15135  0.00000 -0.30270
       6     H     0.45148  0.45148  0.00000  0.09705
       7     H     0.43837  0.43837  0.00000  0.12327
       8     H     0.45396  0.45396  0.00000  0.09208
       9     H     0.44490  0.44490  0.00000  0.11020
      10     H     0.44455  0.44455  0.00000  0.11089
      11     H     0.45128  0.45128  0.00000  0.09744
      12     H     0.43579  0.43579  0.00000  0.12843
      13     H     0.44869  0.44869  0.00000  0.10263

   Total alpha = 20.00000, Total beta = 20.00000, Total charge = -0.00000
