  ==> Input File <==

--------------------------------------------------------------------------
set {
	reference rhf
	basis 6-31G*
}

set_num_threads( 1 )
memory 2 gb

molecule MOL {
0 1

O	 2.862325	 1.357334	 0.000267
C	 2.843464	 0.164689	 -0.000222
C	 1.546494	 -0.624492	 -0.000609
C	 4.124123	 -0.644674	 -0.000428
C	 0.291004	 0.242674	 0.000989
H	 1.557904	 -1.283758	 -0.867573
H	 1.558622	 -1.285963	 0.864672
C	 -0.994322	 -0.586602	 0.000262
H	 0.309117	 0.896430	 -0.865270
H	 0.309661	 0.894078	 0.869017
C	 -2.259874	 0.272531	 0.000494
H	 -1.004862	 -1.240012	 -0.870939
H	 -1.005220	 -1.241071	 0.870675
C	 -2.050297	 1.658921	 0.612059
H	 -3.046073	 -0.245790	 0.546621
H	 -2.620607	 0.381333	 -1.020795
C	 -3.318965	 2.511069	 0.608909
H	 -1.690840	 1.551453	 1.633365
H	 -1.265666	 2.178601	 0.066031
H	 -4.113071	 2.033856	 1.176196
H	 -3.138881	 3.487092	 1.048964
H	 -3.684252	 2.666435	 -0.402314
H	 4.165367	 -1.288615	 -0.874074
H	 4.976217	 0.020734	 -0.001915
H	 4.166763	 -1.286207	 0.874930

	symmetry c1
}
set optking {
	frozen_dihedral = ("
		9 5 8 12,
		15 11 14 18,
		1 2 3 6,
		9 5 3 6
	")
}

ee = energy('scf')
oeprop('DIPOLE', 'QUADRUPOLE', 'MULLIKEN_CHARGES')
f=open( 'psi4out.xyz', 'w' )
f.write( "25  " )
f.write( str(ee) + "\n" )
f.write( MOL.save_string_xyz() )
f.close()
--------------------------------------------------------------------------

    Molecular point group: c1

    Geometry (in Angstrom), charge = 0, multiplicity = 1:

       Center              X                  Y                   Z               Mass
    ------------   -----------------  -----------------  -----------------  -----------------
           O          2.523573101057     0.858370612496    -0.138143405900    15.994914619560
           C          2.504712101057    -0.334274387504    -0.138632405900    12.000000000000
           C          1.207742101057    -1.123455387504    -0.139019405900    12.000000000000
           C          3.785371101057    -1.143637387504    -0.138838405900    12.000000000000
           C         -0.047747898943    -0.256289387504    -0.137421405900    12.000000000000
           H          1.219152101057    -1.782721387504    -1.005983405900     1.007825032070
           H          1.219870101057    -1.784926387504     0.726261594100     1.007825032070
           C         -1.333073898943    -1.085565387504    -0.138148405900    12.000000000000
           H         -0.029634898943     0.397466612496    -1.003680405900     1.007825032070
           H         -0.029090898943     0.395114612496     0.730606594100     1.007825032070
           C         -2.598625898943    -0.226432387504    -0.137916405900    12.000000000000
           H         -1.343613898943    -1.738975387504    -1.009349405900     1.007825032070
           H         -1.343971898943    -1.740034387504     0.732264594100     1.007825032070
           C         -2.389048898943     1.159957612496     0.473648594100    12.000000000000
           H         -3.384824898943    -0.744753387504     0.408210594100     1.007825032070
           H         -2.959358898943    -0.117630387504    -1.159205405900     1.007825032070
           C         -3.657716898943     2.012105612496     0.470498594100    12.000000000000
           H         -2.029591898943     1.052489612496     1.494954594100     1.007825032070
           H         -1.604417898943     1.679637612496    -0.072379405900     1.007825032070
           H         -4.451822898943     1.534892612496     1.037785594100     1.007825032070
           H         -3.477632898943     2.988128612496     0.910553594100     1.007825032070
           H         -4.023003898943     2.167471612496    -0.540724405900     1.007825032070
           H          3.826615101057    -1.787578387504    -1.012484405900     1.007825032070
           H          4.637465101057    -0.478229387504    -0.140325405900     1.007825032070
           H          3.828011101057    -1.785170387504     0.736519594100     1.007825032070

  Charge       = 0
  Multiplicity = 1
  Basis Set: 6-31G*
  Basis Set:

    Orbital Energies (a.u.)
    -----------------------

    Doubly Occupied:

       1A    -20.550265     2A    -11.326061     3A    -11.231008
       4A    -11.228190     5A    -11.216006     6A    -11.215269
       7A    -11.212414     8A    -11.211198     9A    -11.205381
      10A     -1.395600    11A     -1.096238    12A     -1.052781
      13A     -1.011478    14A     -0.968768    15A     -0.886669
      16A     -0.838404    17A     -0.765286    18A     -0.730873
      19A     -0.659502    20A     -0.650902    21A     -0.632304
      22A     -0.623039    23A     -0.595699    24A     -0.580555
      25A     -0.571939    26A     -0.561418    27A     -0.552143
      28A     -0.515175    29A     -0.507068    30A     -0.493684
      31A     -0.488041    32A     -0.481878    33A     -0.460820
      34A     -0.446693    35A     -0.445663    36A     -0.399801

  @DF-RHF Final Energy:  -387.12692210698640

   => Energetics <=

    Nuclear Repulsion Energy =            449.9678424362956548
    One-Electron Energy =               -1416.5730651730409591
    Two-Electron Energy =                 579.4783006297579959
    DFT Exchange-Correlation Energy =       0.0000000000000000
    Empirical Dispersion Energy =           0.0000000000000000
    PCM Polarization Energy =               0.0000000000000000
    EFP Energy =                            0.0000000000000000
    Total Energy =                       -387.1269221069873083

  Mulliken Charges: (a.u.)
   Center  Symbol    Alpha    Beta     Spin     Total
       1     O     4.26166  4.26166  0.00000 -0.52332
       2     C     2.73557  2.73557  0.00000  0.52885
       3     C     3.20883  3.20883  0.00000 -0.41766
       4     C     3.28670  3.28670  0.00000 -0.57340
       5     C     3.15659  3.15659  0.00000 -0.31319
       6     H     0.41045  0.41045  0.00000  0.17909
       7     H     0.41032  0.41032  0.00000  0.17936
       8     C     3.15521  3.15521  0.00000 -0.31042
       9     H     0.41183  0.41183  0.00000  0.17633
      10     H     0.40731  0.40731  0.00000  0.18538
      11     C     3.15172  3.15172  0.00000 -0.30345
      12     H     0.42231  0.42231  0.00000  0.15537
      13     H     0.42386  0.42386  0.00000  0.15229
      14     C     3.16110  3.16110  0.00000 -0.32220
      15     H     0.42148  0.42148  0.00000  0.15703
      16     H     0.42252  0.42252  0.00000  0.15497
      17     C     3.23748  3.23748  0.00000 -0.47495
      18     H     0.42275  0.42275  0.00000  0.15451
      19     H     0.41392  0.41392  0.00000  0.17216
      20     H     0.42318  0.42318  0.00000  0.15365
      21     H     0.41888  0.41888  0.00000  0.16223
      22     H     0.42231  0.42231  0.00000  0.15537
      23     H     0.40872  0.40872  0.00000  0.18255
      24     H     0.39656  0.39656  0.00000  0.20688
      25     H     0.40872  0.40872  0.00000  0.18256

   Total alpha = 36.00000, Total beta = 36.00000, Total charge = -0.00000
