  ==> Input File <==

--------------------------------------------------------------------------
set {
	reference rhf
	basis 6-31G*
}

set_num_threads( 4 )
memory 2 gb

molecule MOL {
0 1

O	 0.093979	 -0.514657	 -2.182375
C	 -0.137480	 0.184934	 -1.232795
C	 -1.291441	 1.169125	 -1.275552
N	 0.623947	 0.147590	 -0.102813
H	 -0.949800	 2.188609	 -1.134069
H	 -1.753668	 1.082182	 -2.247062
H	 -2.029274	 0.952210	 -0.510613
C	 1.665360	 -0.855771	 0.000151
C	 0.262291	 0.794455	 1.139369
H	 2.465253	 -0.618490	 -0.692587
H	 1.257730	 -1.821716	 -0.242189
H	 2.081488	 -0.891645	 1.004627
H	 1.164783	 1.095754	 1.657794
H	 -0.326978	 1.681273	 0.968340
H	 -0.295694	 0.129631	 1.796236

	symmetry c1
}
set optking {
	frozen_dihedral = ("
		2 4 8 10
	")
}

ee = optimize('scf')
oeprop('DIPOLE', 'QUADRUPOLE', 'MULLIKEN_CHARGES')
f=open( 'psi4out.xyz', 'w' )
f.write( "15  " )
f.write( str(ee) + "\n" )
f.write( MOL.save_string_xyz() )
f.close()
--------------------------------------------------------------------------

    Molecular point group: c1
  Charge       = 0
  Multiplicity = 1
  Basis Set: 6-31G*
  Basis Set:
  @DF-RHF Final Energy:  -286.02760944671195
    Total Energy =                       -286.0276094467118355
    Molecular point group: c1
  Basis Set: 6-31G*
  Basis Set:
  Basis Set: 6-31G*
  Basis Set:
  @DF-RHF Final Energy:  -286.02857338951446
    Total Energy =                       -286.0285733895144631
  Basis Set: 6-31G*
  Basis Set:
  Basis Set: 6-31G*
  Basis Set:
  @DF-RHF Final Energy:  -286.02870090672064
    Total Energy =                       -286.0287009067207009
  Basis Set: 6-31G*
  Basis Set:
  Basis Set: 6-31G*
  Basis Set:
  @DF-RHF Final Energy:  -286.02858111211566
    Total Energy =                       -286.0285811121155461
  Basis Set: 6-31G*
  Basis Set:
  @DF-RHF Final Energy:  -286.02872920702305
    Total Energy =                       -286.0287292070230478
  @DF-RHF Final Energy:  -286.02874523656658
    Total Energy =                       -286.0287452365664649
  @DF-RHF Final Energy:  -286.02880606604685
    Total Energy =                       -286.0288060660468545
  @DF-RHF Final Energy:  -286.02884677591635
    Total Energy =                       -286.0288467759162359
  @DF-RHF Final Energy:  -286.02888806918543
    Total Energy =                       -286.0288880691853137
  @DF-RHF Final Energy:  -286.02885954209557
    Total Energy =                       -286.0288595420956881
  @DF-RHF Final Energy:  -286.02892475560486
    Total Energy =                       -286.0289247556047485
  @DF-RHF Final Energy:  -286.02896196975223
    Total Energy =                       -286.0289619697522312
  @DF-RHF Final Energy:  -286.02899832962567
    Total Energy =                       -286.0289983296257788
  @DF-RHF Final Energy:  -286.02903482327770
    Total Energy =                       -286.0290348232776978
  @DF-RHF Final Energy:  -286.02914380447191
    Total Energy =                       -286.0291438044719712
  @DF-RHF Final Energy:  -286.02925024353425
    Total Energy =                       -286.0292502435344204
  @DF-RHF Final Energy:  -286.02934569630139
    Total Energy =                       -286.0293456963014478
  @DF-RHF Final Energy:  -286.02937430713212
    Total Energy =                       -286.0293743071321160
  @DF-RHF Final Energy:  -286.02916409993082
    Total Energy =                       -286.0291640999305400
  Basis Set: 6-31G*
  Basis Set:
  @DF-RHF Final Energy:  -286.02940064500785
    Total Energy =                       -286.0294006450079678
  Basis Set: 6-31G*
  Basis Set:
  Basis Set: 6-31G*
  Basis Set:
  @DF-RHF Final Energy:  -286.02941419473456
    Total Energy =                       -286.0294141947342723
  Basis Set: 6-31G*
  Basis Set:
  Basis Set: 6-31G*
  Basis Set:
  @DF-RHF Final Energy:  -286.02941927463473
    Total Energy =                       -286.0294192746345061
  Basis Set: 6-31G*
  Basis Set:
  Charge       = 0
  Multiplicity = 1
  Basis Set: 6-31G*
  Basis Set:

    Orbital Energies (a.u.)
    -----------------------

    Doubly Occupied:

       1A    -20.515647     2A    -15.582841     3A    -11.340016
       4A    -11.266632     5A    -11.248140     6A    -11.228450
       7A     -1.385377     8A     -1.242174     9A     -1.013841
      10A     -0.973062    11A     -0.917636    12A     -0.737192
      13A     -0.680059    14A     -0.658025    15A     -0.651226
      16A     -0.588142    17A     -0.575955    18A     -0.569842
      19A     -0.564071    20A     -0.545583    21A     -0.530111
      22A     -0.499990    23A     -0.411193    24A     -0.367448

  @DF-RHF Final Energy:  -286.02941964024558

   => Energetics <=

    Nuclear Repulsion Energy =            252.6280545660215466
    One-Electron Energy =                -889.1296415222448104
    Two-Electron Energy =                 350.4721673159776287
    DFT Exchange-Correlation Energy =       0.0000000000000000
    Empirical Dispersion Energy =           0.0000000000000000
    PCM Polarization Energy =               0.0000000000000000
    EFP Energy =                            0.0000000000000000
    Total Energy =                       -286.0294196402456350
    Molecular point group: c1
  Basis Set: 6-31G*
  Basis Set:

  -Total Gradient:
     Atom            X                  Y                   Z
    ------   -----------------  -----------------  -----------------
       1       -0.000016861953     0.000072572265     0.000168675014
       2        0.000477187572     0.000511522404    -0.000277497735
       3        0.000055987757     0.000009615830     0.000008789925
       4       -0.000874939098    -0.000945765498    -0.000009774432
       5       -0.000022280918    -0.000007750724     0.000000798358
       6       -0.000000876639    -0.000008692340    -0.000015498484
       7        0.000024860010    -0.000011850018    -0.000010275619
       8        0.000472406821     0.000740356597     0.000954649494
       9        0.000001427509    -0.000021978266    -0.000026476755
      10       -0.000249796550    -0.000365845978    -0.000832765397
      11        0.000022843220     0.000029855700     0.000025561229
      12        0.000002750690     0.000010438562     0.000000277838
      13        0.000057876868     0.000051838759     0.000040251011
      14        0.000049967652    -0.000048306121    -0.000001531074
      15       -0.000000552942    -0.000016011171    -0.000025183369

  **** Optimization is complete! (in 23 steps) ****
    Final optimized geometry and variables:
    Molecular point group: c1

    Geometry (in Angstrom), charge = 0, multiplicity = 1:

    O            0.014392665873    -0.560596618685    -1.608046637732
    C           -0.332478390993     0.043939055254    -0.629263310453
    C           -1.444989232496     1.070991839695    -0.713674380355
    N            0.236699847042    -0.189723404612     0.587508900622
    H           -1.082788055132     2.067108677072    -0.482073714681
    H           -1.820341114018     1.059923847308    -1.725783239929
    H           -2.253789029316     0.839797370394    -0.029452228161
    C            1.378242090743    -1.088020410620     0.606798887436
    C            0.100623887194     0.706582267380     1.716355321376
    H            2.251635651424    -0.641711719781     0.139952228536
    H            1.141270446073    -1.994097443118     0.071415148355
    H            1.613610011010    -1.334191870828     1.633807412597
    H            0.862751430835     1.484183937640     1.719827080455
    H           -0.869098915495     1.178815481593     1.724859936543
    H            0.194935577708     0.139757775649     2.633989843988

  Mulliken Charges: (a.u.)
   Center  Symbol    Alpha    Beta     Spin     Total
       1     O     4.30280  4.30280  0.00000 -0.60560
       2     C     2.62639  2.62639  0.00000  0.74723
       3     C     3.29795  3.29795  0.00000 -0.59590
       4     N     3.82170  3.82170  0.00000 -0.64339
       5     H     0.40761  0.40761  0.00000  0.18477
       6     H     0.39073  0.39073  0.00000  0.21854
       7     H     0.40647  0.40647  0.00000  0.18706
       8     C     3.13851  3.13851  0.00000 -0.27703
       9     C     3.14288  3.14288  0.00000 -0.28575
      10     H     0.41483  0.41483  0.00000  0.17034
      11     H     0.39598  0.39598  0.00000  0.20804
      12     H     0.41967  0.41967  0.00000  0.16065
      13     H     0.41720  0.41720  0.00000  0.16559
      14     H     0.40761  0.40761  0.00000  0.18478
      15     H     0.40966  0.40966  0.00000  0.18069

   Total alpha = 24.00000, Total beta = 24.00000, Total charge =  0.00000
