  ==> Input File <==

--------------------------------------------------------------------------
set {
	reference rhf
	basis 6-31G*
}

set_num_threads( 1 )
memory 2 gb

molecule MOL {
0 1

O	 3.104529	 0.779232	 -0.958101
C	 2.630363	 -0.052760	 -0.253818
C	 1.245376	 -0.013843	 0.345420
O	 3.277803	 -1.154146	 0.105906
C	 0.455112	 1.231400	 -0.050772
H	 0.742821	 -0.927273	 0.044959
H	 1.358416	 -0.078456	 1.424653
C	 -0.998893	 1.219485	 0.433193
H	 0.482531	 1.345121	 -1.130325
H	 0.957290	 2.103070	 0.354729
C	 -1.883438	 0.145884	 -0.207175
H	 -1.431207	 2.195402	 0.224832
H	 -1.019646	 1.105716	 1.516076
C	 -3.347647	 0.245583	 0.225435
H	 -1.822183	 0.231698	 -1.291012
H	 -1.510341	 -0.844814	 0.042401
C	 -4.239992	 -0.825570	 -0.404234
H	 -3.732888	 1.230466	 -0.033079
H	 -3.408585	 0.170602	 1.310038
C	 -5.701275	 -0.716658	 0.029921
H	 -4.179496	 -0.752714	 -1.488058
H	 -3.859041	 -1.810759	 -0.143352
H	 -6.308102	 -1.488908	 -0.432678
H	 -6.122175	 0.245478	 -0.248167
H	 -5.799072	 -0.820114	 1.106957
C	 4.594865	 -1.315604	 -0.388223
H	 4.594952	 -1.342316	 -1.468404
H	 4.946044	 -2.255205	 0.009056
H	 5.228457	 -0.507091	 -0.052954

	symmetry c1
}
set optking {
	frozen_dihedral = ("
		21 17 14 11,
		17 14 11 15,
		15 11 8 5,
		11 8 5 9,
		2 4 26 27,
		1 2 4 26,
		6 3 2 1
	")
}

ee = energy('scf')
oeprop('DIPOLE', 'QUADRUPOLE', 'MULLIKEN_CHARGES')
f=open( 'psi4out.xyz', 'w' )
f.write( "29  " )
f.write( str(ee) + "\n" )
f.write( MOL.save_string_xyz() )
f.close()
--------------------------------------------------------------------------

    Molecular point group: c1

    Geometry (in Angstrom), charge = 0, multiplicity = 1:

       Center              X                  Y                   Z               Mass
    ------------   -----------------  -----------------  -----------------  -----------------
           O          3.141884949355     0.837405570492    -0.849771987509    15.994914619560
           C          2.667718949355     0.005413570492    -0.145488987509    12.000000000000
           C          1.282731949355     0.044330570492     0.453749012491    12.000000000000
           O          3.315158949355    -1.095972429508     0.214235012491    15.994914619560
           C          0.492467949355     1.289573570492     0.057557012491    12.000000000000
           H          0.780176949355    -0.869099429508     0.153288012491     1.007825032070
           H          1.395771949355    -0.020282429508     1.532982012491     1.007825032070
           C         -0.961537050645     1.277658570492     0.541522012491    12.000000000000
           H          0.519886949355     1.403294570492    -1.021995987509     1.007825032070
           H          0.994645949355     2.161243570492     0.463058012491     1.007825032070
           C         -1.846082050645     0.204057570492    -0.098845987509    12.000000000000
           H         -1.393851050645     2.253575570492     0.333161012491     1.007825032070
           H         -0.982290050645     1.163889570492     1.624405012491     1.007825032070
           C         -3.310291050645     0.303756570492     0.333764012491    12.000000000000
           H         -1.784827050645     0.289871570492    -1.182682987509     1.007825032070
           H         -1.472985050645    -0.786640429508     0.150730012491     1.007825032070
           C         -4.202636050645    -0.767396429508    -0.295904987509    12.000000000000
           H         -3.695532050645     1.288639570492     0.075250012491     1.007825032070
           H         -3.371229050645     0.228775570492     1.418367012491     1.007825032070
           C         -5.663919050645    -0.658484429508     0.138250012491    12.000000000000
           H         -4.142140050645    -0.694540429508    -1.379728987509     1.007825032070
           H         -3.821685050645    -1.752585429508    -0.035022987509     1.007825032070
           H         -6.270746050645    -1.430734429508    -0.324348987509     1.007825032070
           H         -6.084819050645     0.303651570492    -0.139837987509     1.007825032070
           H         -5.761716050645    -0.761940429508     1.215286012491     1.007825032070
           C          4.632220949355    -1.257430429508    -0.279893987509    12.000000000000
           H          4.632307949355    -1.284142429508    -1.360074987509     1.007825032070
           H          4.983399949355    -2.197031429508     0.117385012491     1.007825032070
           H          5.265812949355    -0.448917429508     0.055375012491     1.007825032070

  Charge       = 0
  Multiplicity = 1
  Basis Set: 6-31G*
  Basis Set:

    Orbital Energies (a.u.)
    -----------------------

    Doubly Occupied:

       1A    -20.603353     2A    -20.545113     3A    -11.371943
       4A    -11.280632     5A    -11.234576     6A    -11.219053
       7A    -11.217631     8A    -11.215990     9A    -11.215807
      10A    -11.214466    11A    -11.209013    12A     -1.469018
      13A     -1.362454    14A     -1.098098    15A     -1.066745
      16A     -1.019425    17A     -0.977208    18A     -0.928553
      19A     -0.861729    20A     -0.799158    21A     -0.790381
      22A     -0.763714    23A     -0.700875    24A     -0.682231
      25A     -0.672150    26A     -0.650316    27A     -0.629177
      28A     -0.605282    29A     -0.594925    30A     -0.580681
      31A     -0.566919    32A     -0.548821    33A     -0.532865
      34A     -0.530450    35A     -0.516670    36A     -0.510583
      37A     -0.495683    38A     -0.477998    39A     -0.469865
      40A     -0.462187    41A     -0.458867    42A     -0.455840
      43A     -0.441499    44A     -0.435161

  @DF-RHF Final Energy:  -501.04377191346350

   => Energetics <=

    Nuclear Repulsion Energy =            611.1205960157670916
    One-Electron Energy =               -1893.3624803888833412
    Two-Electron Energy =                 781.1981124596516111
    DFT Exchange-Correlation Energy =       0.0000000000000000
    Empirical Dispersion Energy =           0.0000000000000000
    PCM Polarization Energy =               0.0000000000000000
    EFP Energy =                            0.0000000000000000
    Total Energy =                       -501.0437719134645249

  Mulliken Charges: (a.u.)
   Center  Symbol    Alpha    Beta     Spin     Total
       1     O     4.28595  4.28595  0.00000 -0.57191
       2     C     2.60494  2.60494  0.00000  0.79011
       3     C     3.21000  3.21000  0.00000 -0.42000
       4     O     4.30745  4.30745  0.00000 -0.61489
       5     C     3.15403  3.15403  0.00000 -0.30807
       6     H     0.39876  0.39876  0.00000  0.20248
       7     H     0.40084  0.40084  0.00000  0.19833
       8     C     3.15647  3.15647  0.00000 -0.31294
       9     H     0.41017  0.41017  0.00000  0.17967
      10     H     0.41155  0.41155  0.00000  0.17690
      11     C     3.15513  3.15513  0.00000 -0.31025
      12     H     0.41817  0.41817  0.00000  0.16366
      13     H     0.42417  0.42417  0.00000  0.15166
      14     C     3.15019  3.15019  0.00000 -0.30039
      15     H     0.42222  0.42222  0.00000  0.15557
      16     H     0.42395  0.42395  0.00000  0.15210
      17     C     3.15149  3.15149  0.00000 -0.30298
      18     H     0.42330  0.42330  0.00000  0.15341
      19     H     0.42397  0.42397  0.00000  0.15205
      20     C     3.23935  3.23935  0.00000 -0.47871
      21     H     0.42270  0.42270  0.00000  0.15459
      22     H     0.42344  0.42344  0.00000  0.15312
      23     H     0.41922  0.41922  0.00000  0.16157
      24     H     0.42154  0.42154  0.00000  0.15692
      25     H     0.42185  0.42185  0.00000  0.15630
      26     C     3.09239  3.09239  0.00000 -0.18479
      27     H     0.40910  0.40910  0.00000  0.18180
      28     H     0.40854  0.40854  0.00000  0.18293
      29     H     0.40912  0.40912  0.00000  0.18176

   Total alpha = 44.00000, Total beta = 44.00000, Total charge =  0.00000
