                              Psi4 1.0.54 Driver

  ==> Input File <==

--------------------------------------------------------------------------
set {
	reference rhf
	basis cc-pvtz
}

set_num_threads( 4 )
memory 2 gb

molecule MOL {
0 1

H	 -1.612513	 -2.230803	 -2.477933
C	 -2.317432	 -1.593301	 -1.926965
C	 -2.173079	 -1.635667	 -0.429881
O	 -3.116665	 -0.950238	 -2.514335
C	 -0.735737	 -1.382461	 0.034455
H	 -2.863603	 -0.923553	 0.003021
H	 -2.479565	 -2.631308	 -0.116719
C	 -0.247837	 0.040196	 -0.230469
H	 -0.676851	 -1.591643	 1.097053
H	 -0.070574	 -2.093018	 -0.450170
C	 1.181757	 0.280428	 0.247371
H	 -0.916316	 0.741807	 0.261450
H	 -0.312049	 0.259466	 -1.293119
C	 2.151032	 -0.811012	 -0.202643
H	 1.515939	 1.247397	 -0.115449
H	 1.191514	 0.341223	 1.333422
C	 3.580021	 -0.656538	 0.320835
H	 2.170545	 -0.847575	 -1.289412
H	 1.766632	 -1.772905	 0.124928
C	 4.327657	 0.562694	 -0.213579
H	 4.138806	 -1.549270	 0.057813
H	 3.561991	 -0.620783	 1.406976
H	 4.355973	 0.557257	 -1.298551
H	 3.867136	 1.491650	 0.100501
H	 5.351524	 0.571613	 0.142204

	symmetry c1
}
set optking {
	frozen_dihedral = ("
		12 8 11 14
	")
}

ee,wfn = optimize('scf', return_wfn=True)
oeprop( wfn, 'DIPOLE', 'QUADRUPOLE', 'MULLIKEN_CHARGES')
f=open( 'psi4out.xyz', 'w' )
f.write( "25  " )
f.write( str(ee) + "\n" )
f.write( MOL.save_string_xyz() )
f.close()
--------------------------------------------------------------------------

    Molecular point group: c1
  Charge       = 0
  Multiplicity = 1
  Basis Set: CC-PVTZ
  Basis Set:
  @DF-RHF Final Energy:  -387.25509090283953
    Total Energy =                       -387.2550909028385604
    Molecular point group: c1
  Basis Set: CC-PVTZ
  Basis Set:
  Basis Set: CC-PVTZ
  Basis Set:
  @DF-RHF Final Energy:  -386.38811310893595
    Total Energy =                       -386.3881131089360679
  Basis Set: CC-PVTZ
  Basis Set:
  Basis Set: CC-PVTZ
  Basis Set:
  @DF-RHF Final Energy:  -386.62203499100320
    Total Energy =                       -386.6220349910035452
  Basis Set: CC-PVTZ
  Basis Set:
  Basis Set: CC-PVTZ
  Basis Set:
  @DF-RHF Final Energy:  -386.97227775986710
    Total Energy =                       -386.9722777598670973
  Basis Set: CC-PVTZ
  Basis Set:
  @DF-RHF Final Energy:  -387.17902811858391
    Total Energy =                       -387.1790281185838012
  @DF-RHF Final Energy:  -387.24677630935446
    Total Energy =                       -387.2467763093543454
  @DF-RHF Final Energy:  -387.25489718689698
    Total Energy =                       -387.2548971868969829
  @DF-RHF Final Energy:  -387.25678589942663
    Total Energy =                       -387.2567858994268590
  @DF-RHF Final Energy:  -387.25038269619290
    Total Energy =                       -387.2503826961930145
  Basis Set: CC-PVTZ
  Basis Set:
  @DF-RHF Final Energy:  -387.25697802218230
    Total Energy =                       -387.2569780221824658
  Basis Set: CC-PVTZ
  Basis Set:
  Basis Set: CC-PVTZ
  Basis Set:
  @DF-RHF Final Energy:  -387.25724047768256
    Total Energy =                       -387.2572404776825579
  Basis Set: CC-PVTZ
  Basis Set:
  Basis Set: CC-PVTZ
  Basis Set:
  @DF-RHF Final Energy:  -387.25730383974764
    Total Energy =                       -387.2573038397479195
  Basis Set: CC-PVTZ
  Basis Set:
  Charge       = 0
  Multiplicity = 1
  Basis Set: CC-PVTZ
  Basis Set:

    Orbital Energies (a.u.)
    -----------------------

    Doubly Occupied:

       1A    -20.551120     2A    -11.320820     3A    -11.233558
       4A    -11.232063     5A    -11.222594     6A    -11.218299
       7A    -11.217708     8A    -11.216760     9A    -11.209275
      10A     -1.406243    11A     -1.105494    12A     -1.070117
      13A     -1.013692    14A     -0.941519    15A     -0.884248
      16A     -0.822456    17A     -0.793806    18A     -0.771453
      19A     -0.668638    20A     -0.654144    21A     -0.637119
      22A     -0.629531    23A     -0.612033    24A     -0.590952
      25A     -0.573856    26A     -0.560959    27A     -0.535371
      28A     -0.525262    29A     -0.519728    30A     -0.498957
      31A     -0.485894    32A     -0.480314    33A     -0.462605
      34A     -0.452215    35A     -0.448506    36A     -0.411351

  @DF-RHF Final Energy:  -387.25730373095689

   => Energetics <=

    Nuclear Repulsion Energy =            444.2322105043180045
    One-Electron Energy =               -1405.0217076170288237
    Two-Electron Energy =                 573.5321933817534727
    DFT Exchange-Correlation Energy =       0.0000000000000000
    Empirical Dispersion Energy =           0.0000000000000000
    PCM Polarization Energy =               0.0000000000000000
    EFP Energy =                            0.0000000000000000
    Total Energy =                       -387.2573037309573465
    Molecular point group: c1
  Basis Set: CC-PVTZ
  Basis Set:

  -Total Gradient:
     Atom            X                  Y                   Z
    ------   -----------------  -----------------  -----------------
       1       -0.000022031357    -0.000021362910     0.000057410537
       2       -0.000162846178     0.000140722887    -0.000432319799
       3        0.000231096781     0.000033700142    -0.000056376456
       4        0.000040850927    -0.000218329568     0.000182123757
       5       -0.000084344502    -0.000002580601    -0.000112290233
       6        0.000067196423     0.000195770655     0.000086037022
       7       -0.000155025022    -0.000134430432     0.000227647896
       8        0.000398567211     0.002350745134    -0.002223069763
       9       -0.000033729969    -0.000125367042     0.000080670800
      10       -0.000054691539     0.000074348953    -0.000061816483
      11        0.000085836854     0.001662275861    -0.002740463684
      12       -0.000397441555    -0.002447747927     0.002711129428
      13        0.000092040462     0.000044089386    -0.000056446817
      14       -0.000096397997    -0.001578065853     0.002400430206
      15        0.000026073631     0.000009225550    -0.000000766488
      16        0.000010160137    -0.000015385198    -0.000005400814
      17        0.000024813290     0.000023156435    -0.000018711765
      18       -0.000004458568     0.000026364166     0.000000500546
      19        0.000015576879    -0.000009764572    -0.000007619828
      20        0.000015096103    -0.000015079247    -0.000026860543
      21       -0.000005236699    -0.000010841062    -0.000007990748
      22       -0.000002925909    -0.000017401360     0.000034296692
      23        0.000005239442     0.000019131536    -0.000029567289
      24       -0.000007046704     0.000008874321     0.000004790488
      25        0.000013627853     0.000007950748    -0.000005336664

  **** Optimization is complete! (in 13 steps) ****
    Final optimized geometry and variables:
    Molecular point group: c1

    Geometry (in Angstrom), charge = 0, multiplicity = 1:

    H           -3.178751801416    -0.099832398734    -0.624227692787
    C           -3.106327617500     0.620182889773     0.202268414454
    C           -2.306011290233     0.148207002846     1.386541444894
    O           -3.647280458132     1.668119330725     0.123649705395
    C           -0.931266943339    -0.402041990823     0.994810148637
    H           -2.225164837248     0.963499953973     2.094081824095
    H           -2.887732360535    -0.643209681201     1.855319589365
    C            0.018376233464     0.678569591226     0.473179613263
    H           -0.492891759790    -0.879409184781     1.865460487472
    H           -1.063012642703    -1.183732002534     0.254042772097
    C            1.461086328576     0.216898846546     0.239949846271
    H            0.035077384244     1.474886158938     1.211248024395
    H           -0.380959046579     1.105962597975    -0.442558350642
    C            1.617976716447    -1.057999478306    -0.589204391264
    H            2.000809989094     1.032654912093    -0.226659001640
    H            1.935432619138     0.054635769727     1.205548412646
    C            3.070775164518    -1.442714018336    -0.880511957723
    H            1.083653148201    -0.950024603946    -1.531535278857
    H            1.149296303808    -1.884102676032    -0.066433224255
    C            3.805186079044    -0.501531990551    -1.832423724391
    H            3.080912188096    -2.441251000223    -1.306390824745
    H            3.618026068240    -1.508927480230     0.056331609019
    H            3.280592079056    -0.418730469720    -2.778888701016
    H            3.907121135566     0.495953239723    -1.422814969677
    H            4.803235865291    -0.869645741146    -2.040750209987

  Mulliken Charges: (a.u.)
   Center  Symbol    Alpha    Beta     Spin     Total
       1     H     0.46441  0.46441  0.00000  0.07118
       2     C     2.90470  2.90470  0.00000  0.19059
       3     C     3.08812  3.08812  0.00000 -0.17624
       4     O     4.16628  4.16628  0.00000 -0.33256
       5     C     3.12070  3.12070  0.00000 -0.24140
       6     H     0.44311  0.44311  0.00000  0.11378
       7     H     0.44018  0.44018  0.00000  0.11964
       8     C     3.09699  3.09699  0.00000 -0.19398
       9     H     0.44247  0.44247  0.00000  0.11506
      10     H     0.44685  0.44685  0.00000  0.10630
      11     C     3.09996  3.09996  0.00000 -0.19991
      12     H     0.44467  0.44467  0.00000  0.11066
      13     H     0.44633  0.44633  0.00000  0.10734
      14     C     3.10110  3.10110  0.00000 -0.20221
      15     H     0.44371  0.44371  0.00000  0.11257
      16     H     0.45255  0.45255  0.00000  0.09491
      17     C     3.08988  3.08988  0.00000 -0.17976
      18     H     0.45351  0.45351  0.00000  0.09299
      19     H     0.44599  0.44599  0.00000  0.10802
      20     C     3.15121  3.15121  0.00000 -0.30242
      21     H     0.44798  0.44798  0.00000  0.10403
      22     H     0.45457  0.45457  0.00000  0.09086
      23     H     0.45453  0.45453  0.00000  0.09095
      24     H     0.45392  0.45392  0.00000  0.09216
      25     H     0.44628  0.44628  0.00000  0.10745

   Total alpha = 36.00000, Total beta = 36.00000, Total charge = -0.00000

*** Psi4 exiting successfully. Buy a developer a beer!
