  ==> Input File <==

--------------------------------------------------------------------------
set {
	reference rhf
	basis 6-31G*
}

set_num_threads( 1 )
memory 2 gb

molecule MOL {
0 1

H	 -3.892951	 0.981613	 -0.358725
C	 -3.196921	 0.361773	 0.172313
C	 -2.076860	 -0.007332	 -0.404944
H	 -3.439953	 0.057760	 1.173024
O	 -1.088927	 -0.641703	 0.279469
H	 -1.882516	 0.151134	 -1.451039
C	 0.127456	 -0.839422	 -0.355488
C	 1.042501	 0.353618	 -0.195351
H	 0.011986	 -1.036475	 -1.415455
H	 0.606832	 -1.688977	 0.108129
F	 2.201824	 0.102361	 -0.785815
F	 0.534689	 1.440021	 -0.753639
F	 1.282413	 0.627020	 1.070383

	symmetry c1
}
set optking {
	frozen_dihedral = ("
		11 8 7 9,
		3 5 7 9,
		6 3 5 7
	")
}

ee = energy('scf')
oeprop('DIPOLE', 'QUADRUPOLE', 'MULLIKEN_CHARGES')
f=open( 'psi4out.xyz', 'w' )
f.write( "13  " )
f.write( str(ee) + "\n" )
f.write( MOL.save_string_xyz() )
f.close()
--------------------------------------------------------------------------

    Molecular point group: c1

    Geometry (in Angstrom), charge = 0, multiplicity = 1:

       Center              X                  Y                   Z               Mass
    ------------   -----------------  -----------------  -----------------  -----------------
           H         -3.901092948013     0.760808088585    -0.233337951736     1.007825032070
           C         -3.205062948013     0.140968088585     0.297700048264    12.000000000000
           C         -2.085001948013    -0.228136911415    -0.279556951736    12.000000000000
           H         -3.448094948013    -0.163044911415     1.298411048264     1.007825032070
           O         -1.097068948013    -0.862507911415     0.404856048264    15.994914619560
           H         -1.890657948013    -0.069670911415    -1.325651951736     1.007825032070
           C          0.119314051987    -1.060226911415    -0.230100951736    12.000000000000
           C          1.034359051987     0.132813088585    -0.069963951736    12.000000000000
           H          0.003844051987    -1.257279911415    -1.290067951736     1.007825032070
           H          0.598690051987    -1.909781911415     0.233516048264     1.007825032070
           F          2.193682051987    -0.118443911415    -0.660427951736    18.998403224000
           F          0.526547051987     1.219216088585    -0.628251951736    18.998403224000
           F          1.274271051987     0.406215088585     1.195770048264    18.998403224000

  Charge       = 0
  Multiplicity = 1
  Basis Set: 6-31G*
  Basis Set:

    Orbital Energies (a.u.)
    -----------------------

    Doubly Occupied:

       1A    -26.344654     2A    -26.343394     3A    -26.340414
       4A    -20.608142     5A    -11.503150     6A    -11.319130
       7A    -11.299735     8A    -11.215427     9A     -1.741608
      10A     -1.639763    11A     -1.638076    12A     -1.438206
      13A     -1.084224    14A     -1.016407    15A     -0.925251
      16A     -0.836463    17A     -0.830836    18A     -0.821286
      19A     -0.791688    20A     -0.721797    21A     -0.711179
      22A     -0.696440    23A     -0.675770    24A     -0.660123
      25A     -0.654512    26A     -0.642957    27A     -0.633865
      28A     -0.585002    29A     -0.563518    30A     -0.524858
      31A     -0.513538    32A     -0.349595

  @DF-RHF Final Energy:  -527.53348853080354

   => Energetics <=

    Nuclear Repulsion Energy =            413.5154021401605178
    One-Electron Energy =               -1550.7556344469853684
    Two-Electron Energy =                 609.7067437760208577
    DFT Exchange-Correlation Energy =       0.0000000000000000
    Empirical Dispersion Energy =           0.0000000000000000
    PCM Polarization Energy =               0.0000000000000000
    EFP Energy =                            0.0000000000000000
    Total Energy =                       -527.5334885308041066

  Mulliken Charges: (a.u.)
   Center  Symbol    Alpha    Beta     Spin     Total
       1     H     0.40670  0.40670  0.00000  0.18659
       2     C     3.23639  3.23639  0.00000 -0.47279
       3     C     2.89498  2.89498  0.00000  0.21005
       4     H     0.40213  0.40213  0.00000  0.19574
       5     O     4.30167  4.30167  0.00000 -0.60335
       6     H     0.40663  0.40663  0.00000  0.18675
       7     C     3.06399  3.06399  0.00000 -0.12798
       8     C     2.45537  2.45537  0.00000  1.08926
       9     H     0.40556  0.40556  0.00000  0.18888
      10     H     0.38980  0.38980  0.00000  0.22039
      11     F     4.68281  4.68281  0.00000 -0.36561
      12     F     4.67954  4.67954  0.00000 -0.35909
      13     F     4.67443  4.67443  0.00000 -0.34885

   Total alpha = 32.00000, Total beta = 32.00000, Total charge = -0.00000
