  ==> Input File <==

--------------------------------------------------------------------------
set {
	reference rhf
	basis cc-pvtz
}

set_num_threads( 4 )
memory 2 gb

molecule MOL {
0 1

H	 -1.552017	 2.379123	 0.175949
C	 -1.472775	 1.808741	 1.091704
C	 -0.168058	 1.028731	 1.137654
H	 -2.324583	 1.143389	 1.135798
H	 -1.530202	 2.494610	 1.928477
C	 0.000000	 0.039916	 0.000014
H	 -0.080754	 0.476492	 2.069485
H	 0.685127	 1.701474	 1.118013
C	 1.286532	 -0.763243	 0.000268
O	 -0.826938	 -0.097376	 -0.841237
C	 2.547023	 0.087626	 -0.000114
H	 1.264245	 -1.421103	 -0.864380
H	 1.264290	 -1.420353	 0.865489
H	 2.584452	 0.725630	 -0.872909
H	 3.427035	 -0.544422	 0.000125
H	 2.584484	 0.726356	 0.872143

	symmetry c1
}
set optking {
	frozen_dihedral = ("
		3 6 9 12
	")
}

ee = optimize('scf')
oeprop('DIPOLE', 'QUADRUPOLE', 'MULLIKEN_CHARGES')
f=open( 'psi4out.xyz', 'w' )
f.write( "16  " )
f.write( str(ee) + "\n" )
f.write( MOL.save_string_xyz() )
f.close()
--------------------------------------------------------------------------

    Molecular point group: c1
  Charge       = 0
  Multiplicity = 1
  Basis Set: CC-PVTZ
  Basis Set:
  @DF-RHF Final Energy:  -270.12813306674184
    Total Energy =                       -270.1281330667422935
    Molecular point group: c1
  Basis Set: CC-PVTZ
  Basis Set:
  Basis Set: CC-PVTZ
  Basis Set:
  @DF-RHF Final Energy:  -270.12837667483137
    Total Energy =                       -270.1283766748314292
  Basis Set: CC-PVTZ
  Basis Set:
  Basis Set: CC-PVTZ
  Basis Set:
  @DF-RHF Final Energy:  -270.12894557587242
    Total Energy =                       -270.1289455758723079
  Basis Set: CC-PVTZ
  Basis Set:
  Basis Set: CC-PVTZ
  Basis Set:
  @DF-RHF Final Energy:  -270.12905253072250
    Total Energy =                       -270.1290525307229018
  Basis Set: CC-PVTZ
  Basis Set:
  Basis Set: CC-PVTZ
  Basis Set:
  @DF-RHF Final Energy:  -270.12910732504287
    Total Energy =                       -270.1291073250428099
  Basis Set: CC-PVTZ
  Basis Set:
  Basis Set: CC-PVTZ
  Basis Set:
  @DF-RHF Final Energy:  -270.12913204156109
    Total Energy =                       -270.1291320415614337
  Basis Set: CC-PVTZ
  Basis Set:
  Basis Set: CC-PVTZ
  Basis Set:
  @DF-RHF Final Energy:  -270.12913425063101
    Total Energy =                       -270.1291342506311253
  Basis Set: CC-PVTZ
  Basis Set:
  Charge       = 0
  Multiplicity = 1
  Basis Set: CC-PVTZ
  Basis Set:

    Orbital Energies (a.u.)
    -----------------------

    Doubly Occupied:

       1A    -20.538021     2A    -11.317157     3A    -11.231947
       4A    -11.231053     5A    -11.227473     6A    -11.211592
       7A     -1.397774     8A     -1.073821     9A     -1.036262
      10A     -0.910023    11A     -0.863325    12A     -0.725649
      13A     -0.663427    14A     -0.639906    15A     -0.634287
      16A     -0.608659    17A     -0.558845    18A     -0.544526
      19A     -0.535035    20A     -0.511442    21A     -0.506221
      22A     -0.495472    23A     -0.483989    24A     -0.398709

  @DF-RHF Final Energy:  -270.12913453874734

   => Energetics <=

    Nuclear Repulsion Energy =            240.8861544486753132
    One-Electron Energy =                -843.3413462406366534
    Two-Electron Energy =                 332.3260572532143442
    DFT Exchange-Correlation Energy =       0.0000000000000000
    Empirical Dispersion Energy =           0.0000000000000000
    PCM Polarization Energy =               0.0000000000000000
    EFP Energy =                            0.0000000000000000
    Total Energy =                       -270.1291345387470528
    Molecular point group: c1
  Basis Set: CC-PVTZ
  Basis Set:

  -Total Gradient:
     Atom            X                  Y                   Z
    ------   -----------------  -----------------  -----------------
       1       -0.000002019861     0.000000764202    -0.000000774286
       2        0.000005546315    -0.000006894514     0.000000312009
       3        0.000082799337     0.000117817467    -0.000102725758
       4       -0.000004262981     0.000001108252    -0.000001146157
       5        0.000001542785    -0.000000909350    -0.000001473995
       6       -0.000095426249    -0.000122925177     0.000112474206
       7        0.000002601945    -0.000002223754     0.000001255830
       8        0.000003431232    -0.000000732782     0.000001870859
       9       -0.000121254585    -0.000165408168     0.000119108091
      10       -0.000000583828    -0.000002647755     0.000000616962
      11        0.000015190364     0.000018665930    -0.000004333890
      12        0.000112298819     0.000162956958    -0.000120837764
      13        0.000005752528     0.000004058854    -0.000004356246
      14       -0.000000661970     0.000000036427    -0.000001103025
      15       -0.000002669203    -0.000000546128     0.000000217392
      16       -0.000002284648    -0.000003120463     0.000000895771

  **** Optimization is complete! (in 8 steps) ****
    Final optimized geometry and variables:
    Molecular point group: c1

    Geometry (in Angstrom), charge = 0, multiplicity = 1:

    H           -1.958347928799     1.907217687904    -0.018672685717
    C           -1.767991484689     1.376363192137     0.903695320360
    C           -0.394491267495     0.722743495069     0.882325297289
    H           -2.549196262284     0.636601759170     1.021431052483
    H           -1.836666694442     2.078935372128     1.725664982345
    C           -0.208118596825    -0.271756314625    -0.248012778377
    H           -0.189618639276     0.214222888205     1.820266968354
    H            0.381040493341     1.476761134665     0.783599462453
    C            1.032689554613    -1.145035324695    -0.218305796449
    O           -1.004433235609    -0.374821675838    -1.123964553191
    C            2.350932805165    -0.368601962060    -0.186804347187
    H            0.990681758041    -1.779540456161    -1.092217099647
    H            0.968906691997    -1.783939178778     0.658352351513
    H            2.423608841457     0.311276635530    -1.028011395653
    H            3.185732812378    -1.055461079050    -0.244591966303
    H            2.463075647734     0.207289264564     0.723092652205

  Mulliken Charges: (a.u.)
   Center  Symbol    Alpha    Beta     Spin     Total
       1     H     0.44549  0.44549  0.00000  0.10903
       2     C     3.14138  3.14138  0.00000 -0.28277
       3     C     3.10869  3.10869  0.00000 -0.21739
       4     H     0.44958  0.44958  0.00000  0.10084
       5     H     0.45089  0.45089  0.00000  0.09823
       6     C     2.86309  2.86309  0.00000  0.27382
       7     H     0.44467  0.44467  0.00000  0.11066
       8     H     0.44402  0.44402  0.00000  0.11195
       9     C     3.09518  3.09518  0.00000 -0.19035
      10     O     4.17240  4.17240  0.00000 -0.34481
      11     C     3.15708  3.15708  0.00000 -0.31416
      12     H     0.43665  0.43665  0.00000  0.12670
      13     H     0.44963  0.44963  0.00000  0.10074
      14     H     0.44710  0.44710  0.00000  0.10580
      15     H     0.44206  0.44206  0.00000  0.11589
      16     H     0.45209  0.45209  0.00000  0.09582

   Total alpha = 24.00000, Total beta = 24.00000, Total charge = -0.00000
