                              Psi4 1.0.54 Driver

  ==> Input File <==

--------------------------------------------------------------------------
set {
	reference rhf
	basis cc-pvtz
}

set_num_threads( 4 )
memory 2 gb

molecule MOL {
0 1

H	 -3.436473	 1.252944	 -1.023892
O	 -3.458596	 0.315260	 -0.960865
C	 -3.176635	 -0.080824	 0.355601
C	 -1.763371	 0.265266	 0.799691
H	 -3.321825	 -1.153438	 0.379502
H	 -3.895468	 0.357385	 1.043382
C	 -0.673390	 -0.426948	 -0.013392
H	 -1.631049	 1.344913	 0.747560
H	 -1.664587	 -0.001624	 1.849167
C	 0.737842	 -0.043159	 0.423759
H	 -0.806103	 -0.190518	 -1.063345
H	 -0.797221	 -1.503753	 0.074146
C	 1.209226	 1.278076	 -0.180545
H	 0.767603	 0.013295	 1.507649
H	 1.430959	 -0.832504	 0.140245
C	 2.648217	 1.666326	 0.163572
H	 0.539112	 2.075070	 0.133459
H	 1.118949	 1.216531	 -1.261601
C	 2.889383	 1.980577	 1.638099
H	 2.918510	 2.537330	 -0.425552
H	 3.318842	 0.870188	 -0.149231
H	 2.227925	 2.769902	 1.980905
H	 3.908821	 2.312570	 1.798623
H	 2.726520	 1.115438	 2.269458

	symmetry c1
}
set optking {
	frozen_dihedral = ("
		13 10 7 11
	")
}

ee,wfn = optimize('scf', return_wfn=True)
oeprop( wfn, 'DIPOLE', 'QUADRUPOLE', 'MULLIKEN_CHARGES')
f=open( 'psi4out.xyz', 'w' )
f.write( "24  " )
f.write( str(ee) + "\n" )
f.write( MOL.save_string_xyz() )
f.close()
--------------------------------------------------------------------------

    Molecular point group: c1
  Charge       = 0
  Multiplicity = 1
  Basis Set: CC-PVTZ
  Basis Set:
  @DF-RHF Final Energy:  -349.37775832907607
    Total Energy =                       -349.3777583290755615
    Molecular point group: c1
  Basis Set: CC-PVTZ
  Basis Set:
  Basis Set: CC-PVTZ
  Basis Set:
  @DF-RHF Final Energy:  -349.37797425755832
    Total Energy =                       -349.3779742575576392
  Basis Set: CC-PVTZ
  Basis Set:
  Basis Set: CC-PVTZ
  Basis Set:
  @DF-RHF Final Energy:  -349.37799795356716
    Total Energy =                       -349.3779979535670464
  Basis Set: CC-PVTZ
  Basis Set:
  Basis Set: CC-PVTZ
  Basis Set:
  @DF-RHF Final Energy:  -349.37799273421166
    Total Energy =                       -349.3779927342120004
  Basis Set: CC-PVTZ
  Basis Set:
  Charge       = 0
  Multiplicity = 1
  Basis Set: CC-PVTZ
  Basis Set:

    Orbital Energies (a.u.)
    -----------------------

    Doubly Occupied:

       1A    -20.546230     2A    -11.265328     3A    -11.214708
       4A    -11.212928     5A    -11.210898     6A    -11.210165
       7A    -11.209169     8A    -11.206136     9A     -1.364034
      10A     -1.089927    11A     -1.048555    12A     -0.985922
      13A     -0.916836    14A     -0.853087    15A     -0.806299
      16A     -0.772688    17A     -0.681999    18A     -0.645802
      19A     -0.632528    20A     -0.616284    21A     -0.602737
      22A     -0.584880    23A     -0.567615    24A     -0.533849
      25A     -0.524578    26A     -0.511236    27A     -0.494347
      28A     -0.483302    29A     -0.468262    30A     -0.460142
      31A     -0.452486    32A     -0.444278    33A     -0.423673

  @DF-RHF Final Energy:  -349.37800138806108

   => Energetics <=

    Nuclear Repulsion Energy =            389.7496361987610953
    One-Electron Energy =               -1246.1734547833329998
    Two-Electron Energy =                 507.0458171965108249
    DFT Exchange-Correlation Energy =       0.0000000000000000
    Empirical Dispersion Energy =           0.0000000000000000
    PCM Polarization Energy =               0.0000000000000000
    EFP Energy =                            0.0000000000000000
    Total Energy =                       -349.3780013880610795
    Molecular point group: c1
  Basis Set: CC-PVTZ
  Basis Set:

  -Total Gradient:
     Atom            X                  Y                   Z
    ------   -----------------  -----------------  -----------------
       1        0.000003585126    -0.000002749356     0.000005173030
       2       -0.000000255116    -0.000023395397    -0.000001490929
       3       -0.000001052347     0.000034791528     0.000003687290
       4        0.000008852445    -0.000022929004    -0.000017546884
       5       -0.000002028963     0.000004415433    -0.000012995954
       6       -0.000003945747    -0.000002185540     0.000006284844
       7        0.001082922156    -0.002733871674    -0.001161299669
       8       -0.000004216011    -0.000005711859     0.000002414955
       9        0.000000399446    -0.000000637580     0.000007102803
      10       -0.000967167478     0.001544779686     0.001871411968
      11       -0.000691402419     0.001971148080     0.000541336983
      12        0.000002462342     0.000004522871     0.000010284957
      13        0.000578591894    -0.000771617816    -0.001258037519
      14       -0.000007703878    -0.000002291971    -0.000006117219
      15       -0.000003459189     0.000005779127    -0.000005864592
      16       -0.000013323991     0.000010170629     0.000022614106
      17        0.000001426157    -0.000001260948    -0.000001769727
      18       -0.000006366039    -0.000007329050     0.000004561408
      19        0.000018913897    -0.000002978560    -0.000011019894
      20        0.000005512875     0.000002356188     0.000001295215
      21        0.000002736697     0.000002644760     0.000007946519
      22        0.000000862485    -0.000002329572    -0.000004027806
      23       -0.000003130197    -0.000000864102    -0.000001541126
      24       -0.000002214146    -0.000000455872    -0.000002402757

  **** Optimization is complete! (in 5 steps) ****
    Final optimized geometry and variables:
    Molecular point group: c1

    Geometry (in Angstrom), charge = 0, multiplicity = 1:

    H           -3.196767605301     0.625183474182    -1.264046777016
    O           -3.210684792604    -0.313670375045    -1.218966050130
    C           -2.926928886478    -0.732304980902     0.090102763879
    C           -1.517488401066    -0.381553599468     0.543286502471
    H           -3.062021345468    -1.806566023705     0.092473447559
    H           -3.651163338752    -0.314594715821     0.784977744919
    C           -0.421984686559    -1.060915192142    -0.278012319662
    H           -1.398453844110     0.699284546882     0.510347559939
    H           -1.418829545409    -0.665995297260     1.588126068848
    C            0.998953612183    -0.665617744486     0.139047261673
    H           -0.574645160565    -0.821166147245    -1.324162315755
    H           -0.539636570980    -2.136092780451    -0.182212844483
    C            1.472322196179     0.661450158387    -0.455679832692
    H            1.061009778105    -0.640909019797     1.222418479817
    H            1.687037141634    -1.441763665875    -0.184928483647
    C            2.910339316271     1.043484139478    -0.099519406511
    H            0.808854978561     1.466317581613    -0.149191789564
    H            1.390631746541     0.596910608878    -1.536888392499
    C            3.136722369262     1.376804414229     1.373181459421
    H            3.194682249208     1.904157879701    -0.697237385571
    H            3.578059931585     0.237837458863    -0.393363328946
    H            2.479329758011     2.177809603194     1.696331336981
    H            4.157374961138     1.701091306804     1.541368228941
    H            2.957463862912     0.522991961670     2.015265739464

  Mulliken Charges: (a.u.)
   Center  Symbol    Alpha    Beta     Spin     Total
       1     H     0.39516  0.39516  0.00000  0.20967
       2     O     4.20348  4.20348  0.00000 -0.40696
       3     C     2.97625  2.97625  0.00000  0.04751
       4     C     3.10049  3.10049  0.00000 -0.20098
       5     H     0.45877  0.45877  0.00000  0.08247
       6     H     0.46024  0.46024  0.00000  0.07952
       7     C     3.09498  3.09498  0.00000 -0.18997
       8     H     0.45975  0.45975  0.00000  0.08050
       9     H     0.45359  0.45359  0.00000  0.09281
      10     C     3.10137  3.10137  0.00000 -0.20274
      11     H     0.44754  0.44754  0.00000  0.10492
      12     H     0.44835  0.44835  0.00000  0.10331
      13     C     3.09377  3.09377  0.00000 -0.18754
      14     H     0.45378  0.45378  0.00000  0.09245
      15     H     0.44758  0.44758  0.00000  0.10484
      16     C     3.08965  3.08965  0.00000 -0.17929
      17     H     0.45596  0.45596  0.00000  0.08808
      18     H     0.44814  0.44814  0.00000  0.10372
      19     C     3.15239  3.15239  0.00000 -0.30478
      20     H     0.44867  0.44867  0.00000  0.10266
      21     H     0.45447  0.45447  0.00000  0.09105
      22     H     0.45551  0.45551  0.00000  0.08898
      23     H     0.44638  0.44638  0.00000  0.10725
      24     H     0.45374  0.45374  0.00000  0.09252

   Total alpha = 33.00000, Total beta = 33.00000, Total charge = -0.00000

*** Psi4 exiting successfully. Buy a developer a beer!
