                              Psi4 1.0.54 Driver

  ==> Input File <==

--------------------------------------------------------------------------
set {
	reference rhf
	basis cc-pvtz
}

set_num_threads( 4 )
memory 2 gb

molecule MOL {
0 1

H	 -4.298193	 -0.172070	 -0.681304
C	 -3.454368	 -0.277443	 -0.030793
C	 -2.287251	 -0.595303	 -0.534923
H	 -3.587983	 -0.117313	 1.021017
O	 -1.189946	 -0.765863	 0.237511
H	 -2.140285	 -0.749759	 -1.588333
C	 0.026572	 -0.995256	 -0.379403
C	 1.057223	 0.049888	 -0.004615
H	 -0.054361	 -1.010670	 -1.459674
H	 0.397526	 -1.952058	 -0.044198
F	 2.203233	 -0.234060	 -0.590375
F	 0.698147	 1.254887	 -0.392621
F	 1.266440	 0.094219	 1.288722

	symmetry c1
}
set optking {
	frozen_dihedral = ("
		3 5 7 9
	")
}

ee,wfn = optimize('scf', return_wfn=True)
oeprop( wfn, 'DIPOLE', 'QUADRUPOLE', 'MULLIKEN_CHARGES')
f=open( 'psi4out.xyz', 'w' )
f.write( "13  " )
f.write( str(ee) + "\n" )
f.write( MOL.save_string_xyz() )
f.close()
--------------------------------------------------------------------------

    Molecular point group: c1
  Charge       = 0
  Multiplicity = 1
  Basis Set: CC-PVTZ
  Basis Set:
  @DF-RHF Final Energy:  -527.74076282103488
    Total Energy =                       -527.7407628210346502
    Molecular point group: c1
  Basis Set: CC-PVTZ
  Basis Set:
  Basis Set: CC-PVTZ
  Basis Set:
  @DF-RHF Final Energy:  -527.74111135144881
    Total Energy =                       -527.7411113514483532
  Basis Set: CC-PVTZ
  Basis Set:
  Basis Set: CC-PVTZ
  Basis Set:
  @DF-RHF Final Energy:  -527.74123055276470
    Total Energy =                       -527.7412305527645913
  Basis Set: CC-PVTZ
  Basis Set:
  Basis Set: CC-PVTZ
  Basis Set:
  @DF-RHF Final Energy:  -527.74126516852834
    Total Energy =                       -527.7412651685281162
  Basis Set: CC-PVTZ
  Basis Set:
  Basis Set: CC-PVTZ
  Basis Set:
  @DF-RHF Final Energy:  -527.74125634649090
    Total Energy =                       -527.7412563464911273
  Basis Set: CC-PVTZ
  Basis Set:
  Basis Set: CC-PVTZ
  Basis Set:
  @DF-RHF Final Energy:  -527.74132589073122
    Total Energy =                       -527.7413258907312184
  Basis Set: CC-PVTZ
  Basis Set:
  Basis Set: CC-PVTZ
  Basis Set:
  @DF-RHF Final Energy:  -527.74133603390078
    Total Energy =                       -527.7413360339007795
  Basis Set: CC-PVTZ
  Basis Set:
  Charge       = 0
  Multiplicity = 1
  Basis Set: CC-PVTZ
  Basis Set:

    Orbital Energies (a.u.)
    -----------------------

    Doubly Occupied:

       1A    -26.340650     2A    -26.338383     3A    -26.336861
       4A    -20.603684     5A    -11.497165     6A    -11.320353
       7A    -11.300754     8A    -11.215275     9A     -1.749130
      10A     -1.645495    11A     -1.644015    12A     -1.445091
      13A     -1.090399    14A     -1.019972    15A     -0.931113
      16A     -0.844146    17A     -0.838752    18A     -0.818568
      19A     -0.804484    20A     -0.729790    21A     -0.719091
      22A     -0.705771    23A     -0.682920    24A     -0.666031
      25A     -0.660533    26A     -0.649414    27A     -0.637815
      28A     -0.589291    29A     -0.565728    30A     -0.531536
      31A     -0.517197    32A     -0.357777

  @DF-RHF Final Energy:  -527.74133801916923

   => Energetics <=

    Nuclear Repulsion Energy =            409.9221770579396207
    One-Electron Energy =               -1543.7326635297072244
    Two-Electron Energy =                 606.0691484525980286
    DFT Exchange-Correlation Energy =       0.0000000000000000
    Empirical Dispersion Energy =           0.0000000000000000
    PCM Polarization Energy =               0.0000000000000000
    EFP Energy =                            0.0000000000000000
    Total Energy =                       -527.7413380191694614
    Molecular point group: c1
  Basis Set: CC-PVTZ
  Basis Set:

  -Total Gradient:
     Atom            X                  Y                   Z
    ------   -----------------  -----------------  -----------------
       1        0.000002775054     0.000016727241    -0.000000840636
       2       -0.000019195786     0.000000158242    -0.000006767318
       3       -0.000026833177    -0.000541220855     0.000115872371
       4       -0.000002522780     0.000005596794    -0.000018988148
       5        0.000113475984     0.000868554033    -0.000121061069
       6       -0.000024712756     0.000022406788    -0.000001234155
       7       -0.000167119106    -0.000941792217     0.000076340013
       8       -0.000093371722     0.000076920247    -0.000002893207
       9        0.000116648017     0.000542355225    -0.000039281992
      10        0.000001219953     0.000006125199    -0.000001146190
      11        0.000021095883     0.000002568807    -0.000007079978
      12        0.000048053722    -0.000038712833     0.000000321896
      13        0.000030486721    -0.000019686668     0.000006758416

  **** Optimization is complete! (in 8 steps) ****
    Final optimized geometry and variables:
    Molecular point group: c1

    Geometry (in Angstrom), charge = 0, multiplicity = 1:

    H           -4.265490334320    -0.055164310136    -0.630436855785
    C           -3.441915827897    -0.228845222978     0.031360623755
    C           -2.231861253098    -0.338171304049    -0.460729786111
    H           -3.629213075730    -0.296672715764     1.084927805916
    O           -1.147343929109    -0.527008641998     0.320973132442
    H           -2.034834531415    -0.266167459389    -1.515256960332
    C            0.051096869513    -0.888270991685    -0.270641428410
    C            1.103608541829     0.160099502387     0.015564939863
    H           -0.029038531529    -0.981007500341    -1.345944941370
    H            0.395825434362    -1.828234527790     0.138473131279
    F            2.246279749211    -0.204214449053    -0.532124762076
    F            0.773634305462     1.328989986350    -0.486342662264
    F            1.307718490231     0.318807848756     1.300880464687

  Mulliken Charges: (a.u.)
   Center  Symbol    Alpha    Beta     Spin     Total
       1     H     0.42485  0.42485  0.00000  0.15029
       2     C     3.19791  3.19791  0.00000 -0.39583
       3     C     2.96223  2.96223  0.00000  0.07554
       4     H     0.42431  0.42431  0.00000  0.15137
       5     O     4.14359  4.14359  0.00000 -0.28717
       6     H     0.43529  0.43529  0.00000  0.12942
       7     C     3.00843  3.00843  0.00000 -0.01686
       8     C     2.67532  2.67532  0.00000  0.64936
       9     H     0.45753  0.45753  0.00000  0.08493
      10     H     0.44153  0.44153  0.00000  0.11693
      11     F     4.61287  4.61287  0.00000 -0.22574
      12     F     4.60957  4.60957  0.00000 -0.21914
      13     F     4.60656  4.60656  0.00000 -0.21312

   Total alpha = 32.00000, Total beta = 32.00000, Total charge = -0.00000

*** Psi4 exiting successfully. Buy a developer a beer!
