  ==> Input File <==

--------------------------------------------------------------------------
set {
	reference rhf
	basis cc-pvtz
}

set_num_threads( 4 )
memory 2 gb

molecule MOL {
0 1

H	 3.263000	 -0.421000	 0.000000
C	 2.202000	 -0.243000	 0.000000
C	 1.322000	 -1.319000	 -0.000000
C	 1.722000	 1.056000	 0.000000
H	 1.702000	 -2.324000	 -0.000000
C	 -0.041000	 -1.094000	 0.000000
H	 2.406000	 1.885000	 0.000000
C	 0.355000	 1.280000	 -0.000000
H	 -0.737000	 -1.911000	 0.000000
C	 -0.529000	 0.209000	 -0.000000
H	 -0.025000	 2.288000	 -0.000000
C	 -1.990000	 0.460000	 -0.000000
O	 -2.822000	 -0.391000	 0.000000
H	 -2.279000	 1.516000	 -0.000000

	symmetry c1
}
ee = optimize('scf')
oeprop('DIPOLE', 'QUADRUPOLE', 'MULLIKEN_CHARGES')
f=open( 'psi4out.xyz', 'w' )
f.write( "14  " )
f.write( str(ee) + "\n" )
f.write( MOL.save_string_xyz() )
f.close()
--------------------------------------------------------------------------

    Molecular point group: c1
  Charge       = 0
  Multiplicity = 1
  Basis Set: CC-PVTZ
  Basis Set:
  @DF-RHF Final Energy:  -343.54993242597510
    Total Energy =                       -343.5499324259748164
    Molecular point group: c1
  Basis Set: CC-PVTZ
  Basis Set:
  Basis Set: CC-PVTZ
  Basis Set:
  @DF-RHF Final Energy:  -343.55010721774158
    Total Energy =                       -343.5501072177415836
  Basis Set: CC-PVTZ
  Basis Set:
  Charge       = 0
  Multiplicity = 1
  Basis Set: CC-PVTZ
  Basis Set:

    Orbital Energies (a.u.)
    -----------------------

    Doubly Occupied:

       1A    -20.552548     2A    -11.326874     3A    -11.252776
       4A    -11.250339     5A    -11.246654     6A    -11.245328
       7A    -11.243934     8A    -11.242345     9A     -1.408370
      10A     -1.177207    11A     -1.051894    12A     -1.036301
      13A     -0.892827    14A     -0.848567    15A     -0.794504
      16A     -0.725604    17A     -0.682412    18A     -0.656517
      19A     -0.623694    20A     -0.620754    21A     -0.606099
      22A     -0.562362    23A     -0.530253    24A     -0.510183
      25A     -0.508286    26A     -0.425542    27A     -0.355948
      28A     -0.352603

  @DF-RHF Final Energy:  -343.55011457595879

   => Energetics <=

    Nuclear Repulsion Energy =            323.9799295362422527
    One-Electron Energy =               -1107.5986421940926903
    Two-Electron Energy =                 440.0685980818915368
    DFT Exchange-Correlation Energy =       0.0000000000000000
    Empirical Dispersion Energy =           0.0000000000000000
    PCM Polarization Energy =               0.0000000000000000
    EFP Energy =                            0.0000000000000000
    Total Energy =                       -343.5501145759589008
    Molecular point group: c1
  Basis Set: CC-PVTZ
  Basis Set:

  -Total Gradient:
     Atom            X                  Y                   Z
    ------   -----------------  -----------------  -----------------
       1       -0.000036855616     0.000036746805     0.000000000000
       2       -0.000056878590    -0.000285083022    -0.000000000000
       3        0.000247518305     0.000141912415     0.000000000000
       4       -0.000232515006     0.000182466893     0.000000000000
       5       -0.000031566521     0.000028117314    -0.000000000000
       6       -0.000167402474     0.000124398834    -0.000000000000
       7        0.000002527152    -0.000044735975    -0.000000000000
       8        0.000327705322     0.000077524320     0.000000000000
       9        0.000021834832     0.000038072810    -0.000000000000
      10       -0.000189571978    -0.000227724538    -0.000000000001
      11        0.000001325033    -0.000062082602    -0.000000000000
      12        0.000376109050     0.000231990050     0.000000000003
      13       -0.000190560754    -0.000105947201    -0.000000000001
      14       -0.000071668757    -0.000135656100    -0.000000000001

  **** Optimization is complete! (in 3 steps) ****
    Final optimized geometry and variables:
    Molecular point group: c1

    Geometry (in Angstrom), charge = 0, multiplicity = 1:

    H            3.297443414851    -0.408277737745    -0.000000000002
    C            2.238662487485    -0.232358586703    -0.000000000001
    C            1.361753226104    -1.306772072988    -0.000000000000
    C            1.757878781753     1.061612570165    -0.000000000000
    H            1.743025415740    -2.309480564148    -0.000000000001
    C            0.002772647545    -1.085474708415     0.000000000001
    H            2.438508488133     1.890599378917    -0.000000000001
    C            0.392784694675     1.282268993842     0.000000000001
    H           -0.690754416717    -1.902589775692     0.000000000002
    C           -0.486397383154     0.214247702459     0.000000000002
    H            0.011716058709     2.286740234876     0.000000000002
    C           -1.946525094098     0.470130498277     0.000000000003
    O           -2.779617644890    -0.371226161079    -0.000000000005
    H           -2.227126781354     1.528393284129    -0.000000000005

  Mulliken Charges: (a.u.)
   Center  Symbol    Alpha    Beta     Spin     Total
       1     H     0.41947  0.41947  0.00000  0.16106
       2     C     3.06945  3.06945  0.00000 -0.13891
       3     C     3.07270  3.07270  0.00000 -0.14540
       4     C     3.07382  3.07382  0.00000 -0.14764
       5     H     0.41948  0.41948  0.00000  0.16103
       6     C     3.07916  3.07916  0.00000 -0.15831
       7     H     0.42059  0.42059  0.00000  0.15881
       8     C     3.08680  3.08680  0.00000 -0.17361
       9     H     0.40861  0.40861  0.00000  0.18278
      10     C     2.98644  2.98644  0.00000  0.02713
      11     H     0.42286  0.42286  0.00000  0.15428
      12     C     2.90933  2.90933  0.00000  0.18134
      13     O     4.17295  4.17295  0.00000 -0.34589
      14     H     0.45833  0.45833  0.00000  0.08333

   Total alpha = 28.00000, Total beta = 28.00000, Total charge = -0.00000
