  ==> Input File <==

--------------------------------------------------------------------------
set {
	reference rhf
	basis cc-pvtz
}

set_num_threads( 4 )
memory 2 gb

molecule MOL {
0 1

H	 3.721907	 -0.933076	 -0.066039
O	 2.824271	 -1.154299	 0.131461
C	 2.076458	 -0.067370	 -0.038225
C	 0.626018	 -0.337582	 0.258241
O	 2.538288	 0.965419	 -0.381593
C	 -0.267326	 0.883135	 0.076490
H	 0.325620	 -1.161483	 -0.378003
H	 0.574537	 -0.713685	 1.275261
C	 -1.726822	 0.642622	 0.463839
H	 -0.210803	 1.217591	 -0.953497
H	 0.129920	 1.693110	 0.675679
C	 -2.480891	 -0.340606	 -0.429852
H	 -2.243098	 1.597649	 0.438609
H	 -1.776542	 0.301208	 1.495542
C	 -2.971685	 -1.569185	 0.329221
H	 -3.329576	 0.166616	 -0.880955
H	 -1.847109	 -0.664178	 -1.249350
H	 -3.504369	 -2.248578	 -0.326031
H	 -3.643812	 -1.289333	 1.133352
H	 -2.142737	 -2.114769	 0.767785

	symmetry c1
}
set optking {
	frozen_dihedral = ("
		16 12 9 6
	")
}

ee = optimize('scf')
oeprop('DIPOLE', 'QUADRUPOLE', 'MULLIKEN_CHARGES')
f=open( 'psi4out.xyz', 'w' )
f.write( "20  " )
f.write( str(ee) + "\n" )
f.write( MOL.save_string_xyz() )
f.close()
--------------------------------------------------------------------------

    Molecular point group: c1
  Charge       = 0
  Multiplicity = 1
  Basis Set: CC-PVTZ
  Basis Set:
  @DF-RHF Final Energy:  -384.08925677815091
    Total Energy =                       -384.0892567781512525
    Molecular point group: c1
  Basis Set: CC-PVTZ
  Basis Set:
  Basis Set: CC-PVTZ
  Basis Set:
  @DF-RHF Final Energy:  -384.08960863755613
    Total Energy =                       -384.0896086375569212
  Basis Set: CC-PVTZ
  Basis Set:
  Basis Set: CC-PVTZ
  Basis Set:
  @DF-RHF Final Energy:  -384.08967056535369
    Total Energy =                       -384.0896705653540266
  Basis Set: CC-PVTZ
  Basis Set:
  Basis Set: CC-PVTZ
  Basis Set:
  @DF-RHF Final Energy:  -384.08964549652461
    Total Energy =                       -384.0896454965247813
  Basis Set: CC-PVTZ
  Basis Set:
  Basis Set: CC-PVTZ
  Basis Set:
  @DF-RHF Final Energy:  -384.08965550008583
    Total Energy =                       -384.0896555000859962
  Basis Set: CC-PVTZ
  Basis Set:
  Basis Set: CC-PVTZ
  Basis Set:
  @DF-RHF Final Energy:  -384.08967813492632
    Total Energy =                       -384.0896781349256344
  Basis Set: CC-PVTZ
  Basis Set:
  Basis Set: CC-PVTZ
  Basis Set:
  @DF-RHF Final Energy:  -384.08968250265013
    Total Energy =                       -384.0896825026499073
  Basis Set: CC-PVTZ
  Basis Set:
  Charge       = 0
  Multiplicity = 1
  Basis Set: CC-PVTZ
  Basis Set:

    Orbital Energies (a.u.)
    -----------------------

    Doubly Occupied:

       1A    -20.604010     2A    -20.540621     3A    -11.373558
       4A    -11.238892     5A    -11.221307     6A    -11.218749
       7A    -11.218047     8A    -11.211965     9A     -1.477588
      10A     -1.369109    11A     -1.096734    12A     -1.039854
      13A     -0.963628    14A     -0.872070    15A     -0.815773
      16A     -0.779588    17A     -0.703805    18A     -0.693676
      19A     -0.667341    20A     -0.627520    21A     -0.610620
      22A     -0.597776    23A     -0.582703    24A     -0.555060
      25A     -0.536469    26A     -0.513079    27A     -0.503430
      28A     -0.484535    29A     -0.470675    30A     -0.463840
      31A     -0.457272    32A     -0.445527

  @DF-RHF Final Energy:  -384.08968301641801

   => Energetics <=

    Nuclear Repulsion Energy =            380.5585617032314758
    One-Electron Energy =               -1277.3868363679243885
    Two-Electron Energy =                 512.7385916482750190
    DFT Exchange-Correlation Energy =       0.0000000000000000
    Empirical Dispersion Energy =           0.0000000000000000
    PCM Polarization Energy =               0.0000000000000000
    EFP Energy =                            0.0000000000000000
    Total Energy =                       -384.0896830164178937
    Molecular point group: c1
  Basis Set: CC-PVTZ
  Basis Set:

  -Total Gradient:
     Atom            X                  Y                   Z
    ------   -----------------  -----------------  -----------------
       1        0.000005814289    -0.000003251938     0.000002439157
       2        0.000002884405     0.000007533950    -0.000014523921
       3       -0.000004242580     0.000003614595     0.000020345541
       4       -0.000008394901    -0.000008724150    -0.000022765083
       5        0.000006923756    -0.000006507896     0.000000827766
       6       -0.000060481391     0.000153472751    -0.000122281126
       7       -0.000008616931    -0.000003912946     0.000007869597
       8        0.000002555041     0.000007807853     0.000001404071
       9        0.000109404648    -0.000180601721     0.000134131705
      10        0.000010253402     0.000006435512    -0.000008831982
      11       -0.000008215146    -0.000009153702    -0.000001002961
      12       -0.000197765750    -0.000011520797     0.000163290209
      13        0.000004207972    -0.000006159019     0.000005158978
      14       -0.000003791224     0.000005773480     0.000004429353
      15       -0.000009323884    -0.000021148659     0.000020288522
      16        0.000165886684     0.000071702297    -0.000204868729
      17       -0.000003705697     0.000009848609     0.000002787502
      18       -0.000000402606     0.000001978637     0.000002255081
      19       -0.000003949906    -0.000005983883     0.000003309840
      20        0.000000959822    -0.000011202972     0.000005736476

  **** Optimization is complete! (in 8 steps) ****
    Final optimized geometry and variables:
    Molecular point group: c1

    Geometry (in Angstrom), charge = 0, multiplicity = 1:

    H            3.577581652551    -0.815215836550    -0.147438502300
    O            2.687486630793    -1.013657045440     0.101747784320
    C            1.941520988719     0.067915680484    -0.105969628949
    C            0.503085342976    -0.167040351923     0.268510617725
    O            2.395586463449     1.071820302918    -0.534805729524
    C           -0.387561425969     1.050592901573     0.058052781880
    H            0.164583600527    -1.022183250087    -0.305627164045
    H            0.492310852168    -0.484722122210     1.306240020779
    C           -1.848217712493     0.804328595110     0.439795468921
    H           -0.326646714449     1.365691147081    -0.977413557947
    H            0.004007987130     1.872404669746     0.645465443471
    C           -2.597536148742    -0.194589757420    -0.469226072668
    H           -2.360225872088     1.759362622670     0.422630522005
    H           -1.892650863615     0.464349295693     1.470862192417
    C           -3.092697583933    -1.442327138145     0.257437098222
    H           -3.445413507229     0.301748893546    -0.927617873348
    H           -1.957736066812    -0.494929649305    -1.292961106397
    H           -3.611093899364    -2.111495358467    -0.419886255602
    H           -3.780073587304    -1.180513597477     1.054735427244
    H           -2.270533671564    -1.993072875481     0.702548202142

  Mulliken Charges: (a.u.)
   Center  Symbol    Alpha    Beta     Spin     Total
       1     H     0.38234  0.38234  0.00000  0.23531
       2     O     4.16048  4.16048  0.00000 -0.32095
       3     C     2.80324  2.80324  0.00000  0.39351
       4     C     3.11297  3.11297  0.00000 -0.22595
       5     O     4.19095  4.19095  0.00000 -0.38189
       6     C     3.09046  3.09046  0.00000 -0.18093
       7     H     0.43721  0.43721  0.00000  0.12557
       8     H     0.43702  0.43702  0.00000  0.12595
       9     C     3.10490  3.10490  0.00000 -0.20981
      10     H     0.44487  0.44487  0.00000  0.11026
      11     H     0.44098  0.44098  0.00000  0.11803
      12     C     3.10054  3.10054  0.00000 -0.20108
      13     H     0.44037  0.44037  0.00000  0.11925
      14     H     0.45472  0.45472  0.00000  0.09056
      15     C     3.14629  3.14629  0.00000 -0.29259
      16     H     0.44333  0.44333  0.00000  0.11334
      17     H     0.45216  0.45216  0.00000  0.09568
      18     H     0.44826  0.44826  0.00000  0.10349
      19     H     0.45340  0.45340  0.00000  0.09320
      20     H     0.45548  0.45548  0.00000  0.08904

   Total alpha = 32.00000, Total beta = 32.00000, Total charge =  0.00000
