  ==> Input File <==

--------------------------------------------------------------------------
set {
	reference rhf
	basis 6-31G*
}

set_num_threads( 4 )
memory 2 gb

molecule MOL {
0 1

O	 -1.276010	 1.052711	 -0.768302
C	 -1.204840	 0.067374	 -0.106123
C	 -2.388195	 -0.672128	 0.458071
O	 -0.067104	 -0.527208	 0.221609
H	 -2.388023	 -1.694060	 0.097175
H	 -3.300579	 -0.174919	 0.164318
H	 -2.315377	 -0.706351	 1.539059
C	 1.170087	 0.033890	 -0.239320
C	 2.160084	 -1.116683	 -0.280232
C	 1.601736	 1.158305	 0.689128
H	 1.007789	 0.423098	 -1.233646
H	 1.807649	 -1.901803	 -0.939491
H	 3.121672	 -0.769619	 -0.643863
H	 2.299284	 -1.538153	 0.709536
H	 2.549258	 1.571956	 0.358808
H	 0.868844	 1.955063	 0.693814
H	 1.724994	 0.787623	 1.701754

	symmetry c1
}
set optking {
	frozen_dihedral = ("
		8 4 2 1
	")
}

ee = optimize('scf')
oeprop('DIPOLE', 'QUADRUPOLE', 'MULLIKEN_CHARGES')
f=open( 'psi4out.xyz', 'w' )
f.write( "17  " )
f.write( str(ee) + "\n" )
f.write( MOL.save_string_xyz() )
f.close()
--------------------------------------------------------------------------

    Molecular point group: c1
  Charge       = 0
  Multiplicity = 1
  Basis Set: 6-31G*
  Basis Set:
  @DF-RHF Final Energy:  -344.91466977856885
    Total Energy =                       -344.9146697785690208
    Molecular point group: c1
  Basis Set: 6-31G*
  Basis Set:
  Basis Set: 6-31G*
  Basis Set:
  @DF-RHF Final Energy:  -344.91460422063415
    Total Energy =                       -344.9146042206342599
  Basis Set: 6-31G*
  Basis Set:
  Charge       = 0
  Multiplicity = 1
  Basis Set: 6-31G*
  Basis Set:

    Orbital Energies (a.u.)
    -----------------------

    Doubly Occupied:

       1A    -20.598917     2A    -20.543063     3A    -11.374749
       4A    -11.290023     5A    -11.232441     6A    -11.219490
       7A    -11.215559     8A     -1.465469     9A     -1.361545
      10A     -1.078453    11A     -1.005023    12A     -0.947918
      13A     -0.848328    14A     -0.765339    15A     -0.691904
      16A     -0.670043    17A     -0.658786    18A     -0.613030
      19A     -0.585960    20A     -0.578428    21A     -0.562347
      22A     -0.550591    23A     -0.537390    24A     -0.519929
      25A     -0.501813    26A     -0.482622    27A     -0.446815
      28A     -0.435728

  @DF-RHF Final Energy:  -344.91467216148220

   => Energetics <=

    Nuclear Repulsion Energy =            323.1152067029764225
    One-Electron Energy =               -1110.4963560921619319
    Two-Electron Energy =                 442.4664772277034217
    DFT Exchange-Correlation Energy =       0.0000000000000000
    Empirical Dispersion Energy =           0.0000000000000000
    PCM Polarization Energy =               0.0000000000000000
    EFP Energy =                            0.0000000000000000
    Total Energy =                       -344.9146721614821445
    Molecular point group: c1
  Basis Set: 6-31G*
  Basis Set:

  -Total Gradient:
     Atom            X                  Y                   Z
    ------   -----------------  -----------------  -----------------
       1        0.000022478095    -0.000004034568    -0.000053242768
       2        0.000012747601    -0.000011945785     0.000112439845
       3       -0.000018989954     0.000018029706    -0.000001257512
       4       -0.000056763026    -0.000012079331    -0.000077365542
       5       -0.000003640640    -0.000008470846     0.000001416875
       6        0.000001807799    -0.000004142574     0.000003332319
       7       -0.000003259135    -0.000005539332     0.000003161258
       8        0.000060486749     0.000033174453     0.000001629739
       9       -0.000007454497     0.000002989186     0.000006515673
      10       -0.000018367268    -0.000008557744     0.000004325302
      11       -0.000004645051     0.000001265428     0.000001564558
      12        0.000001543934     0.000009102610     0.000004142992
      13        0.000007500458    -0.000002369448    -0.000001367338
      14        0.000004642250    -0.000005005328    -0.000000946690
      15       -0.000000426865    -0.000003459700    -0.000002128210
      16        0.000000011050    -0.000000474189    -0.000001545421
      17        0.000002328499     0.000001517458    -0.000000675079

  **** Optimization is complete! (in 3 steps) ****
    Final optimized geometry and variables:
    Molecular point group: c1

    Geometry (in Angstrom), charge = 0, multiplicity = 1:

    O           -1.275932719037     1.051677289139    -0.770030398805
    C           -1.205028232538     0.066025386386    -0.108433270869
    C           -2.388120020006    -0.670369089612     0.460710248155
    O           -0.067023104478    -0.527766406095     0.220146408052
    H           -2.390902636826    -1.692936770783     0.101540421124
    H           -3.300365631756    -0.171928685369     0.168685903113
    H           -2.312278029056    -0.702652357530     1.541548458004
    C            1.170324540593     0.034342885295    -0.238789216667
    C            2.161244510428    -1.115583844869    -0.279206343229
    C            1.600182846606     1.158201668700     0.691201406916
    H            1.009155179880     0.424275659819    -1.233037984929
    H            1.810156028502    -1.900128356379    -0.939757022285
    H            3.123238813487    -0.767705587674    -0.640929066586
    H            2.298956578924    -1.538168466987     0.710298625855
    H            2.547831980637     1.572636619530     0.362244179154
    H            0.866780421450     1.954535142478     0.696000553177
    H            1.722586495591     0.786685857676     1.703629942370

  Mulliken Charges: (a.u.)
   Center  Symbol    Alpha    Beta     Spin     Total
       1     O     4.28548  4.28548  0.00000 -0.57096
       2     C     2.61773  2.61773  0.00000  0.76453
       3     C     3.28151  3.28151  0.00000 -0.56301
       4     O     4.31369  4.31369  0.00000 -0.62738
       5     H     0.40080  0.40080  0.00000  0.19841
       6     H     0.39732  0.39732  0.00000  0.20536
       7     H     0.40082  0.40082  0.00000  0.19835
       8     C     2.92787  2.92787  0.00000  0.14425
       9     C     3.24156  3.24156  0.00000 -0.48313
      10     C     3.25079  3.25079  0.00000 -0.50158
      11     H     0.40140  0.40140  0.00000  0.19720
      12     H     0.41213  0.41213  0.00000  0.17575
      13     H     0.41760  0.41760  0.00000  0.16479
      14     H     0.41407  0.41407  0.00000  0.17186
      15     H     0.41823  0.41823  0.00000  0.16354
      16     H     0.40197  0.40197  0.00000  0.19607
      17     H     0.41703  0.41703  0.00000  0.16595

   Total alpha = 28.00000, Total beta = 28.00000, Total charge = -0.00000
