  ==> Input File <==

--------------------------------------------------------------------------
set {
	reference rhf
	basis cc-pvtz
}

set_num_threads( 4 )
memory 2 gb

molecule MOL {
0 1

H	 -2.569433	 -0.436504	 0.981148
O	 -2.346257	 -0.289210	 0.080372
C	 -1.183935	 0.486039	 -0.009831
C	 0.062853	 -0.375310	 0.027457
H	 -1.178881	 1.094526	 -0.908634
H	 -1.184406	 1.155156	 0.838676
O	 1.172093	 0.457955	 -0.054438
H	 0.052476	 -1.081302	 -0.804627
H	 0.076323	 -0.955658	 0.947560
C	 2.395478	 -0.199028	 -0.000366
H	 2.505946	 -0.901710	 -0.823354
H	 3.174616	 0.545641	 -0.071768
H	 2.513730	 -0.742241	 0.934223

	symmetry c1
}
set optking {
	frozen_dihedral = ("
		1 2 3 5
	")
}

ee = optimize('scf')
oeprop('DIPOLE', 'QUADRUPOLE', 'MULLIKEN_CHARGES')
f=open( 'psi4out.xyz', 'w' )
f.write( "13  " )
f.write( str(ee) + "\n" )
f.write( MOL.save_string_xyz() )
f.close()
--------------------------------------------------------------------------

    Molecular point group: c1
  Charge       = 0
  Multiplicity = 1
  Basis Set: CC-PVTZ
  Basis Set:
  @DF-RHF Final Energy:  -268.06058790083898
    Total Energy =                       -268.0605879008389820
    Molecular point group: c1
  Basis Set: CC-PVTZ
  Basis Set:
  Basis Set: CC-PVTZ
  Basis Set:
  @DF-RHF Final Energy:  -268.06174499946337
    Total Energy =                       -268.0617449994632580
  Basis Set: CC-PVTZ
  Basis Set:
  Basis Set: CC-PVTZ
  Basis Set:
  @DF-RHF Final Energy:  -268.06204996082027
    Total Energy =                       -268.0620499608202749
  Basis Set: CC-PVTZ
  Basis Set:
  Basis Set: CC-PVTZ
  Basis Set:
  @DF-RHF Final Energy:  -268.06205519177820
    Total Energy =                       -268.0620551917780858
  Basis Set: CC-PVTZ
  Basis Set:
  Charge       = 0
  Multiplicity = 1
  Basis Set: CC-PVTZ
  Basis Set:

    Orbital Energies (a.u.)
    -----------------------

    Doubly Occupied:

       1A    -20.554744     2A    -20.552436     3A    -11.267900
       4A    -11.267020     5A    -11.266782     6A     -1.390675
       7A     -1.368668     8A     -1.019358     9A     -0.913368
      10A     -0.839806    11A     -0.714258    12A     -0.676673
      13A     -0.658645    14A     -0.641205    15A     -0.599492
      16A     -0.564275    17A     -0.547908    18A     -0.487276
      19A     -0.486618    20A     -0.441253    21A     -0.423377

  @DF-RHF Final Energy:  -268.06205568565014

   => Energetics <=

    Nuclear Repulsion Energy =            190.4267991397481410
    One-Electron Energy =                -743.6142366399809589
    Two-Electron Energy =                 285.1253818145827381
    DFT Exchange-Correlation Energy =       0.0000000000000000
    Empirical Dispersion Energy =           0.0000000000000000
    PCM Polarization Energy =               0.0000000000000000
    EFP Energy =                            0.0000000000000000
    Total Energy =                       -268.0620556856500798
    Molecular point group: c1
  Basis Set: CC-PVTZ
  Basis Set:

  -Total Gradient:
     Atom            X                  Y                   Z
    ------   -----------------  -----------------  -----------------
       1       -0.000500891475     0.000745714463    -0.000048114748
       2        0.000525373616    -0.000777399084     0.000143520674
       3        0.000321267124    -0.000565171677    -0.000424374974
       4       -0.000038311732     0.000039567779     0.000004326606
       5       -0.000346196164     0.000559538814     0.000349551694
       6       -0.000003328560    -0.000009352575     0.000002996936
       7        0.000032196117    -0.000011550404    -0.000014457123
       8        0.000004342289    -0.000001169176    -0.000003582584
       9       -0.000012977772     0.000009967177    -0.000012994625
      10        0.000013521473     0.000014111008     0.000006924224
      11       -0.000001087899     0.000001513210    -0.000000473344
      12        0.000006267132    -0.000003732291    -0.000003397045
      13       -0.000000174149    -0.000002037246     0.000000074310

  **** Optimization is complete! (in 5 steps) ****
    Final optimized geometry and variables:
    Molecular point group: c1

    Geometry (in Angstrom), charge = 0, multiplicity = 1:

    H           -2.611130251575    -0.440537927564     0.909305830845
    O           -2.340599121724    -0.304511777737     0.020849917348
    C           -1.183029183244     0.484489815064    -0.021253249933
    C            0.063220113170    -0.375852117700     0.026644323747
    H           -1.202596560519     1.045032695537    -0.945628274421
    H           -1.160220618330     1.202259012467     0.792085752412
    O            1.172876120803     0.458901426996    -0.043181292785
    H            0.050213458613    -1.079051985882    -0.803351467056
    H            0.076936953790    -0.957760157262     0.948618795679
    C            2.395234229708    -0.201857175528    -0.040991495607
    H            2.486383194293    -0.871432260778    -0.893016877390
    H            3.174963267193     0.543469314620    -0.098508565643
    H            2.531793102214    -0.782306106195     0.868798062601

  Mulliken Charges: (a.u.)
   Center  Symbol    Alpha    Beta     Spin     Total
       1     H     0.39239  0.39239  0.00000  0.21522
       2     O     4.20408  4.20408  0.00000 -0.40816
       3     C     2.97541  2.97541  0.00000  0.04917
       4     C     2.96079  2.96079  0.00000  0.07841
       5     H     0.45406  0.45406  0.00000  0.09188
       6     H     0.46719  0.46719  0.00000  0.06562
       7     O     4.17605  4.17605  0.00000 -0.35210
       8     H     0.47024  0.47024  0.00000  0.05952
       9     H     0.48090  0.48090  0.00000  0.03821
      10     C     3.03149  3.03149  0.00000 -0.06299
      11     H     0.46988  0.46988  0.00000  0.06023
      12     H     0.44626  0.44626  0.00000  0.10748
      13     H     0.47125  0.47125  0.00000  0.05750

   Total alpha = 21.00000, Total beta = 21.00000, Total charge = -0.00000
