  ==> Input File <==

--------------------------------------------------------------------------
set {
	reference rhf
	basis 6-31G*
}

set_num_threads( 1 )
memory 2 gb

molecule MOL {
0 1

H	 3.696710	 0.121746	 -0.778349
N	 3.092854	 -0.246221	 -0.068770
C	 1.865559	 0.531981	 0.018834
H	 3.599805	 -0.200697	 0.794803
C	 0.645745	 -0.382037	 -0.029944
H	 1.841966	 1.207024	 -0.831236
H	 1.815756	 1.155410	 0.915079
C	 -0.679275	 0.379305	 0.025956
H	 0.698998	 -0.976915	 -0.937203
H	 0.693479	 -1.083846	 0.802235
C	 -1.903357	 -0.536963	 -0.023547
H	 -0.726309	 1.082987	 -0.803784
H	 -0.717680	 0.977832	 0.934877
C	 -3.225172	 0.228290	 0.028445
H	 -1.867824	 -1.134999	 -0.931459
H	 -1.860449	 -1.239604	 0.805977
H	 -3.313397	 0.915643	 -0.808262
H	 -4.073500	 -0.448134	 -0.008893
H	 -3.306061	 0.809945	 0.942516

	symmetry c1
}
set optking {
	frozen_dihedral = ("
		6 3 5 9,
		12 8 5 9,
		12 8 11 15
	")
}

ee = energy('scf')
oeprop('DIPOLE', 'QUADRUPOLE', 'MULLIKEN_CHARGES')
f=open( 'psi4out.xyz', 'w' )
f.write( "19  " )
f.write( str(ee) + "\n" )
f.write( MOL.save_string_xyz() )
f.close()
--------------------------------------------------------------------------

    Molecular point group: c1

    Geometry (in Angstrom), charge = 0, multiplicity = 1:

       Center              X                  Y                   Z               Mass
    ------------   -----------------  -----------------  -----------------  -----------------
           H          3.694351633675     0.117214255785    -0.771127712022     1.007825032070
           N          3.090495633675    -0.250752744215    -0.061548712022    14.003074004780
           C          1.863200633675     0.527449255785     0.026055287978    12.000000000000
           H          3.597446633675    -0.205228744215     0.802024287978     1.007825032070
           C          0.643386633675    -0.386568744215    -0.022722712022    12.000000000000
           H          1.839607633675     1.202492255785    -0.824014712022     1.007825032070
           H          1.813397633675     1.150878255785     0.922300287978     1.007825032070
           C         -0.681633366325     0.374773255785     0.033177287978    12.000000000000
           H          0.696639633675    -0.981446744215    -0.929981712022     1.007825032070
           H          0.691120633675    -1.088377744215     0.809456287978     1.007825032070
           C         -1.905715366325    -0.541494744215    -0.016325712022    12.000000000000
           H         -0.728667366325     1.078455255785    -0.796562712022     1.007825032070
           H         -0.720038366325     0.973300255785     0.942098287978     1.007825032070
           C         -3.227530366325     0.223758255785     0.035666287978    12.000000000000
           H         -1.870182366325    -1.139530744215    -0.924237712022     1.007825032070
           H         -1.862807366325    -1.244135744215     0.813198287978     1.007825032070
           H         -3.315755366325     0.911111255785    -0.801040712022     1.007825032070
           H         -4.075858366325    -0.452665744215    -0.001671712022     1.007825032070
           H         -3.308419366325     0.805413255785     0.949737287978     1.007825032070

  Charge       = 0
  Multiplicity = 1
  Basis Set: 6-31G*
  Basis Set:

    Orbital Energies (a.u.)
    -----------------------

    Doubly Occupied:

       1A    -15.531981     2A    -11.240082     3A    -11.211337
       4A    -11.208876     5A    -11.205583     6A    -11.202165
       7A     -1.176273     8A     -1.070023     9A     -0.996037
      10A     -0.898778    11A     -0.809210    12A     -0.784414
      13A     -0.676433    14A     -0.634250    15A     -0.614700
      16A     -0.576689    17A     -0.568787    18A     -0.552959
      19A     -0.516372    20A     -0.504793    21A     -0.471684
      22A     -0.461752    23A     -0.456557    24A     -0.455042
      25A     -0.378256

  @DF-RHF Final Energy:  -251.34817126429613

   => Energetics <=

    Nuclear Repulsion Energy =            245.4411412379196804
    One-Electron Energy =                -825.1725861194436220
    Two-Electron Energy =                 328.3832736172277009
    DFT Exchange-Correlation Energy =       0.0000000000000000
    Empirical Dispersion Energy =           0.0000000000000000
    PCM Polarization Energy =               0.0000000000000000
    EFP Energy =                            0.0000000000000000
    Total Energy =                       -251.3481712642961838

  Mulliken Charges: (a.u.)
   Center  Symbol    Alpha    Beta     Spin     Total
       1     H     0.33150  0.33150  0.00000  0.33701
       2     N     3.92316  3.92316  0.00000 -0.84633
       3     C     3.06990  3.06990  0.00000 -0.13980
       4     H     0.33275  0.33275  0.00000  0.33450
       5     C     3.13843  3.13843  0.00000 -0.27686
       6     H     0.42563  0.42563  0.00000  0.14875
       7     H     0.42751  0.42751  0.00000  0.14498
       8     C     3.15696  3.15696  0.00000 -0.31391
       9     H     0.41911  0.41911  0.00000  0.16178
      10     H     0.42331  0.42331  0.00000  0.15337
      11     C     3.15018  3.15018  0.00000 -0.30036
      12     H     0.42598  0.42598  0.00000  0.14804
      13     H     0.42623  0.42623  0.00000  0.14754
      14     C     3.23900  3.23900  0.00000 -0.47800
      15     H     0.42255  0.42255  0.00000  0.15490
      16     H     0.42294  0.42294  0.00000  0.15411
      17     H     0.42244  0.42244  0.00000  0.15512
      18     H     0.41984  0.41984  0.00000  0.16033
      19     H     0.42258  0.42258  0.00000  0.15485

   Total alpha = 25.00000, Total beta = 25.00000, Total charge = -0.00000
