  ==> Input File <==

--------------------------------------------------------------------------
set {
	reference rhf
	basis 6-31G*
}

set_num_threads( 1 )
memory 2 gb

molecule MOL {
0 1

H	 2.824758	 -2.203297	 2.542281
C	 2.709427	 -1.792172	 1.544571
C	 1.418765	 -0.982351	 1.429054
H	 3.579710	 -1.174948	 1.339948
H	 2.720329	 -2.621433	 0.842820
C	 1.217350	 -0.386724	 0.039429
H	 1.416503	 -0.175118	 2.154836
H	 0.570649	 -1.620242	 1.672332
N	 0.000003	 0.397874	 -0.023260
H	 2.050964	 0.270529	 -0.193100
H	 1.236489	 -1.186709	 -0.708257
C	 -1.217365	 -0.386708	 0.039277
H	 -0.000031	 1.072115	 0.718656
C	 -2.452633	 0.504241	 -0.042481
H	 -1.215291	 -1.074557	 -0.802042
H	 -1.269739	 -1.003477	 0.942735
C	 -3.758029	 -0.289423	 -0.010781
H	 -2.394220	 1.093569	 -0.952170
H	 -2.440793	 1.210787	 0.785871
H	 -3.816659	 -0.981993	 -0.845726
H	 -4.617837	 0.370165	 -0.069296
H	 -3.847478	 -0.867502	 0.904682

	symmetry c1
}
set optking {
	frozen_dihedral = ("
		15 12 14 18
	")
}

ee = energy('scf')
oeprop('DIPOLE', 'QUADRUPOLE', 'MULLIKEN_CHARGES')
f=open( 'psi4out.xyz', 'w' )
f.write( "22  " )
f.write( str(ee) + "\n" )
f.write( MOL.save_string_xyz() )
f.close()
--------------------------------------------------------------------------

    Molecular point group: c1

    Geometry (in Angstrom), charge = 0, multiplicity = 1:

       Center              X                  Y                   Z               Mass
    ------------   -----------------  -----------------  -----------------  -----------------
           H          3.123739412922    -1.774225756668     2.106544240767     1.007825032070
           C          3.008408412922    -1.363100756668     1.108834240767    12.000000000000
           C          1.717746412922    -0.553279756668     0.993317240767    12.000000000000
           H          3.878691412922    -0.745876756668     0.904211240767     1.007825032070
           H          3.019310412922    -2.192361756668     0.407083240767     1.007825032070
           C          1.516331412922     0.042347243332    -0.396307759233    12.000000000000
           H          1.715484412922     0.253953243332     1.719099240767     1.007825032070
           H          0.869630412922    -1.191170756668     1.236595240767     1.007825032070
           N          0.298984412922     0.826945243332    -0.458996759233    14.003074004780
           H          2.349945412922     0.699600243332    -0.628836759233     1.007825032070
           H          1.535470412922    -0.757637756668    -1.143993759233     1.007825032070
           C         -0.918383587078     0.042363243332    -0.396459759233    12.000000000000
           H          0.298950412922     1.501186243332     0.282919240767     1.007825032070
           C         -2.153651587078     0.933312243332    -0.478217759233    12.000000000000
           H         -0.916309587078    -0.645485756668    -1.237778759233     1.007825032070
           H         -0.970757587078    -0.574405756668     0.506998240767     1.007825032070
           C         -3.459047587078     0.139648243332    -0.446517759233    12.000000000000
           H         -2.095238587078     1.522640243332    -1.387906759233     1.007825032070
           H         -2.141811587078     1.639858243332     0.350134240767     1.007825032070
           H         -3.517677587078    -0.552921756668    -1.281462759233     1.007825032070
           H         -4.318855587078     0.799236243332    -0.505032759233     1.007825032070
           H         -3.548496587078    -0.438430756668     0.468945240767     1.007825032070

  Charge       = 0
  Multiplicity = 1
  Basis Set: 6-31G*
  Basis Set:

    Orbital Energies (a.u.)
    -----------------------

    Doubly Occupied:

       1A    -15.532136     2A    -11.238784     3A    -11.236822
       4A    -11.212952     5A    -11.212471     6A    -11.210251
       7A    -11.209381     8A     -1.206982     9A     -1.057701
      10A     -1.025972    11A     -0.928765    12A     -0.871305
      13A     -0.808748    14A     -0.800615    15A     -0.660639
      16A     -0.638749    17A     -0.616116    18A     -0.599420
      19A     -0.580393    20A     -0.556318    21A     -0.545183
      22A     -0.521337    23A     -0.507108    24A     -0.493516
      25A     -0.485270    26A     -0.474083    27A     -0.468669
      28A     -0.458274    29A     -0.350973

  @DF-RHF Final Energy:  -290.37794421606242

   => Energetics <=

    Nuclear Repulsion Energy =            318.8911985749569453
    One-Electron Energy =               -1023.5203505044518124
    Two-Electron Energy =                 414.2512077134321089
    DFT Exchange-Correlation Energy =       0.0000000000000000
    Empirical Dispersion Energy =           0.0000000000000000
    PCM Polarization Energy =               0.0000000000000000
    EFP Energy =                            0.0000000000000000
    Total Energy =                       -290.3779442160627013

  Mulliken Charges: (a.u.)
   Center  Symbol    Alpha    Beta     Spin     Total
       1     H     0.41861  0.41861  0.00000  0.16278
       2     C     3.24288  3.24288  0.00000 -0.48576
       3     C     3.16109  3.16109  0.00000 -0.32218
       4     H     0.42145  0.42145  0.00000  0.15709
       5     H     0.42129  0.42129  0.00000  0.15742
       6     C     3.05765  3.05765  0.00000 -0.11530
       7     H     0.42663  0.42663  0.00000  0.14674
       8     H     0.41923  0.41923  0.00000  0.16154
       9     N     3.85058  3.85058  0.00000 -0.70117
      10     H     0.41778  0.41778  0.00000  0.16444
      11     H     0.42002  0.42002  0.00000  0.15996
      12     C     3.05312  3.05312  0.00000 -0.10624
      13     H     0.33493  0.33493  0.00000  0.33015
      14     C     3.15393  3.15393  0.00000 -0.30785
      15     H     0.42179  0.42179  0.00000  0.15643
      16     H     0.43523  0.43523  0.00000  0.12954
      17     C     3.24320  3.24320  0.00000 -0.48640
      18     H     0.41295  0.41295  0.00000  0.17410
      19     H     0.42708  0.42708  0.00000  0.14583
      20     H     0.42082  0.42082  0.00000  0.15835
      21     H     0.41782  0.41782  0.00000  0.16437
      22     H     0.42192  0.42192  0.00000  0.15617

   Total alpha = 29.00000, Total beta = 29.00000, Total charge = -0.00000
