  ==> Input File <==

--------------------------------------------------------------------------
set {
	reference rhf
	basis cc-pvtz
}

set_num_threads( 4 )
memory 2 gb

molecule MOL {
0 1

H	 -3.999103	 -0.677684	 -0.608273
C	 -2.936217	 -0.529860	 -0.632711
C	 -2.396092	 0.465779	 -1.426819
C	 -2.111171	 -1.335038	 0.129504
H	 -3.037099	 1.090366	 -2.018174
C	 -1.030189	 0.655126	 -1.457696
H	 -2.531028	 -2.106884	 0.745009
C	 -0.743279	 -1.146683	 0.099657
H	 -0.595255	 1.421173	 -2.066844
C	 -0.198787	 -0.150207	 -0.694745
H	 -0.101528	 -1.768509	 0.688739
C	 1.270335	 0.094641	 -0.762940
O	 1.968286	 -0.725612	 -0.000027
O	 1.768033	 0.937586	 -1.431460
C	 3.373556	 -0.568203	 0.000011
H	 3.695416	 -0.031588	 -0.879663
H	 3.782700	 -1.565294	 -0.000152
H	 3.695405	 -0.031851	 0.879862

	symmetry c1
}
set optking {
	frozen_dihedral = ("
		12 13 15 16
	")
}

ee = optimize('scf')
oeprop('DIPOLE', 'QUADRUPOLE', 'MULLIKEN_CHARGES')
f=open( 'psi4out.xyz', 'w' )
f.write( "18  " )
f.write( str(ee) + "\n" )
f.write( MOL.save_string_xyz() )
f.close()
--------------------------------------------------------------------------

    Molecular point group: c1
  Charge       = 0
  Multiplicity = 1
  Basis Set: CC-PVTZ
  Basis Set:
  @DF-RHF Final Energy:  -457.50806118766394
    Total Energy =                       -457.5080611876641115
    Molecular point group: c1
  Basis Set: CC-PVTZ
  Basis Set:
  Basis Set: CC-PVTZ
  Basis Set:
  @DF-RHF Final Energy:  -457.50823076509977
    Total Energy =                       -457.5082307651003930
  Basis Set: CC-PVTZ
  Basis Set:
  Basis Set: CC-PVTZ
  Basis Set:
  @DF-RHF Final Energy:  -457.50845334792029
    Total Energy =                       -457.5084533479200672
  Basis Set: CC-PVTZ
  Basis Set:
  Basis Set: CC-PVTZ
  Basis Set:
  @DF-RHF Final Energy:  -457.50841678594759
    Total Energy =                       -457.5084167859478157
  Basis Set: CC-PVTZ
  Basis Set:
  Basis Set: CC-PVTZ
  Basis Set:
  @DF-RHF Final Energy:  -457.50857316827313
    Total Energy =                       -457.5085731682731875
  Basis Set: CC-PVTZ
  Basis Set:
  Charge       = 0
  Multiplicity = 1
  Basis Set: CC-PVTZ
  Basis Set:

    Orbital Energies (a.u.)
    -----------------------

    Doubly Occupied:

       1A    -20.600155     2A    -20.533835     3A    -11.372936
       4A    -11.280213     5A    -11.244673     6A    -11.243248
       7A    -11.242353     8A    -11.239720     9A    -11.235772
      10A    -11.235008    11A     -1.475011    12A     -1.368977
      13A     -1.170433    14A     -1.051608    15A     -1.028741
      16A     -0.981418    17A     -0.862846    18A     -0.838134
      19A     -0.780652    20A     -0.745088    21A     -0.688318
      22A     -0.679644    23A     -0.676160    24A     -0.634277
      25A     -0.629822    26A     -0.600994    27A     -0.587987
      28A     -0.569485    29A     -0.527699    30A     -0.520105
      31A     -0.509899    32A     -0.501680    33A     -0.461214
      34A     -0.449620    35A     -0.350045    36A     -0.345943

  @DF-RHF Final Energy:  -457.50857505481684

   => Energetics <=

    Nuclear Repulsion Energy =            493.6818480827744793
    One-Electron Energy =               -1601.8534174111305219
    Two-Electron Energy =                 650.6629942735388568
    DFT Exchange-Correlation Energy =       0.0000000000000000
    Empirical Dispersion Energy =           0.0000000000000000
    PCM Polarization Energy =               0.0000000000000000
    EFP Energy =                            0.0000000000000000
    Total Energy =                       -457.5085750548172427
    Molecular point group: c1
  Basis Set: CC-PVTZ
  Basis Set:

  -Total Gradient:
     Atom            X                  Y                   Z
    ------   -----------------  -----------------  -----------------
       1        0.000000379503    -0.000000484796     0.000000497726
       2       -0.000003031579     0.000006806302    -0.000005985686
       3       -0.000014876086    -0.000003717876     0.000002549207
       4        0.000006209702     0.000000972455    -0.000001138849
       5       -0.000002148635    -0.000000627853     0.000000417534
       6        0.000002714025    -0.000004890663     0.000005325181
       7       -0.000002129217    -0.000000024396    -0.000000359226
       8       -0.000014544218    -0.000006713685     0.000007249335
       9       -0.000000295228    -0.000002050657     0.000000143360
      10       -0.000021140090     0.000010614839    -0.000007130032
      11       -0.000006644477     0.000004062483    -0.000003437626
      12        0.000035937354    -0.000772145807    -0.000934080409
      13       -0.000064346626     0.001535600008     0.001507938097
      14        0.000032016122    -0.000029155657     0.000045175645
      15        0.000118594713    -0.001954470012    -0.001240493876
      16       -0.000091072886     0.001209006767     0.000644922059
      17        0.000070535351     0.000001886385    -0.000003107132
      18       -0.000046157720     0.000005332158    -0.000018485310

  **** Optimization is complete! (in 6 steps) ****
    Final optimized geometry and variables:
    Molecular point group: c1

    Geometry (in Angstrom), charge = 0, multiplicity = 1:

    H           -4.020027834243    -0.477645083240     0.011799722648
    C           -2.958320600360    -0.321782563678    -0.015534935812
    C           -2.427980632169     0.679357882450    -0.809405971455
    C           -2.124774899904    -1.121824580661     0.742728419356
    H           -3.075383599229     1.300287164091    -1.397747770811
    C           -1.063642526769     0.879106959431    -0.843867926784
    H           -2.536692000917    -1.897955208067     1.358281031946
    C           -0.758291479963    -0.923078871425     0.709154376958
    H           -0.636652742539     1.649733528209    -1.452859762808
    C           -0.223516501549     0.078694699016    -0.085075569681
    H           -0.110498155777    -1.541060171778     1.295563282804
    C            1.244425682480     0.336149829055    -0.158799648565
    O            1.944831055871    -0.480357022008     0.606848712444
    O            1.726899069003     1.184194794385    -0.831349395009
    C            3.355886411656    -0.373993219991     0.616410521008
    H            3.709685816600     0.136751682420    -0.262356849467
    H            3.747128609917    -1.378225103523     0.661241938513
    H            3.662215841275     0.174638510952     1.496254295375

  Mulliken Charges: (a.u.)
   Center  Symbol    Alpha    Beta     Spin     Total
       1     H     0.42033  0.42033  0.00000  0.15933
       2     C     3.06974  3.06974  0.00000 -0.13948
       3     C     3.07555  3.07555  0.00000 -0.15110
       4     C     3.07488  3.07488  0.00000 -0.14975
       5     H     0.42046  0.42046  0.00000  0.15907
       6     C     3.07592  3.07592  0.00000 -0.15183
       7     H     0.42196  0.42196  0.00000  0.15608
       8     C     3.08195  3.08195  0.00000 -0.16389
       9     H     0.40642  0.40642  0.00000  0.18716
      10     C     3.01781  3.01781  0.00000 -0.03561
      11     H     0.41120  0.41120  0.00000  0.17759
      12     C     2.77567  2.77567  0.00000  0.44866
      13     O     4.14985  4.14985  0.00000 -0.29969
      14     O     4.21153  4.21153  0.00000 -0.42306
      15     C     3.04074  3.04074  0.00000 -0.08148
      16     H     0.44197  0.44197  0.00000  0.11607
      17     H     0.44905  0.44905  0.00000  0.10189
      18     H     0.45498  0.45498  0.00000  0.09003

   Total alpha = 36.00000, Total beta = 36.00000, Total charge =  0.00000
