  ==> Input File <==

--------------------------------------------------------------------------
set {
	reference rhf
	basis cc-pvtz
}

set_num_threads( 4 )
memory 2 gb

molecule MOL {
0 1

H	 -1.835082	 1.385983	 0.000069
C	 -1.300516	 0.441153	 -0.000028
O	 -0.006604	 0.654344	 -0.000106
O	 -1.828920	 -0.612308	 0.000113
C	 0.852093	 -0.482521	 -0.000161
C	 2.199282	 -0.042829	 0.521812
H	 0.920808	 -0.868235	 -1.007365
H	 0.414557	 -1.250727	 0.621437
H	 2.623508	 0.728906	 -0.107814
H	 2.878195	 -0.887086	 0.534579
H	 2.114709	 0.344519	 1.529174

	symmetry c1
}
set optking {
	frozen_dihedral = ("
		7 5 3 2
	")
}

ee = optimize('scf')
oeprop('DIPOLE', 'QUADRUPOLE', 'MULLIKEN_CHARGES')
f=open( 'psi4out.xyz', 'w' )
f.write( "11  " )
f.write( str(ee) + "\n" )
f.write( MOL.save_string_xyz() )
f.close()
--------------------------------------------------------------------------

    Molecular point group: c1
  Charge       = 0
  Multiplicity = 1
  Basis Set: CC-PVTZ
  Basis Set:
  @DF-RHF Final Energy:  -266.93117609890811
    Total Energy =                       -266.9311760989081108
    Molecular point group: c1
  Basis Set: CC-PVTZ
  Basis Set:
  Basis Set: CC-PVTZ
  Basis Set:
  @DF-RHF Final Energy:  -266.93122584704946
    Total Energy =                       -266.9312258470495181
  Basis Set: CC-PVTZ
  Basis Set:
  Basis Set: CC-PVTZ
  Basis Set:
  @DF-RHF Final Energy:  -266.93051587291762
    Total Energy =                       -266.9305158729176810
  Basis Set: CC-PVTZ
  Basis Set:
  Basis Set: CC-PVTZ
  Basis Set:
  @DF-RHF Final Energy:  -266.93127807497831
    Total Energy =                       -266.9312780749783087
  Basis Set: CC-PVTZ
  Basis Set:
  Charge       = 0
  Multiplicity = 1
  Basis Set: CC-PVTZ
  Basis Set:

    Orbital Energies (a.u.)
    -----------------------

    Doubly Occupied:

       1A    -20.605444     2A    -20.545444     3A    -11.370431
       4A    -11.289739     5A    -11.225040     6A     -1.478823
       7A     -1.377528     8A     -1.053826     9A     -0.904540
      10A     -0.805031    11A     -0.742275    12A     -0.691618
      13A     -0.681517    14A     -0.596486    15A     -0.576726
      16A     -0.558175    17A     -0.524427    18A     -0.511356
      19A     -0.463880    20A     -0.457014

  @DF-RHF Final Energy:  -266.93129237158200

   => Energetics <=

    Nuclear Repulsion Energy =            179.5817992992861321
    One-Electron Energy =                -720.1075463466323754
    Two-Electron Energy =                 273.5944546757644957
    DFT Exchange-Correlation Energy =       0.0000000000000000
    Empirical Dispersion Energy =           0.0000000000000000
    PCM Polarization Energy =               0.0000000000000000
    EFP Energy =                            0.0000000000000000
    Total Energy =                       -266.9312923715817760
    Molecular point group: c1
  Basis Set: CC-PVTZ
  Basis Set:

  -Total Gradient:
     Atom            X                  Y                   Z
    ------   -----------------  -----------------  -----------------
       1        0.000033626660     0.000013633334    -0.000028480917
       2       -0.000086799521     0.000033917736     0.001369423280
       3        0.000236877767     0.000160948763    -0.001923861621
       4        0.000106783396    -0.000000808456    -0.000023365447
       5       -0.001381942380    -0.001074560314     0.000854600594
       6       -0.000025319879    -0.000008923461    -0.000008486668
       7        0.001131895158     0.000857043245    -0.000261768284
       8       -0.000015756838     0.000016298752     0.000007356269
       9       -0.000002850284    -0.000006167020     0.000004174485
      10        0.000004305253     0.000003784793     0.000001193962
      11       -0.000000819335     0.000004832629     0.000009214346

  **** Optimization is complete! (in 5 steps) ****
    Final optimized geometry and variables:
    Molecular point group: c1

    Geometry (in Angstrom), charge = 0, multiplicity = 1:

    H           -1.808121853254     1.407246687273    -0.090401116905
    C           -1.285358954438     0.456019337278    -0.108180979610
    O            0.010847165928     0.656720869100    -0.098078024685
    O           -1.827918606259    -0.589794241805    -0.134471278528
    C            0.872579231956    -0.478295777243    -0.085107958181
    C            2.223880980884    -0.028228423959     0.419707730611
    H            0.944863278674    -0.862019852066    -1.094081259624
    H            0.443936473778    -1.243645871204     0.542369644165
    H            2.632028568594     0.750844572094    -0.211452650402
    H            2.911062413140    -0.866024481294     0.417926264155
    H            2.150001080745     0.352777565017     1.430435540607

  Mulliken Charges: (a.u.)
   Center  Symbol    Alpha    Beta     Spin     Total
       1     H     0.44894  0.44894  0.00000  0.10213
       2     C     2.84459  2.84459  0.00000  0.31082
       3     O     4.14526  4.14526  0.00000 -0.29052
       4     O     4.19524  4.19524  0.00000 -0.39048
       5     C     2.97412  2.97412  0.00000  0.05177
       6     C     3.13264  3.13264  0.00000 -0.26527
       7     H     0.45502  0.45502  0.00000  0.08996
       8     H     0.44866  0.44866  0.00000  0.10267
       9     H     0.45031  0.45031  0.00000  0.09939
      10     H     0.45445  0.45445  0.00000  0.09109
      11     H     0.45078  0.45078  0.00000  0.09844

   Total alpha = 20.00000, Total beta = 20.00000, Total charge = -0.00000
