                              Psi4 1.0.54 Driver

  ==> Input File <==

--------------------------------------------------------------------------
set {
	reference rhf
	basis cc-pvtz
}

set_num_threads( 4 )
memory 2 gb

molecule MOL {
0 1

O	 -2.071633	 -1.227563	 -0.223463
C	 -1.652164	 -0.152425	 0.058082
C	 -0.327811	 0.006324	 0.778296
C	 -2.402515	 1.108629	 -0.298924
C	 0.843231	 -0.001575	 -0.211665
H	 -0.319484	 0.928173	 1.350354
H	 -0.227804	 -0.823091	 1.466705
C	 2.197693	 0.138030	 0.476937
H	 0.722944	 0.805202	 -0.930230
H	 0.813976	 -0.926978	 -0.776588
C	 3.369067	 -0.165147	 -0.451035
H	 2.299839	 1.145626	 0.870433
H	 2.232677	 -0.529550	 1.332888
H	 3.381475	 0.510048	 -1.300148
H	 3.311120	 -1.177663	 -0.835511
H	 4.315143	 -0.061537	 0.067237
H	 -3.240910	 0.874416	 -0.936711
H	 -1.747554	 1.818823	 -0.790984
H	 -2.760419	 1.579708	 0.610998

	symmetry c1
}
set optking {
	frozen_dihedral = ("
		11 8 5 9
	")
}

ee,wfn = optimize('scf', return_wfn=True)
oeprop( wfn, 'DIPOLE', 'QUADRUPOLE', 'MULLIKEN_CHARGES')
f=open( 'psi4out.xyz', 'w' )
f.write( "19  " )
f.write( str(ee) + "\n" )
f.write( MOL.save_string_xyz() )
f.close()
--------------------------------------------------------------------------

    Molecular point group: c1
  Charge       = 0
  Multiplicity = 1
  Basis Set: CC-PVTZ
  Basis Set:
  @DF-RHF Final Energy:  -309.17681613730753
    Total Energy =                       -309.1768161373079806
    Molecular point group: c1
  Basis Set: CC-PVTZ
  Basis Set:
  Basis Set: CC-PVTZ
  Basis Set:
  @DF-RHF Final Energy:  -309.16991332640538
    Total Energy =                       -309.1699133264054922
  Basis Set: CC-PVTZ
  Basis Set:
  Basis Set: CC-PVTZ
  Basis Set:
  @DF-RHF Final Energy:  -309.17677738230992
    Total Energy =                       -309.1767773823096377
  Basis Set: CC-PVTZ
  Basis Set:
  Basis Set: CC-PVTZ
  Basis Set:
  @DF-RHF Final Energy:  -309.16875175445523
    Total Energy =                       -309.1687517544546608
  Basis Set: CC-PVTZ
  Basis Set:
  @DF-RHF Final Energy:  -309.17646829456959
    Total Energy =                       -309.1764682945695313
  @DF-RHF Final Energy:  -309.17677443538486
    Total Energy =                       -309.1767744353846865
  Basis Set: CC-PVTZ
  Basis Set:
  @DF-RHF Final Energy:  -309.17679981941842
    Total Energy =                       -309.1767998194183065
  Basis Set: CC-PVTZ
  Basis Set:
  Basis Set: CC-PVTZ
  Basis Set:
  @DF-RHF Final Energy:  -309.17687503869513
    Total Energy =                       -309.1768750386947886
  Basis Set: CC-PVTZ
  Basis Set:
  Basis Set: CC-PVTZ
  Basis Set:
  @DF-RHF Final Energy:  -309.17688691198464
    Total Energy =                       -309.1768869119842975
  Basis Set: CC-PVTZ
  Basis Set:
  Charge       = 0
  Multiplicity = 1
  Basis Set: CC-PVTZ
  Basis Set:

    Orbital Energies (a.u.)
    -----------------------

    Doubly Occupied:

       1A    -20.536903     2A    -11.319360     3A    -11.228880
       4A    -11.227765     5A    -11.226981     6A    -11.223103
       7A    -11.212998     8A     -1.397113     9A     -1.092850
      10A     -1.030412    11A     -0.984678    12A     -0.890878
      13A     -0.807377    14A     -0.734639    15A     -0.664569
      16A     -0.649102    17A     -0.624265    18A     -0.615103
      19A     -0.582812    20A     -0.576783    21A     -0.551778
      22A     -0.538089    23A     -0.516329    24A     -0.499757
      25A     -0.482770    26A     -0.477555    27A     -0.469615
      28A     -0.399138

  @DF-RHF Final Energy:  -309.17688780446548

   => Energetics <=

    Nuclear Repulsion Energy =            301.8728163143240977
    One-Electron Energy =               -1016.9762185633539957
    Two-Electron Energy =                 405.9265144445645319
    DFT Exchange-Correlation Energy =       0.0000000000000000
    Empirical Dispersion Energy =           0.0000000000000000
    PCM Polarization Energy =               0.0000000000000000
    EFP Energy =                            0.0000000000000000
    Total Energy =                       -309.1768878044653093
    Molecular point group: c1
  Basis Set: CC-PVTZ
  Basis Set:

  -Total Gradient:
     Atom            X                  Y                   Z
    ------   -----------------  -----------------  -----------------
       1        0.000096695797     0.000265836917    -0.000036171584
       2       -0.000064421337    -0.000227710156    -0.000058825924
       3        0.000023065777    -0.000000717632     0.000022830206
       4       -0.000009515319     0.000023456094     0.000064318769
       5        0.000657158376    -0.002818388821    -0.001056412870
       6        0.000013475730    -0.000075314254    -0.000012021408
       7       -0.000012930517     0.000020589676    -0.000037665647
       8       -0.000038575313     0.002298470625    -0.001116650934
       9       -0.000606748513     0.001882671416     0.001177414458
      10        0.000028720676     0.000072130535     0.000031531373
      11       -0.000064121265    -0.001374992960     0.001014522962
      12       -0.000030095881    -0.000063433594    -0.000018176450
      13        0.000022491550     0.000021781952    -0.000024533138
      14        0.000003588739    -0.000010075241     0.000061476768
      15        0.000015151791     0.000079965752    -0.000006828875
      16       -0.000038315270    -0.000021831151    -0.000011296288
      17        0.000030693599     0.000013430877     0.000010828608
      18       -0.000030342699    -0.000046405810     0.000059125936
      19        0.000004024077    -0.000039464228    -0.000063465958

  **** Optimization is complete! (in 10 steps) ****
    Final optimized geometry and variables:
    Molecular point group: c1

    Geometry (in Angstrom), charge = 0, multiplicity = 1:

    O           -2.167922260744    -0.906189224565     0.527211284479
    C           -1.619890823392     0.129272297349     0.331211846564
    C           -0.177036054166     0.340631533175     0.744394006263
    C           -2.321827973475     1.279418309664    -0.350744778401
    C            0.786619655832    -0.171645003662    -0.334099861151
    H            0.009242549544     1.392695255984     0.933594102897
    H           -0.016303829699    -0.205063683894     1.665110250376
    C            2.251123060923     0.049752893597     0.037901289423
    H            0.575784206720     0.338721644675    -1.270260906555
    H            0.598649365094    -1.226954645616    -0.494775393860
    C            3.216577696359    -0.688862622835    -0.882776484844
    H            2.470221875170     1.113321288040     0.026428459413
    H            2.413200958737    -0.284364007256     1.058680470591
    H            3.092939825697    -0.378357172267    -1.915098087049
    H            3.051564632445    -1.759520111681    -0.838581040461
    H            4.246185735817    -0.499751034195    -0.602595268601
    H           -3.278130217009     0.957178230065    -0.732957289765
    H           -1.714489342716     1.677732445927    -1.155509350779
    H           -2.470179549866     2.080881062691     0.365795769577

  Mulliken Charges: (a.u.)
   Center  Symbol    Alpha    Beta     Spin     Total
       1     O     4.17760  4.17760  0.00000 -0.35520
       2     C     2.85817  2.85817  0.00000  0.28367
       3     C     3.09863  3.09863  0.00000 -0.19726
       4     C     3.15503  3.15503  0.00000 -0.31005
       5     C     3.09715  3.09715  0.00000 -0.19430
       6     H     0.44956  0.44956  0.00000  0.10089
       7     H     0.43899  0.43899  0.00000  0.12201
       8     C     3.08629  3.08629  0.00000 -0.17258
       9     H     0.45213  0.45213  0.00000  0.09574
      10     H     0.44150  0.44150  0.00000  0.11700
      11     C     3.14877  3.14877  0.00000 -0.29754
      12     H     0.45279  0.45279  0.00000  0.09442
      13     H     0.45298  0.45298  0.00000  0.09404
      14     H     0.45495  0.45495  0.00000  0.09010
      15     H     0.45252  0.45252  0.00000  0.09497
      16     H     0.44765  0.44765  0.00000  0.10470
      17     H     0.43602  0.43602  0.00000  0.12795
      18     H     0.45099  0.45099  0.00000  0.09803
      19     H     0.44829  0.44829  0.00000  0.10341

   Total alpha = 28.00000, Total beta = 28.00000, Total charge =  0.00000

*** Psi4 exiting successfully. Buy a developer a beer!
