                              Psi4 1.0.54 Driver

  ==> Input File <==

--------------------------------------------------------------------------
set {
	reference rhf
	basis cc-pvtz
}

set_num_threads( 4 )
memory 2 gb

molecule MOL {
0 1

O	 -1.148708	 2.189399	 -2.507550
C	 -1.363058	 1.430129	 -1.619296
C	 -0.531816	 0.174259	 -1.446451
C	 -2.456289	 1.682397	 -0.608370
C	 0.762352	 0.471935	 -0.678753
H	 -0.290844	 -0.197717	 -2.434215
H	 -1.103236	 -0.586435	 -0.925214
C	 1.630207	 -0.772146	 -0.501001
H	 1.305732	 1.240219	 -1.214202
H	 0.522293	 0.881917	 0.299298
C	 2.907848	 -0.545876	 0.309149
H	 1.891250	 -1.167603	 -1.479494
H	 1.040969	 -1.541409	 -0.009434
C	 3.373802	 0.906639	 0.372125
H	 3.699140	 -1.146831	 -0.127906
H	 2.764321	 -0.923458	 1.318191
H	 3.519798	 1.311927	 -0.623875
H	 4.316899	 0.983758	 0.900700
H	 2.661122	 1.540651	 0.885346
H	 -3.237533	 0.939678	 -0.734953
H	 -2.871202	 2.668843	 -0.747448
H	 -2.075641	 1.577707	 0.401450

	symmetry c1
}
set optking {
	frozen_dihedral = ("
		12 8 11 15
	")
}

ee,wfn = optimize('scf', return_wfn=True)
oeprop( wfn, 'DIPOLE', 'QUADRUPOLE', 'MULLIKEN_CHARGES')
f=open( 'psi4out.xyz', 'w' )
f.write( "22  " )
f.write( str(ee) + "\n" )
f.write( MOL.save_string_xyz() )
f.close()
--------------------------------------------------------------------------

    Molecular point group: c1
  Charge       = 0
  Multiplicity = 1
  Basis Set: CC-PVTZ
  Basis Set:
  @DF-RHF Final Energy:  -348.21611083224684
    Total Energy =                       -348.2161108322469545
    Molecular point group: c1
  Basis Set: CC-PVTZ
  Basis Set:
  Basis Set: CC-PVTZ
  Basis Set:
  @DF-RHF Final Energy:  -348.20578767325628
    Total Energy =                       -348.2057876732563955
  Basis Set: CC-PVTZ
  Basis Set:
  Basis Set: CC-PVTZ
  Basis Set:
  @DF-RHF Final Energy:  -348.21713857224273
    Total Energy =                       -348.2171385722427317
  Basis Set: CC-PVTZ
  Basis Set:
  Basis Set: CC-PVTZ
  Basis Set:
  @DF-RHF Final Energy:  -348.21748838327312
    Total Energy =                       -348.2174883832725527
  Basis Set: CC-PVTZ
  Basis Set:
  @DF-RHF Final Energy:  -348.21733254486878
    Total Energy =                       -348.2173325448687820
  @DF-RHF Final Energy:  -348.21732284397785
    Total Energy =                       -348.2173228439776835
  @DF-RHF Final Energy:  -348.21750985823599
    Total Energy =                       -348.2175098582360988
  Basis Set: CC-PVTZ
  Basis Set:
  @DF-RHF Final Energy:  -348.21744566856131
    Total Energy =                       -348.2174456685613677
  Basis Set: CC-PVTZ
  Basis Set:
  Basis Set: CC-PVTZ
  Basis Set:
  @DF-RHF Final Energy:  -348.21751533603356
    Total Energy =                       -348.2175153360337276
  Basis Set: CC-PVTZ
  Basis Set:
  Basis Set: CC-PVTZ
  Basis Set:
  @DF-RHF Final Energy:  -348.21751955809754
    Total Energy =                       -348.2175195580974787
  Basis Set: CC-PVTZ
  Basis Set:
  Charge       = 0
  Multiplicity = 1
  Basis Set: CC-PVTZ
  Basis Set:

    Orbital Energies (a.u.)
    -----------------------

    Doubly Occupied:

       1A    -20.536707     2A    -11.319200     3A    -11.228195
       4A    -11.227413     5A    -11.226887     6A    -11.220638
       7A    -11.219373     8A    -11.209565     9A     -1.396811
      10A     -1.095880    11A     -1.044088    12A     -0.999965
      13A     -0.938422    14A     -0.863980    15A     -0.780384
      16A     -0.734479    17A     -0.665756    18A     -0.647682
      19A     -0.631797    20A     -0.617911    21A     -0.594496
      22A     -0.588564    23A     -0.561762    24A     -0.539470
      25A     -0.534059    26A     -0.526860    27A     -0.500551
      28A     -0.490859    29A     -0.468363    30A     -0.464098
      31A     -0.457406    32A     -0.398549

  @DF-RHF Final Energy:  -348.21751990743439

   => Energetics <=

    Nuclear Repulsion Energy =            374.6531820886174273
    One-Electron Energy =               -1214.2810599314007050
    Two-Electron Energy =                 491.4103579353485998
    DFT Exchange-Correlation Energy =       0.0000000000000000
    Empirical Dispersion Energy =           0.0000000000000000
    PCM Polarization Energy =               0.0000000000000000
    EFP Energy =                            0.0000000000000000
    Total Energy =                       -348.2175199074346779
    Molecular point group: c1
  Basis Set: CC-PVTZ
  Basis Set:

  -Total Gradient:
     Atom            X                  Y                   Z
    ------   -----------------  -----------------  -----------------
       1        0.000011180264     0.000004323233    -0.000005223165
       2       -0.000010912133     0.000003637694     0.000003872931
       3        0.000006431588     0.000003067573     0.000009726776
       4       -0.000012600972    -0.000005580364    -0.000008088696
       5       -0.000009680181     0.000007009539    -0.000007584876
       6        0.000001391847    -0.000003557037    -0.000002396148
       7        0.000001407354    -0.000000696191    -0.000000462632
       8        0.000880218781     0.006875367495    -0.005090617844
       9       -0.000000148169     0.000000027066     0.000000077353
      10       -0.000007316081    -0.000002394732    -0.000003213645
      11       -0.001825546171    -0.005498923499     0.006286683804
      12       -0.000455306485    -0.004945512370     0.003332774668
      13        0.000008580723     0.000002765850     0.000000566333
      14       -0.000013424217    -0.000002388027    -0.000000725514
      15        0.001415169768     0.003556774112    -0.004525956350
      16       -0.000004013758    -0.000002297371    -0.000000768347
      17       -0.000002174841     0.000001940822    -0.000007235688
      18        0.000007313920    -0.000007911831     0.000003688326
      19       -0.000000598579     0.000012866841     0.000004236023
      20        0.000000335796    -0.000000962884     0.000004873599
      21        0.000003538715    -0.000000068899    -0.000001031312
      22        0.000006152832     0.000002512984     0.000006804408

  **** Optimization is complete! (in 11 steps) ****
    Final optimized geometry and variables:
    Molecular point group: c1

    Geometry (in Angstrom), charge = 0, multiplicity = 1:

    O           -1.709977325672     1.120391838696    -1.833977189388
    C           -1.849770708514     0.548638310514    -0.802050678568
    C           -0.973200398499    -0.633109249261    -0.437658874697
    C           -2.890864739467     0.976143727017     0.204983679488
    C            0.350194313034    -0.166162673061     0.181788364750
    H           -0.773518802797    -1.185618811394    -1.346963457347
    H           -1.493476952543    -1.288349952242     0.252830603703
    C            1.255584030128    -1.341569403067     0.537826368336
    H            0.840107982929     0.495807854574    -0.520517018765
    H            0.147041111636     0.419481092330     1.074430221399
    C            2.599079296861    -1.005600504660     1.222096401832
    H            1.440238487516    -1.950523149481    -0.341905774278
    H            0.702702222333    -2.000348891140     1.202846879948
    C            3.178179947282     0.377333781174     0.916791069764
    H            3.336481981874    -1.726158767292     0.886146050337
    H            2.502475637003    -1.114958501841     2.296213169999
    H            3.326875729212     0.520093580961    -0.148021572393
    H            4.142569660320     0.489966728794     1.398712086557
    H            2.541374679969     1.178233225783     1.272015184755
    H           -3.656767186827     0.210107415860     0.272561580689
    H           -3.340575277185     1.909045535778    -0.098323006228
    H           -2.451847381589     1.077767754606     1.191131602214

  Mulliken Charges: (a.u.)
   Center  Symbol    Alpha    Beta     Spin     Total
       1     O     4.17819  4.17819  0.00000 -0.35637
       2     C     2.85834  2.85834  0.00000  0.28333
       3     C     3.09814  3.09814  0.00000 -0.19629
       4     C     3.15527  3.15527  0.00000 -0.31054
       5     C     3.10410  3.10410  0.00000 -0.20821
       6     H     0.43895  0.43895  0.00000  0.12209
       7     H     0.44848  0.44848  0.00000  0.10303
       8     C     3.09883  3.09883  0.00000 -0.19766
       9     H     0.43703  0.43703  0.00000  0.12594
      10     H     0.45095  0.45095  0.00000  0.09811
      11     C     3.08840  3.08840  0.00000 -0.17681
      12     H     0.44858  0.44858  0.00000  0.10285
      13     H     0.45225  0.45225  0.00000  0.09551
      14     C     3.15735  3.15735  0.00000 -0.31470
      15     H     0.44997  0.44997  0.00000  0.10005
      16     H     0.45112  0.45112  0.00000  0.09777
      17     H     0.45137  0.45137  0.00000  0.09727
      18     H     0.44455  0.44455  0.00000  0.11091
      19     H     0.45295  0.45295  0.00000  0.09410
      20     H     0.44835  0.44835  0.00000  0.10331
      21     H     0.43604  0.43604  0.00000  0.12792
      22     H     0.45080  0.45080  0.00000  0.09840

   Total alpha = 32.00000, Total beta = 32.00000, Total charge = -0.00000

*** Psi4 exiting successfully. Buy a developer a beer!
