  ==> Input File <==

--------------------------------------------------------------------------
set {
	reference rhf
	basis cc-pvtz
}

set_num_threads( 4 )
memory 2 gb

molecule MOL {
0 1

H	 -1.088256	 -1.364742	 0.152233
O	 -1.432053	 -0.565244	 -0.200812
C	 -0.727158	 0.534527	 0.310686
C	 0.680222	 0.664433	 -0.252229
H	 -1.306802	 1.408001	 0.044211
H	 -0.690821	 0.490158	 1.397609
C	 1.158466	 -0.568896	 -1.012642
H	 0.714298	 1.532182	 -0.902676
H	 1.355265	 0.862401	 0.575886
H	 0.542482	 -0.763377	 -1.883770
H	 2.175169	 -0.438664	 -1.363225
H	 1.138390	 -1.452428	 -0.381829

	symmetry c1
}
set optking {
	frozen_dihedral = ("
		8 4 3 2
	")
}

ee = optimize('scf')
oeprop('DIPOLE', 'QUADRUPOLE', 'MULLIKEN_CHARGES')
f=open( 'psi4out.xyz', 'w' )
f.write( "12  " )
f.write( str(ee) + "\n" )
f.write( MOL.save_string_xyz() )
f.close()
--------------------------------------------------------------------------

    Molecular point group: c1
  Charge       = 0
  Multiplicity = 1
  Basis Set: CC-PVTZ
  Basis Set:
  @DF-RHF Final Energy:  -193.18193865860840
    Total Energy =                       -193.1819386586083738
    Molecular point group: c1
  Basis Set: CC-PVTZ
  Basis Set:
  Basis Set: CC-PVTZ
  Basis Set:
  @DF-RHF Final Energy:  -193.18257426379591
    Total Energy =                       -193.1825742637959138
  Basis Set: CC-PVTZ
  Basis Set:
  Basis Set: CC-PVTZ
  Basis Set:
  @DF-RHF Final Energy:  -193.18307289415364
    Total Energy =                       -193.1830728941535540
  Basis Set: CC-PVTZ
  Basis Set:
  Basis Set: CC-PVTZ
  Basis Set:
  @DF-RHF Final Energy:  -193.18308220765044
    Total Energy =                       -193.1830822076505569
  Basis Set: CC-PVTZ
  Basis Set:
  Basis Set: CC-PVTZ
  Basis Set:
  @DF-RHF Final Energy:  -193.18308547971128
    Total Energy =                       -193.1830854797111670
  Basis Set: CC-PVTZ
  Basis Set:
  Charge       = 0
  Multiplicity = 1
  Basis Set: CC-PVTZ
  Basis Set:

    Orbital Energies (a.u.)
    -----------------------

    Doubly Occupied:

       1A    -20.545834     2A    -11.266521     3A    -11.217158
       4A    -11.211631     5A     -1.364080     6A     -1.045505
       7A     -0.928461     8A     -0.808091     9A     -0.693508
      10A     -0.631268    11A     -0.620625    12A     -0.581119
      13A     -0.528957    14A     -0.512639    15A     -0.500014
      16A     -0.457104    17A     -0.431430

  @DF-RHF Final Energy:  -193.18308565700661

   => Energetics <=

    Nuclear Repulsion Energy =            133.4289236506048439
    One-Electron Energy =                -526.5361282862395456
    Two-Electron Energy =                 199.9241189786283712
    DFT Exchange-Correlation Energy =       0.0000000000000000
    Empirical Dispersion Energy =           0.0000000000000000
    PCM Polarization Energy =               0.0000000000000000
    EFP Energy =                            0.0000000000000000
    Total Energy =                       -193.1830856570063588
    Molecular point group: c1
  Basis Set: CC-PVTZ
  Basis Set:

  -Total Gradient:
     Atom            X                  Y                   Z
    ------   -----------------  -----------------  -----------------
       1       -0.000015399846    -0.000025827562    -0.000006742950
       2        0.001030960346    -0.001740593691     0.002131983956
       3       -0.001175968668     0.002863826436    -0.002315116887
       4       -0.000834816504    -0.003147890783    -0.002634495722
       5        0.000018184638     0.000028456705     0.000012550428
       6        0.000011924671    -0.000004609270    -0.000009958085
       7       -0.000002176075    -0.000001900883    -0.000011040420
       8        0.000963977054     0.002024245709     0.002817326299
       9        0.000012086432     0.000007048338     0.000008662997
      10        0.000002755953     0.000002306745     0.000001587777
      11       -0.000004646823    -0.000004313824     0.000001290450
      12       -0.000006881181    -0.000000747919     0.000003952157

  **** Optimization is complete! (in 6 steps) ****
    Final optimized geometry and variables:
    Molecular point group: c1

    Geometry (in Angstrom), charge = 0, multiplicity = 1:

    H           -1.025699925301    -1.336580844070     0.418205119094
    O           -1.372578999218    -0.523922894733     0.100966115553
    C           -0.619823917145     0.550976215144     0.596397688291
    C            0.807710493605     0.670440185666     0.015116899558
    H           -1.188557508192     1.439318780507     0.363383717930
    H           -0.565973240830     0.484865536336     1.679427411692
    C            1.312283511246    -0.556911889553    -0.736516347520
    H            0.862777514079     1.541088152133    -0.629081166117
    H            1.489066963907     0.882058784053     0.833613291127
    H            0.684363968559    -0.788774090010    -1.585879464421
    H            2.319668562976    -0.385067555199    -1.096476852907
    H            1.345910207718    -1.434013597944    -0.097223041944

  Mulliken Charges: (a.u.)
   Center  Symbol    Alpha    Beta     Spin     Total
       1     H     0.39150  0.39150  0.00000  0.21699
       2     O     4.20233  4.20233  0.00000 -0.40465
       3     C     2.97488  2.97488  0.00000  0.05025
       4     C     3.09654  3.09654  0.00000 -0.19309
       5     H     0.45391  0.45391  0.00000  0.09218
       6     H     0.46811  0.46811  0.00000  0.06377
       7     C     3.15203  3.15203  0.00000 -0.30406
       8     H     0.45224  0.45224  0.00000  0.09551
       9     H     0.45502  0.45502  0.00000  0.08996
      10     H     0.44285  0.44285  0.00000  0.11431
      11     H     0.44792  0.44792  0.00000  0.10416
      12     H     0.46266  0.46266  0.00000  0.07468

   Total alpha = 17.00000, Total beta = 17.00000, Total charge =  0.00000
