  ==> Input File <==

--------------------------------------------------------------------------
set {
	reference rhf
	basis cc-pvtz
}

set_num_threads( 4 )
memory 2 gb

molecule MOL {
0 1

H	 1.300034	 -1.004607	 0.773942
C	 0.788096	 -0.429819	 0.000000
N	 -0.537714	 -0.645117	 0.000000
O	 1.379041	 0.293402	 -0.737871
C	 -1.522613	 0.412524	 0.000000
H	 -0.845894	 -1.585866	 0.000000
H	 -2.150256	 0.356137	 -0.880771
H	 -1.005621	 1.357208	 0.000000
H	 -2.150256	 0.356137	 0.880771

	symmetry c1
}
set optking {
	frozen_dihedral = ("
		1 2 3 6
	")
}

ee = optimize('scf')
oeprop('DIPOLE', 'QUADRUPOLE', 'MULLIKEN_CHARGES')
f=open( 'psi4out.xyz', 'w' )
f.write( "9  " )
f.write( str(ee) + "\n" )
f.write( MOL.save_string_xyz() )
f.close()
--------------------------------------------------------------------------

    Molecular point group: c1
  Charge       = 0
  Multiplicity = 1
  Basis Set: CC-PVTZ
  Basis Set:
  @DF-RHF Final Energy:  -208.01926136827336
    Total Energy =                       -208.0192613682733054
    Molecular point group: c1
  Basis Set: CC-PVTZ
  Basis Set:
  Basis Set: CC-PVTZ
  Basis Set:
  @DF-RHF Final Energy:  -208.02585529393241
    Total Energy =                       -208.0258552939322385
  Basis Set: CC-PVTZ
  Basis Set:
  Basis Set: CC-PVTZ
  Basis Set:
  @DF-RHF Final Energy:  -208.03148117632475
    Total Energy =                       -208.0314811763248599
  Basis Set: CC-PVTZ
  Basis Set:
  Basis Set: CC-PVTZ
  Basis Set:
  @DF-RHF Final Energy:  -208.03590621056696
    Total Energy =                       -208.0359062105669636
  Basis Set: CC-PVTZ
  Basis Set:
  @DF-RHF Final Energy:  -208.03663024000815
    Total Energy =                       -208.0366302400080940
  @DF-RHF Final Energy:  -208.03676817447334
    Total Energy =                       -208.0367681744734796
  @DF-RHF Final Energy:  -208.03686232726307
    Total Energy =                       -208.0368623272630657
  @DF-RHF Final Energy:  -208.03669483819695
    Total Energy =                       -208.0366948381969223
  @DF-RHF Final Energy:  -208.03697795260507
    Total Energy =                       -208.0369779526050138
  @DF-RHF Final Energy:  -208.03706627976038
    Total Energy =                       -208.0370662797602677
  @DF-RHF Final Energy:  -208.03729223870354
    Total Energy =                       -208.0372922387035715
  @DF-RHF Final Energy:  -208.03748044396443
    Total Energy =                       -208.0374804439644549
  Basis Set: CC-PVTZ
  Basis Set:
  @DF-RHF Final Energy:  -208.03767912099767
    Total Energy =                       -208.0376791209977227
  Basis Set: CC-PVTZ
  Basis Set:
  Basis Set: CC-PVTZ
  Basis Set:
  @DF-RHF Final Energy:  -208.03768794196128
    Total Energy =                       -208.0376879419612806
  Basis Set: CC-PVTZ
  Basis Set:
  Basis Set: CC-PVTZ
  Basis Set:
  @DF-RHF Final Energy:  -208.03768909425054
    Total Energy =                       -208.0376890942503678
  Basis Set: CC-PVTZ
  Basis Set:
  Charge       = 0
  Multiplicity = 1
  Basis Set: CC-PVTZ
  Basis Set:

    Orbital Energies (a.u.)
    -----------------------

    Doubly Occupied:

       1A    -20.533343     2A    -15.581332     3A    -11.341155
       4A    -11.254560     5A     -1.407169     6A     -1.235902
       7A     -0.959857     8A     -0.806367     9A     -0.740466
      10A     -0.650609    11A     -0.642049    12A     -0.581432
      13A     -0.552136    14A     -0.537572    15A     -0.438487
      16A     -0.409175

  @DF-RHF Final Energy:  -208.03768897326802

   => Energetics <=

    Nuclear Repulsion Energy =            123.0446048313492611
    One-Electron Energy =                -526.8213639476377921
    Two-Electron Energy =                 195.7390701430205127
    DFT Exchange-Correlation Energy =       0.0000000000000000
    Empirical Dispersion Energy =           0.0000000000000000
    PCM Polarization Energy =               0.0000000000000000
    EFP Energy =                            0.0000000000000000
    Total Energy =                       -208.0376889732680183
    Molecular point group: c1
  Basis Set: CC-PVTZ
  Basis Set:

  -Total Gradient:
     Atom            X                  Y                   Z
    ------   -----------------  -----------------  -----------------
       1        0.002317190474     0.005718939137     0.006672867539
       2       -0.004195988546    -0.006906432725    -0.011451743917
       3        0.005349996401    -0.000725772440     0.013874748767
       4        0.000050538206     0.000010488310     0.000029501324
       5        0.000078401567     0.000136211862    -0.000112027796
       6       -0.003637279680     0.001770665547    -0.009045536538
       7        0.000024439755    -0.000042202582     0.000038491477
       8        0.000002233454     0.000042671686    -0.000000857256
       9        0.000010468370    -0.000004568795    -0.000005443600

  **** Optimization is complete! (in 16 steps) ****
    Final optimized geometry and variables:
    Molecular point group: c1

    Geometry (in Angstrom), charge = 0, multiplicity = 1:

    H            1.464721116632    -1.183997155795     0.447578317936
    C            0.789803204368    -0.431450090933     0.036529741006
    N           -0.474614791639    -0.517457958101     0.552378915771
    O            1.181821192604     0.438379932407    -0.666847320869
    C           -1.438602959082     0.483669072970     0.120687237577
    H           -0.843602840476    -1.442554112918     0.516104612819
    H           -1.627351333930     0.451305701741    -0.946167557664
    H           -1.065703078180     1.465770978292     0.365895243922
    H           -2.364812130203     0.320046582747     0.653038517639

  Mulliken Charges: (a.u.)
   Center  Symbol    Alpha    Beta     Spin     Total
       1     H     0.45625  0.45625  0.00000  0.08750
       2     C     2.88336  2.88336  0.00000  0.23329
       3     N     3.60458  3.60458  0.00000 -0.20915
       4     O     4.19705  4.19705  0.00000 -0.39410
       5     C     3.08222  3.08222  0.00000 -0.16444
       6     H     0.42601  0.42601  0.00000  0.14797
       7     H     0.45599  0.45599  0.00000  0.08802
       8     H     0.44248  0.44248  0.00000  0.11504
       9     H     0.45206  0.45206  0.00000  0.09587

   Total alpha = 16.00000, Total beta = 16.00000, Total charge =  0.00000
