  ==> Input File <==

--------------------------------------------------------------------------
set {
	reference rhf
	basis 6-31G*
}

set_num_threads( 4 )
memory 2 gb

molecule MOL {
0 1

O	 0.749854	 1.307668	 -0.000040
C	 0.576249	 0.131685	 -0.000108
C	 -0.766779	 -0.556801	 -0.000461
O	 1.568443	 -0.749345	 -0.000005
C	 -1.945214	 0.412366	 0.000161
H	 -0.796911	 -1.211249	 -0.867467
H	 -0.796854	 -1.212390	 0.865687
C	 -1.526518	 1.824261	 0.407365
H	 -2.711008	 0.044389	 0.674515
H	 -2.394757	 0.429895	 -0.986844
H	 -1.101192	 1.838130	 1.407044
H	 -2.377830	 2.497046	 0.402030
H	 -0.782311	 2.228331	 -0.273339
C	 2.886820	 -0.232538	 0.000322
H	 3.059106	 0.369571	 -0.880203
H	 3.540187	 -1.091012	 0.000050
H	 3.059019	 0.368956	 0.881266

	symmetry c1
}
set optking {
	frozen_dihedral = ("
		9 5 3 6
	")
}

ee = optimize('scf')
oeprop('DIPOLE', 'QUADRUPOLE', 'MULLIKEN_CHARGES')
f=open( 'psi4out.xyz', 'w' )
f.write( "17  " )
f.write( str(ee) + "\n" )
f.write( MOL.save_string_xyz() )
f.close()
--------------------------------------------------------------------------

    Molecular point group: c1
  Charge       = 0
  Multiplicity = 1
  Basis Set: 6-31G*
  Basis Set:
  @DF-RHF Final Energy:  -344.87163133792882
    Total Energy =                       -344.8716313379286476
    Molecular point group: c1
  Basis Set: 6-31G*
  Basis Set:
  Basis Set: 6-31G*
  Basis Set:
  @DF-RHF Final Energy:  -344.89045406764490
    Total Energy =                       -344.8904540676447255
  Basis Set: 6-31G*
  Basis Set:
  Basis Set: 6-31G*
  Basis Set:
  @DF-RHF Final Energy:  -344.89378454811515
    Total Energy =                       -344.8937845481152635
  Basis Set: 6-31G*
  Basis Set:
  Basis Set: 6-31G*
  Basis Set:
  @DF-RHF Final Energy:  -344.88917605592792
    Total Energy =                       -344.8891760559279192
  Basis Set: 6-31G*
  Basis Set:
  @DF-RHF Final Energy:  -344.89549358519037
    Total Energy =                       -344.8954935851900245
  @DF-RHF Final Energy:  -344.89601604178500
    Total Energy =                       -344.8960160417850602
  @DF-RHF Final Energy:  -344.89686912531221
    Total Energy =                       -344.8968691253123779
  @DF-RHF Final Energy:  -344.89745348692020
    Total Energy =                       -344.8974534869203126
  @DF-RHF Final Energy:  -344.89797828625717
    Total Energy =                       -344.8979782862571710
  @DF-RHF Final Energy:  -344.89827710703923
    Total Energy =                       -344.8982771070393483
  @DF-RHF Final Energy:  -344.89844623565028
    Total Energy =                       -344.8984462356501126
  @DF-RHF Final Energy:  -344.89864281918159
    Total Energy =                       -344.8986428191814184
  @DF-RHF Final Energy:  -344.89878232223271
    Total Energy =                       -344.8987823222322504
  @DF-RHF Final Energy:  -344.89881000659261
    Total Energy =                       -344.8988100065926119
  Basis Set: 6-31G*
  Basis Set:
  @DF-RHF Final Energy:  -344.89873193927133
    Total Energy =                       -344.8987319392713289
  Basis Set: 6-31G*
  Basis Set:
  Basis Set: 6-31G*
  Basis Set:
  @DF-RHF Final Energy:  -344.89886352610205
    Total Energy =                       -344.8988635261023319
  Basis Set: 6-31G*
  Basis Set:
  Basis Set: 6-31G*
  Basis Set:
  @DF-RHF Final Energy:  -344.89886661224085
    Total Energy =                       -344.8988666122410223
  Basis Set: 6-31G*
  Basis Set:
  Charge       = 0
  Multiplicity = 1
  Basis Set: 6-31G*
  Basis Set:

    Orbital Energies (a.u.)
    -----------------------

    Doubly Occupied:

       1A    -20.605587     2A    -20.542167     3A    -11.371031
       4A    -11.280771     5A    -11.234254     6A    -11.232879
       7A    -11.214344     8A     -1.469264     9A     -1.361106
      10A     -1.079036    11A     -0.996861    12A     -0.943588
      13A     -0.834640    14A     -0.768515    15A     -0.690206
      16A     -0.679320    17A     -0.672404    18A     -0.633091
      19A     -0.607333    20A     -0.578211    21A     -0.555700
      22A     -0.538779    23A     -0.526563    24A     -0.499445
      25A     -0.484341    26A     -0.481053    27A     -0.453972
      28A     -0.431796

  @DF-RHF Final Energy:  -344.89886707464052

   => Energetics <=

    Nuclear Repulsion Energy =            322.5624374384481143
    One-Electron Energy =               -1109.3900942536365619
    Two-Electron Energy =                 441.9287897405479271
    DFT Exchange-Correlation Energy =       0.0000000000000000
    Empirical Dispersion Energy =           0.0000000000000000
    PCM Polarization Energy =               0.0000000000000000
    EFP Energy =                            0.0000000000000000
    Total Energy =                       -344.8988670746405205
    Molecular point group: c1
  Basis Set: 6-31G*
  Basis Set:

  -Total Gradient:
     Atom            X                  Y                   Z
    ------   -----------------  -----------------  -----------------
       1       -0.000049879587    -0.000036842148    -0.000013155426
       2        0.000011822705     0.000072424763     0.000031579015
       3       -0.002789675252    -0.003955253723     0.003287964011
       4        0.000067737390    -0.000002191736     0.000030847694
       5       -0.002867189212    -0.000478638732    -0.004929506816
       6        0.002775356865     0.003390224846    -0.002065210034
       7        0.000002613766    -0.000002114847    -0.000001833032
       8        0.000010406612     0.000007545621    -0.000014008311
       9        0.002897384472     0.001047306547     0.003655342047
      10       -0.000005038066    -0.000002436513     0.000005754588
      11       -0.000002900786    -0.000001663351     0.000024878273
      12        0.000006522787     0.000001647928    -0.000002309982
      13       -0.000007566105    -0.000015144454     0.000001728572
      14       -0.000044233125    -0.000030078728    -0.000017605822
      15        0.000007239665     0.000001539514    -0.000000887983
      16       -0.000007688004    -0.000002163736     0.000006001006
      17       -0.000004914128     0.000005838746     0.000000422206

  **** Optimization is complete! (in 18 steps) ****
    Final optimized geometry and variables:
    Molecular point group: c1

    Geometry (in Angstrom), charge = 0, multiplicity = 1:

    O            0.672458915857     0.248461552690    -1.431196544028
    C            0.291902738636    -0.347981451937    -0.474402734288
    C           -1.118306403206    -0.859696984227    -0.293448343994
    O            1.070423257640    -0.625990899300     0.562290582671
    C           -2.111104897144     0.239625937310     0.176281704506
    H           -1.412163785512    -1.214543951732    -1.273209528976
    H           -1.104389480595    -1.688211884115     0.401079271755
    C           -1.479406310700     1.429346400576     0.906297926992
    H           -2.813103896279    -0.222714002833     0.861990952062
    H           -2.673376201702     0.602811315245    -0.675377999978
    H           -0.920207199020     1.107382315301     1.779065945472
    H           -2.253727845290     2.111615450408     1.241716801731
    H           -0.808986993149     1.985347059375     0.260101552426
    C            2.409166100899    -0.168138931099     0.500161751594
    H            2.918072563580    -0.598668300625    -0.350032596257
    H            2.874398755942    -0.491159232928     1.418384365415
    H            2.438599872510     0.909259915908     0.423690137228

  Mulliken Charges: (a.u.)
   Center  Symbol    Alpha    Beta     Spin     Total
       1     O     4.28574  4.28574  0.00000 -0.57148
       2     C     2.61856  2.61856  0.00000  0.76288
       3     C     3.19868  3.19868  0.00000 -0.39736
       4     O     4.30208  4.30208  0.00000 -0.60417
       5     C     3.15421  3.15421  0.00000 -0.30842
       6     H     0.39836  0.39836  0.00000  0.20328
       7     H     0.40160  0.40160  0.00000  0.19681
       8     C     3.25726  3.25726  0.00000 -0.51453
       9     H     0.41478  0.41478  0.00000  0.17044
      10     H     0.41037  0.41037  0.00000  0.17926
      11     H     0.41439  0.41439  0.00000  0.17123
      12     H     0.41520  0.41520  0.00000  0.16960
      13     H     0.40966  0.40966  0.00000  0.18069
      14     C     3.09315  3.09315  0.00000 -0.18631
      15     H     0.40820  0.40820  0.00000  0.18359
      16     H     0.40869  0.40869  0.00000  0.18261
      17     H     0.40906  0.40906  0.00000  0.18187

   Total alpha = 28.00000, Total beta = 28.00000, Total charge = -0.00000
