  ==> Input File <==

--------------------------------------------------------------------------
set {
	reference rhf
	basis 6-31G*
}

set_num_threads( 1 )
memory 2 gb

molecule MOL {
0 1

H	 -1.836216	 1.387520	 -0.000064
C	 -1.301823	 0.443321	 -0.000031
O	 -0.003969	 0.658512	 0.000451
O	 -1.829879	 -0.616434	 -0.000857
C	 0.571958	 1.192754	 1.192122
C	 2.057457	 1.348150	 0.948269
H	 0.367762	 0.516997	 2.011252
H	 0.099707	 2.139927	 1.413792
H	 2.512163	 0.391000	 0.719928
H	 2.535440	 1.753065	 1.834164
H	 2.242982	 2.021766	 0.119589

	symmetry c1
}
set optking {
	frozen_dihedral = ("
		7 5 3 2
	")
}

ee = energy('scf')
oeprop('DIPOLE', 'QUADRUPOLE', 'MULLIKEN_CHARGES')
f=open( 'psi4out.xyz', 'w' )
f.write( "11  " )
f.write( str(ee) + "\n" )
f.write( MOL.save_string_xyz() )
f.close()
--------------------------------------------------------------------------

    Molecular point group: c1

    Geometry (in Angstrom), charge = 0, multiplicity = 1:

       Center              X                  Y                   Z               Mass
    ------------   -----------------  -----------------  -----------------  -----------------
           H         -1.735820471317     0.782979188984    -0.429907241790     1.007825032070
           C         -1.201427471317    -0.161219811016    -0.429874241790    12.000000000000
           O          0.096426528683     0.053971188984    -0.429392241790    15.994914619560
           O         -1.729483471317    -1.220974811016    -0.430700241790    15.994914619560
           C          0.672353528683     0.588213188984     0.762278758210    12.000000000000
           C          2.157852528683     0.743609188984     0.518425758210    12.000000000000
           H          0.468157528683    -0.087543811016     1.581408758210     1.007825032070
           H          0.200102528683     1.535386188984     0.983948758210     1.007825032070
           H          2.612558528683    -0.213540811016     0.290084758210     1.007825032070
           H          2.635835528683     1.148524188984     1.404320758210     1.007825032070
           H          2.343377528683     1.417225188984    -0.310254241790     1.007825032070

  Charge       = 0
  Multiplicity = 1
  Basis Set: 6-31G*
  Basis Set:

    Orbital Energies (a.u.)
    -----------------------

    Doubly Occupied:

       1A    -20.596556     2A    -20.566977     3A    -11.379502
       4A    -11.307331     5A    -11.232769     6A     -1.470138
       7A     -1.379152     8A     -1.055152     9A     -0.891470
      10A     -0.837036    11A     -0.741989    12A     -0.690211
      13A     -0.654818    14A     -0.632867    15A     -0.565615
      16A     -0.547085    17A     -0.537581    18A     -0.501886
      19A     -0.466717    20A     -0.452339

  @DF-RHF Final Energy:  -266.80916116679475

   => Energetics <=

    Nuclear Repulsion Energy =            176.8407845415923418
    One-Electron Energy =                -714.2855867900181011
    Two-Electron Energy =                 270.6356410816310927
    DFT Exchange-Correlation Energy =       0.0000000000000000
    Empirical Dispersion Energy =           0.0000000000000000
    PCM Polarization Energy =               0.0000000000000000
    EFP Energy =                            0.0000000000000000
    Total Energy =                       -266.8091611667946381

  Mulliken Charges: (a.u.)
   Center  Symbol    Alpha    Beta     Spin     Total
       1     H     0.43137  0.43137  0.00000  0.13726
       2     C     2.72969  2.72969  0.00000  0.54061
       3     O     4.29478  4.29478  0.00000 -0.58955
       4     O     4.23403  4.23403  0.00000 -0.46806
       5     C     3.00610  3.00610  0.00000 -0.01219
       6     C     3.24726  3.24726  0.00000 -0.49451
       7     H     0.40949  0.40949  0.00000  0.18102
       8     H     0.41939  0.41939  0.00000  0.16122
       9     H     0.40414  0.40414  0.00000  0.19172
      10     H     0.41562  0.41562  0.00000  0.16876
      11     H     0.40814  0.40814  0.00000  0.18372

   Total alpha = 20.00000, Total beta = 20.00000, Total charge = -0.00000
