  ==> Input File <==

--------------------------------------------------------------------------
set {
	reference rhf
	basis 6-31G*
}

set_num_threads( 4 )
memory 2 gb

molecule MOL {
0 1

O	 -0.291628	 1.323815	 -0.000732
C	 -0.449655	 0.146360	 0.000961
C	 -1.783294	 -0.549321	 -0.000296
O	 0.550821	 -0.724572	 0.000672
H	 -1.863538	 -1.185371	 -0.874187
H	 -2.574672	 0.185258	 -0.002793
H	 -1.866414	 -1.182381	 0.875436
C	 0.752954	 -1.470201	 1.187880
H	 0.966529	 -0.812021	 2.017664
H	 1.597492	 -2.112327	 0.992492
H	 -0.121814	 -2.060951	 1.418399

	symmetry c1
}
set optking {
	frozen_dihedral = ("
		8 4 2 1
	")
}

ee = optimize('scf')
oeprop('DIPOLE', 'QUADRUPOLE', 'MULLIKEN_CHARGES')
f=open( 'psi4out.xyz', 'w' )
f.write( "11  " )
f.write( str(ee) + "\n" )
f.write( MOL.save_string_xyz() )
f.close()
--------------------------------------------------------------------------

    Molecular point group: c1
  Charge       = 0
  Multiplicity = 1
  Basis Set: 6-31G*
  Basis Set:
  @DF-RHF Final Energy:  -266.81236690544904
    Total Energy =                       -266.8123669054490392
    Molecular point group: c1
  Basis Set: 6-31G*
  Basis Set:
  Basis Set: 6-31G*
  Basis Set:
  @DF-RHF Final Energy:  -266.81163990412989
    Total Energy =                       -266.8116399041297768
  Basis Set: 6-31G*
  Basis Set:
  Basis Set: 6-31G*
  Basis Set:
  @DF-RHF Final Energy:  -266.81399980975601
    Total Energy =                       -266.8139998097561261
  Basis Set: 6-31G*
  Basis Set:
  Basis Set: 6-31G*
  Basis Set:
  @DF-RHF Final Energy:  -266.81518477692885
    Total Energy =                       -266.8151847769288452
  Basis Set: 6-31G*
  Basis Set:
  @DF-RHF Final Energy:  -266.81523658411749
    Total Energy =                       -266.8152365841173150
  @DF-RHF Final Energy:  -266.81524636369323
    Total Energy =                       -266.8152463636935749
  Basis Set: 6-31G*
  Basis Set:
  @DF-RHF Final Energy:  -266.81524934081540
    Total Energy =                       -266.8152493408149439
  Basis Set: 6-31G*
  Basis Set:
  Basis Set: 6-31G*
  Basis Set:
  @DF-RHF Final Energy:  -266.81525153848929
    Total Energy =                       -266.8152515384895764
  Basis Set: 6-31G*
  Basis Set:
  Basis Set: 6-31G*
  Basis Set:
  @DF-RHF Final Energy:  -266.81525338985301
    Total Energy =                       -266.8152533898528418
  Basis Set: 6-31G*
  Basis Set:
  Charge       = 0
  Multiplicity = 1
  Basis Set: 6-31G*
  Basis Set:

    Orbital Energies (a.u.)
    -----------------------

    Doubly Occupied:

       1A    -20.589508     2A    -20.556922     3A    -11.379415
       4A    -11.295729     5A    -11.240540     6A     -1.460933
       7A     -1.369952     8A     -1.024138     9A     -0.970922
      10A     -0.780280    11A     -0.695194    12A     -0.683626
      13A     -0.671063    14A     -0.616355    15A     -0.589874
      16A     -0.580077    17A     -0.543697    18A     -0.492303
      19A     -0.462152    20A     -0.440477

  @DF-RHF Final Energy:  -266.81525395617803

   => Energetics <=

    Nuclear Repulsion Energy =            182.3486620174925292
    One-Electron Energy =                -725.4415187676509049
    Two-Electron Energy =                 276.2776027939804635
    DFT Exchange-Correlation Energy =       0.0000000000000000
    Empirical Dispersion Energy =           0.0000000000000000
    PCM Polarization Energy =               0.0000000000000000
    EFP Energy =                            0.0000000000000000
    Total Energy =                       -266.8152539561779122
    Molecular point group: c1
  Basis Set: 6-31G*
  Basis Set:

  -Total Gradient:
     Atom            X                  Y                   Z
    ------   -----------------  -----------------  -----------------
       1        0.000024485713    -0.000012555968     0.001122565353
       2        0.000201660663     0.000379184068    -0.001479743836
       3        0.000004106681    -0.000008789351    -0.000004605602
       4       -0.000800475713    -0.001008825477     0.000037084233
       5        0.000001203784     0.000002785098     0.000000939021
       6       -0.000001539894    -0.000002704137     0.000000324274
       7        0.000001141155     0.000001777002     0.000000352094
       8        0.000567982005     0.000633169721     0.000337161247
       9       -0.000000055701     0.000001401583    -0.000000402935
      10       -0.000001660989     0.000005077489    -0.000004712859
      11        0.000003152293     0.000009479970    -0.000008960986

  **** Optimization is complete! (in 10 steps) ****
    Final optimized geometry and variables:
    Molecular point group: c1

    Geometry (in Angstrom), charge = 0, multiplicity = 1:

    O           -0.051113074500     1.573485171160    -0.248676671791
    C           -0.236703094149     0.407661533524    -0.236654173363
    C           -1.604317271932    -0.228030225235    -0.272658073420
    O            0.796943430899    -0.462540708185    -0.242940866984
    H           -1.654942510923    -0.939961354409    -1.088479732167
    H           -2.354612523688     0.538128779499    -0.398775427443
    H           -1.801100852178    -0.767760651827     0.647542037614
    C            1.049335998418    -1.208028236648     0.927566663463
    H            1.189031464342    -0.550861852175     1.777937569949
    H            1.961087205884    -1.755597449002     0.748026525263
    H            0.250118362077    -1.910496247231     1.135992439605

  Mulliken Charges: (a.u.)
   Center  Symbol    Alpha    Beta     Spin     Total
       1     O     4.24619  4.24619  0.00000 -0.49237
       2     C     2.62868  2.62868  0.00000  0.74263
       3     C     3.29416  3.29416  0.00000 -0.58831
       4     O     4.30655  4.30655  0.00000 -0.61310
       5     H     0.39854  0.39854  0.00000  0.20292
       6     H     0.39334  0.39334  0.00000  0.21332
       7     H     0.40564  0.40564  0.00000  0.18871
       8     C     3.09286  3.09286  0.00000 -0.18573
       9     H     0.41249  0.41249  0.00000  0.17503
      10     H     0.40037  0.40037  0.00000  0.19926
      11     H     0.42118  0.42118  0.00000  0.15764

   Total alpha = 20.00000, Total beta = 20.00000, Total charge =  0.00000
