  ==> Input File <==

--------------------------------------------------------------------------
set {
	reference rhf
	basis cc-pvtz
}

set_num_threads( 4 )
memory 2 gb

molecule MOL {
0 1

H	 -1.835082	 1.385983	 0.000069
C	 -1.300516	 0.441153	 -0.000028
O	 -0.006604	 0.654344	 -0.000106
O	 -1.828920	 -0.612308	 0.000113
C	 0.852093	 -0.482521	 -0.000161
C	 -0.017245	 -1.716990	 -0.032380
H	 1.470688	 -0.452991	 0.885518
H	 1.501904	 -0.429361	 -0.862068
H	 -0.665027	 -1.755037	 0.834166
H	 0.607251	 -2.602348	 -0.033206
H	 -0.633679	 -1.731276	 -0.922197

	symmetry c1
}
set optking {
	frozen_dihedral = ("
		7 5 3 2
	")
}

ee = optimize('scf')
oeprop('DIPOLE', 'QUADRUPOLE', 'MULLIKEN_CHARGES')
f=open( 'psi4out.xyz', 'w' )
f.write( "11  " )
f.write( str(ee) + "\n" )
f.write( MOL.save_string_xyz() )
f.close()
--------------------------------------------------------------------------

    Molecular point group: c1
  Charge       = 0
  Multiplicity = 1
  Basis Set: CC-PVTZ
  Basis Set:
  @DF-RHF Final Energy:  -266.86530261361372
    Total Energy =                       -266.8653026136138351
    Molecular point group: c1
  Basis Set: CC-PVTZ
  Basis Set:
  Basis Set: CC-PVTZ
  Basis Set:
  @DF-RHF Final Energy:  -266.90518684280693
    Total Energy =                       -266.9051868428069270
  Basis Set: CC-PVTZ
  Basis Set:
  Basis Set: CC-PVTZ
  Basis Set:
  @DF-RHF Final Energy:  -266.91411843016874
    Total Energy =                       -266.9141184301687417
  Basis Set: CC-PVTZ
  Basis Set:
  Basis Set: CC-PVTZ
  Basis Set:
  @DF-RHF Final Energy:  -266.91059808855101
    Total Energy =                       -266.9105980885509553
  Basis Set: CC-PVTZ
  Basis Set:
  @DF-RHF Final Energy:  -266.91971459366255
    Total Energy =                       -266.9197145936626612
  Basis Set: CC-PVTZ
  Basis Set:
  @DF-RHF Final Energy:  -266.92008818197269
    Total Energy =                       -266.9200881819728011
  Basis Set: CC-PVTZ
  Basis Set:
  Basis Set: CC-PVTZ
  Basis Set:
  @DF-RHF Final Energy:  -266.92013172434474
    Total Energy =                       -266.9201317243447420
  Basis Set: CC-PVTZ
  Basis Set:
  Basis Set: CC-PVTZ
  Basis Set:
  @DF-RHF Final Energy:  -266.92013764092843
    Total Energy =                       -266.9201376409284308
  Basis Set: CC-PVTZ
  Basis Set:
  Charge       = 0
  Multiplicity = 1
  Basis Set: CC-PVTZ
  Basis Set:

    Orbital Energies (a.u.)
    -----------------------

    Doubly Occupied:

       1A    -20.601938     2A    -20.540333     3A    -11.370787
       4A    -11.296024     5A    -11.219107     6A     -1.470676
       7A     -1.376108     8A     -1.050940     9A     -0.920355
      10A     -0.795900    11A     -0.718888    12A     -0.688453
      13A     -0.676784    14A     -0.605094    15A     -0.589514
      16A     -0.547389    17A     -0.530160    18A     -0.504909
      19A     -0.451236    20A     -0.448050

  @DF-RHF Final Energy:  -266.92013806590990

   => Energetics <=

    Nuclear Repulsion Energy =            182.3769127450212011
    One-Electron Energy =                -725.7888180461187630
    Two-Electron Energy =                 276.4917672351876945
    DFT Exchange-Correlation Energy =       0.0000000000000000
    Empirical Dispersion Energy =           0.0000000000000000
    PCM Polarization Energy =               0.0000000000000000
    EFP Energy =                            0.0000000000000000
    Total Energy =                       -266.9201380659098959
    Molecular point group: c1
  Basis Set: CC-PVTZ
  Basis Set:

  -Total Gradient:
     Atom            X                  Y                   Z
    ------   -----------------  -----------------  -----------------
       1       -0.000002242223     0.000019521427     0.000014951876
       2        0.000024401277     0.000005713615    -0.000913465292
       3        0.000133048613     0.000085830326     0.001263763962
       4       -0.000021654636    -0.000033469211     0.000015187381
       5       -0.000724178488    -0.000487066884     0.000065751786
       6       -0.000002995804    -0.000024055471     0.000020448959
       7        0.000592888694     0.000418360458    -0.000452729009
       8       -0.000011834525     0.000009223723    -0.000004148648
       9        0.000005797922     0.000007626972     0.000002471786
      10        0.000009954999    -0.000015688246    -0.000002544898
      11       -0.000003185828     0.000014003297    -0.000009687903

  **** Optimization is complete! (in 9 steps) ****
    Final optimized geometry and variables:
    Molecular point group: c1

    Geometry (in Angstrom), charge = 0, multiplicity = 1:

    H           -1.155538286824     1.985666724822    -0.051862538338
    C           -0.836979220589     0.948005447907     0.001066240449
    O            0.472225597139     0.912548366818    -0.019625537158
    O           -1.592975996792     0.047401874577     0.069150785723
    C            1.307393517295    -0.250934354407    -0.001041643955
    C            0.662532560893    -1.622670156688    -0.048966734779
    H            1.910631271197    -0.150937023482     0.890391915514
    H            1.961338386787    -0.125440219956    -0.852278283068
    H            0.042430794486    -1.817575302947     0.811518820378
    H            1.473262784770    -2.344116427812    -0.063623669998
    H            0.065193059429    -1.761755225121    -0.937402222814

  Mulliken Charges: (a.u.)
   Center  Symbol    Alpha    Beta     Spin     Total
       1     H     0.44562  0.44562  0.00000  0.10876
       2     C     2.84703  2.84703  0.00000  0.30594
       3     O     4.14827  4.14827  0.00000 -0.29655
       4     O     4.19551  4.19551  0.00000 -0.39102
       5     C     2.97354  2.97354  0.00000  0.05293
       6     C     3.14912  3.14912  0.00000 -0.29824
       7     H     0.45288  0.45288  0.00000  0.09425
       8     H     0.45222  0.45222  0.00000  0.09556
       9     H     0.44098  0.44098  0.00000  0.11804
      10     H     0.45142  0.45142  0.00000  0.09715
      11     H     0.44341  0.44341  0.00000  0.11318

   Total alpha = 20.00000, Total beta = 20.00000, Total charge =  0.00000
