  ==> Input File <==

--------------------------------------------------------------------------
set {
	reference rhf
	basis cc-pvtz
}

set_num_threads( 4 )
memory 2 gb

molecule MOL {
0 1

H	 1.937851	 -1.342317	 -1.020640
C	 1.117196	 -0.676511	 -1.228146
O	 0.462329	 -0.453336	 -0.000137
H	 0.453255	 -1.143027	 -1.944919
H	 1.504175	 0.248180	 -1.637332
C	 -0.590565	 0.341382	 0.000062
O	 -1.693898	 -0.053880	 0.000252
H	 -0.340426	 1.403822	 0.000200

	symmetry c1
}
set optking {
	frozen_dihedral = ("
		2 3 6 7
	")
}

ee = optimize('scf')
oeprop('DIPOLE', 'QUADRUPOLE', 'MULLIKEN_CHARGES')
f=open( 'psi4out.xyz', 'w' )
f.write( "8  " )
f.write( str(ee) + "\n" )
f.write( MOL.save_string_xyz() )
f.close()
--------------------------------------------------------------------------

    Molecular point group: c1
  Charge       = 0
  Multiplicity = 1
  Basis Set: CC-PVTZ
  Basis Set:
  @DF-RHF Final Energy:  -227.85909153776461
    Total Energy =                       -227.8590915377646411
    Molecular point group: c1
  Basis Set: CC-PVTZ
  Basis Set:
  Basis Set: CC-PVTZ
  Basis Set:
  @DF-RHF Final Energy:  -227.85918814502571
    Total Energy =                       -227.8591881450256267
  Basis Set: CC-PVTZ
  Basis Set:
  Basis Set: CC-PVTZ
  Basis Set:
  @DF-RHF Final Energy:  -227.85929098053828
    Total Energy =                       -227.8592909805384750
  Basis Set: CC-PVTZ
  Basis Set:
  Basis Set: CC-PVTZ
  Basis Set:
  @DF-RHF Final Energy:  -227.85953173305796
    Total Energy =                       -227.8595317330579064
  Basis Set: CC-PVTZ
  Basis Set:
  Basis Set: CC-PVTZ
  Basis Set:
  @DF-RHF Final Energy:  -227.85956669938696
    Total Energy =                       -227.8595666993869031
  Basis Set: CC-PVTZ
  Basis Set:
  Charge       = 0
  Multiplicity = 1
  Basis Set: CC-PVTZ
  Basis Set:

    Orbital Energies (a.u.)
    -----------------------

    Doubly Occupied:

       1A    -20.591138     2A    -20.563129     3A    -11.376515
       4A    -11.298163     5A     -1.473754     6A     -1.386110
       7A     -0.986361     8A     -0.837855     9A     -0.740559
      10A     -0.691150    11A     -0.670423    12A     -0.627740
      13A     -0.565628    14A     -0.515715    15A     -0.476673
      16A     -0.461181

  @DF-RHF Final Energy:  -227.85956700522595

   => Energetics <=

    Nuclear Repulsion Energy =            121.9535716855091039
    One-Electron Energy =                -553.1020882282102775
    Two-Electron Energy =                 203.2889495374752471
    DFT Exchange-Correlation Energy =       0.0000000000000000
    Empirical Dispersion Energy =           0.0000000000000000
    PCM Polarization Energy =               0.0000000000000000
    EFP Energy =                            0.0000000000000000
    Total Energy =                       -227.8595670052258981
    Molecular point group: c1
  Basis Set: CC-PVTZ
  Basis Set:

  -Total Gradient:
     Atom            X                  Y                   Z
    ------   -----------------  -----------------  -----------------
       1        0.000010172428    -0.000005600278    -0.000007343225
       2       -0.000934834465    -0.001280428127    -0.000335009784
       3        0.001404567566     0.001910105517    -0.000610170503
       4       -0.000027257937     0.000022030334     0.000036491262
       5       -0.000014260909    -0.000006886010     0.000000054267
       6       -0.000484140228    -0.000623491824     0.003083643507
       7        0.000034562271    -0.000002035314    -0.002168288998
       8        0.000011191275    -0.000013694300     0.000000623474

  **** Optimization is complete! (in 6 steps) ****
    Final optimized geometry and variables:
    Molecular point group: c1

    Geometry (in Angstrom), charge = 0, multiplicity = 1:

    H            2.140997905700    -1.084408899066    -0.696616321056
    C            1.280831516118    -0.466553664875    -0.893316681293
    O            0.625795113786    -0.274981646951     0.343088684614
    H            0.624675194306    -0.965559290585    -1.594159665494
    H            1.609390885982     0.479141176408    -1.312034818578
    C           -0.421880347976     0.556488240374     0.324892033564
    O           -1.537443014166     0.205218546743     0.287715433924
    H           -0.133934647107     1.607182456169     0.359626580769

  Mulliken Charges: (a.u.)
   Center  Symbol    Alpha    Beta     Spin     Total
       1     H     0.44332  0.44332  0.00000  0.11336
       2     C     3.02280  3.02280  0.00000 -0.04560
       3     O     4.15156  4.15156  0.00000 -0.30312
       4     H     0.45513  0.45513  0.00000  0.08974
       5     H     0.46721  0.46721  0.00000  0.06559
       6     C     2.83155  2.83155  0.00000  0.33691
       7     O     4.16105  4.16105  0.00000 -0.32210
       8     H     0.46738  0.46738  0.00000  0.06524

   Total alpha = 16.00000, Total beta = 16.00000, Total charge = -0.00000
