  ==> Input File <==

--------------------------------------------------------------------------
set {
	reference rhf
	basis 6-31G*
}

set_num_threads( 1 )
memory 2 gb

molecule MOL {
0 1

O	 0.074228	 1.262779	 -0.000085
C	 0.028650	 0.075053	 -0.000277
C	 -1.233602	 -0.752807	 0.000328
O	 1.109162	 -0.694619	 -0.000298
C	 -2.501530	 0.091881	 0.000126
H	 -1.193807	 -1.406641	 -0.865785
H	 -1.193516	 -1.405779	 0.867015
H	 -2.545121	 0.729328	 -0.874513
H	 -3.377167	 -0.548497	 0.000561
H	 -2.544818	 0.730135	 0.874258
C	 1.632230	 -1.067869	 -1.262309
H	 0.900073	 -1.627506	 -1.826370
H	 2.493976	 -1.682691	 -1.054341
H	 1.923147	 -0.193585	 -1.826637

	symmetry c1
}
set optking {
	frozen_dihedral = ("
		4 2 3 6
	")
}

ee = energy('scf')
oeprop('DIPOLE', 'QUADRUPOLE', 'MULLIKEN_CHARGES')
f=open( 'psi4out.xyz', 'w' )
f.write( "14  " )
f.write( str(ee) + "\n" )
f.write( MOL.save_string_xyz() )
f.close()
--------------------------------------------------------------------------

    Molecular point group: c1

    Geometry (in Angstrom), charge = 0, multiplicity = 1:

       Center              X                  Y                   Z               Mass
    ------------   -----------------  -----------------  -----------------  -----------------
           O          0.205324485131     1.446814415577     0.225852493106    15.994914619560
           C          0.159746485131     0.259088415577     0.225660493106    12.000000000000
           C         -1.102505514869    -0.568771584423     0.226265493106    12.000000000000
           O          1.240258485131    -0.510583584423     0.225639493106    15.994914619560
           C         -2.370433514869     0.275916415577     0.226063493106    12.000000000000
           H         -1.062710514869    -1.222605584423    -0.639847506894     1.007825032070
           H         -1.062419514869    -1.221743584423     1.092952493106     1.007825032070
           H         -2.414024514869     0.913363415577    -0.648575506894     1.007825032070
           H         -3.246070514869    -0.364461584423     0.226498493106     1.007825032070
           H         -2.413721514869     0.914170415577     1.100195493106     1.007825032070
           C          1.763326485131    -0.883833584423    -1.036371506894    12.000000000000
           H          1.031169485131    -1.443470584423    -1.600432506894     1.007825032070
           H          2.625072485131    -1.498655584423    -0.828403506894     1.007825032070
           H          2.054243485131    -0.009549584423    -1.600699506894     1.007825032070

  Charge       = 0
  Multiplicity = 1
  Basis Set: 6-31G*
  Basis Set:

    Orbital Energies (a.u.)
    -----------------------

    Doubly Occupied:

       1A    -20.588132     2A    -20.555949     3A    -11.374347
       4A    -11.296217     5A    -11.240395     6A    -11.217516
       7A     -1.464985     8A     -1.368356     9A     -1.061915
      10A     -0.983722    11A     -0.891319    12A     -0.770021
      13A     -0.699495    14A     -0.681681    15A     -0.675344
      16A     -0.623627    17A     -0.614669    18A     -0.559837
      19A     -0.544787    20A     -0.523631    21A     -0.509380
      22A     -0.487863    23A     -0.458281    24A     -0.436443

  @DF-RHF Final Energy:  -305.85047690603136

   => Energetics <=

    Nuclear Repulsion Energy =            247.7051527894732885
    One-Electron Energy =                -907.8554763654087765
    Two-Electron Energy =                 354.2998466699042410
    DFT Exchange-Correlation Energy =       0.0000000000000000
    Empirical Dispersion Energy =           0.0000000000000000
    PCM Polarization Energy =               0.0000000000000000
    EFP Energy =                            0.0000000000000000
    Total Energy =                       -305.8504769060313038

  Mulliken Charges: (a.u.)
   Center  Symbol    Alpha    Beta     Spin     Total
       1     O     4.25784  4.25784  0.00000 -0.51567
       2     C     2.61807  2.61807  0.00000  0.76386
       3     C     3.20918  3.20918  0.00000 -0.41836
       4     O     4.30896  4.30896  0.00000 -0.61791
       5     C     3.23952  3.23952  0.00000 -0.47905
       6     H     0.40797  0.40797  0.00000  0.18407
       7     H     0.39813  0.39813  0.00000  0.20375
       8     H     0.41118  0.41118  0.00000  0.17765
       9     H     0.41871  0.41871  0.00000  0.16259
      10     H     0.40836  0.40836  0.00000  0.18328
      11     C     3.09334  3.09334  0.00000 -0.18667
      12     H     0.42097  0.42097  0.00000  0.15805
      13     H     0.40070  0.40070  0.00000  0.19860
      14     H     0.40709  0.40709  0.00000  0.18583

   Total alpha = 24.00000, Total beta = 24.00000, Total charge = -0.00000
