  ==> Input File <==

--------------------------------------------------------------------------
set {
	reference rhf
	basis 6-31G*
}

set_num_threads( 4 )
memory 2 gb

molecule MOL {
0 1

H	 -2.098997	 -0.674324	 -0.616650
O	 -2.035884	 -0.060112	 0.102722
C	 -0.955155	 0.788182	 -0.092531
C	 0.353668	 0.040312	 -0.004810
H	 -0.985057	 1.290372	 -1.054184
H	 -0.974469	 1.533190	 0.688632
F	 0.359044	 -0.992140	 -0.840625
F	 1.361614	 0.830957	 -0.336661
F	 0.587082	 -0.428180	 1.204149

	symmetry c1
}
set optking {
	frozen_dihedral = ("
		7 4 3 5
	")
}

ee = optimize('scf')
oeprop('DIPOLE', 'QUADRUPOLE', 'MULLIKEN_CHARGES')
f=open( 'psi4out.xyz', 'w' )
f.write( "9  " )
f.write( str(ee) + "\n" )
f.write( MOL.save_string_xyz() )
f.close()
--------------------------------------------------------------------------

    Molecular point group: c1
  Charge       = 0
  Multiplicity = 1
  Basis Set: 6-31G*
  Basis Set:
  @DF-RHF Final Energy:  -450.66274808369764
    Total Energy =                       -450.6627480836974655
    Molecular point group: c1
  Basis Set: 6-31G*
  Basis Set:
  Basis Set: 6-31G*
  Basis Set:
  @DF-RHF Final Energy:  -450.66275976490351
    Total Energy =                       -450.6627597649035692
  Basis Set: 6-31G*
  Basis Set:
  Charge       = 0
  Multiplicity = 1
  Basis Set: 6-31G*
  Basis Set:

    Orbital Energies (a.u.)
    -----------------------

    Doubly Occupied:

       1A    -26.344166     2A    -26.343839     3A    -26.339002
       4A    -20.590565     5A    -11.500414     6A    -11.309689
       7A     -1.740391     8A     -1.639622     9A     -1.636634
      10A     -1.402703    11A     -1.048143    12A     -0.923837
      13A     -0.830514    14A     -0.829045    15A     -0.806409
      16A     -0.726381    17A     -0.712092    18A     -0.697344
      19A     -0.665043    20A     -0.659106    21A     -0.642723
      22A     -0.628728    23A     -0.615081    24A     -0.530880
      25A     -0.480490

  @DF-RHF Final Energy:  -450.66276268786271

   => Energetics <=

    Nuclear Repulsion Energy =            277.1010492434392063
    One-Electron Energy =               -1176.2419460364344559
    Two-Electron Energy =                 448.4781341051325398
    DFT Exchange-Correlation Energy =       0.0000000000000000
    Empirical Dispersion Energy =           0.0000000000000000
    PCM Polarization Energy =               0.0000000000000000
    EFP Energy =                            0.0000000000000000
    Total Energy =                       -450.6627626878627098
    Molecular point group: c1
  Basis Set: 6-31G*
  Basis Set:

  -Total Gradient:
     Atom            X                  Y                   Z
    ------   -----------------  -----------------  -----------------
       1       -0.000019960044    -0.000004701166     0.000004204709
       2       -0.000045213648    -0.000120960003     0.000023938249
       3       -0.000683794728    -0.001179555394    -0.000461921893
       4        0.000582763302     0.000732385914    -0.000652771149
       5        0.000524868769     0.000956296273     0.000534212686
       6        0.000014029414     0.000024297452    -0.000026449467
       7       -0.000396497435    -0.000555678099     0.000650949246
       8        0.000043247574     0.000097316951    -0.000031040976
       9       -0.000019443197     0.000050598070    -0.000041121405

  **** Optimization is complete! (in 3 steps) ****
    Final optimized geometry and variables:
    Molecular point group: c1

    Geometry (in Angstrom), charge = 0, multiplicity = 1:

    H           -2.094639241012    -0.681685639971    -0.605078309938
    O           -2.036276664996    -0.056557204694     0.105304328521
    C           -0.954979259803     0.788844720239    -0.095825919924
    C            0.354329508400     0.040761413539    -0.006730523919
    H           -0.984018117084     1.294643702552    -1.055571749945
    H           -0.970815953789     1.535735984900     0.683897041276
    F            0.362687067187    -0.989033332978    -0.845419334616
    F            1.364396772002     0.832682141358    -0.328232785855
    F            0.581480121085    -0.434022297152     1.201588137956

  Mulliken Charges: (a.u.)
   Center  Symbol    Alpha    Beta     Spin     Total
       1     H     0.27229  0.27229  0.00000  0.45542
       2     O     4.36157  4.36157  0.00000 -0.72314
       3     C     3.05377  3.05377  0.00000 -0.10754
       4     C     2.46381  2.46381  0.00000  1.07237
       5     H     0.40979  0.40979  0.00000  0.18041
       6     H     0.39543  0.39543  0.00000  0.20914
       7     F     4.68635  4.68635  0.00000 -0.37269
       8     F     4.68157  4.68157  0.00000 -0.36315
       9     F     4.67542  4.67542  0.00000 -0.35083

   Total alpha = 25.00000, Total beta = 25.00000, Total charge =  0.00000
