                              Psi4 1.0.54 Driver

  ==> Input File <==

--------------------------------------------------------------------------
set {
	reference rhf
	basis cc-pvtz
}

set_num_threads( 4 )
memory 2 gb

molecule MOL {
0 1

H	 1.092335	 -0.627513	 -0.066015
C	 0.848385	 0.440008	 0.000011
C	 -0.623497	 0.751021	 0.000090
O	 1.712566	 1.243955	 0.064073
C	 -1.523725	 -0.474323	 -0.000013
H	 -0.813143	 1.382932	 -0.864897
H	 -0.813071	 1.382716	 0.865253
H	 -1.342980	 -1.087348	 -0.873016
H	 -2.565269	 -0.177464	 0.000070
H	 -1.342898	 -1.087564	 0.872820

	symmetry c1
}
set optking {
	frozen_dihedral = ("
		4 2 3 6
	")
}

ee,wfn = optimize('scf', return_wfn=True)
oeprop( wfn, 'DIPOLE', 'QUADRUPOLE', 'MULLIKEN_CHARGES')
f=open( 'psi4out.xyz', 'w' )
f.write( "10  " )
f.write( str(ee) + "\n" )
f.write( MOL.save_string_xyz() )
f.close()
--------------------------------------------------------------------------

    Molecular point group: c1
  Charge       = 0
  Multiplicity = 1
  Basis Set: CC-PVTZ
  Basis Set:
  @DF-RHF Final Energy:  -192.02175586056285
    Total Energy =                       -192.0217558605628483
    Molecular point group: c1
  Basis Set: CC-PVTZ
  Basis Set:
  Basis Set: CC-PVTZ
  Basis Set:
  @DF-RHF Final Energy:  -192.02193025331246
    Total Energy =                       -192.0219302533125187
  Basis Set: CC-PVTZ
  Basis Set:
  Basis Set: CC-PVTZ
  Basis Set:
  @DF-RHF Final Energy:  -192.02133569482032
    Total Energy =                       -192.0213356948203796
  Basis Set: CC-PVTZ
  Basis Set:
  Basis Set: CC-PVTZ
  Basis Set:
  @DF-RHF Final Energy:  -192.02199121282166
    Total Energy =                       -192.0219912128217175
  Basis Set: CC-PVTZ
  Basis Set:
  Charge       = 0
  Multiplicity = 1
  Basis Set: CC-PVTZ
  Basis Set:

    Orbital Energies (a.u.)
    -----------------------

    Doubly Occupied:

       1A    -20.552743     2A    -11.323896     3A    -11.238220
       4A    -11.230091     5A     -1.408896     6A     -1.067490
       7A     -0.902502     8A     -0.799102     9A     -0.662210
      10A     -0.642878    11A     -0.639825    12A     -0.554005
      13A     -0.547346    14A     -0.526918    15A     -0.491960
      16A     -0.415143

  @DF-RHF Final Energy:  -192.02199748664469

   => Energetics <=

    Nuclear Repulsion Energy =            117.1213318406878017
    One-Electron Energy =                -492.2802077835532373
    Two-Electron Energy =                 183.1368784562207566
    DFT Exchange-Correlation Energy =       0.0000000000000000
    Empirical Dispersion Energy =           0.0000000000000000
    PCM Polarization Energy =               0.0000000000000000
    EFP Energy =                            0.0000000000000000
    Total Energy =                       -192.0219974866446933
    Molecular point group: c1
  Basis Set: CC-PVTZ
  Basis Set:

  -Total Gradient:
     Atom            X                  Y                   Z
    ------   -----------------  -----------------  -----------------
       1       -0.000008762891    -0.000006394604     0.000010074503
       2        0.000136628317     0.000166884986     0.000287875231
       3        0.000032640243    -0.000131247240    -0.000204911656
       4       -0.000215888884    -0.000156019510    -0.000200053369
       5        0.000025960401    -0.000018384997     0.000016256024
       6        0.000037381263     0.000170696798     0.000107899986
       7       -0.000016112928    -0.000009341601    -0.000023209704
       8       -0.000005910117     0.000004029306    -0.000004599519
       9        0.000032320409     0.000002190553    -0.000001943912
      10       -0.000018255817    -0.000022413692     0.000012612415

  **** Optimization is complete! (in 5 steps) ****
    Final optimized geometry and variables:
    Molecular point group: c1

    Geometry (in Angstrom), charge = 0, multiplicity = 1:

    H            0.984437038835    -1.143592738364    -0.076329245642
    C            0.748408232925    -0.072645096200    -0.023361845695
    C           -0.720253569454     0.285611622300    -0.004385931668
    O            1.619494947297     0.724517934858     0.010578509931
    C           -1.644523695601    -0.924854404231     0.016073312441
    H           -0.906997582599     0.904356383003    -0.875690416132
    H           -0.884524803930     0.920018472306     0.859299460778
    H           -1.494511732871    -1.550065459059    -0.857271587096
    H           -2.681714221204    -0.616243882471     0.026138398078
    H           -1.473419595154    -1.536771164426     0.894970614583

  Mulliken Charges: (a.u.)
   Center  Symbol    Alpha    Beta     Spin     Total
       1     H     0.46257  0.46257  0.00000  0.07485
       2     C     2.90682  2.90682  0.00000  0.18635
       3     C     3.08261  3.08261  0.00000 -0.16522
       4     O     4.16528  4.16528  0.00000 -0.33057
       5     C     3.15461  3.15461  0.00000 -0.30922
       6     H     0.44047  0.44047  0.00000  0.11906
       7     H     0.43974  0.43974  0.00000  0.12053
       8     H     0.45214  0.45214  0.00000  0.09572
       9     H     0.44424  0.44424  0.00000  0.11152
      10     H     0.45151  0.45151  0.00000  0.09698

   Total alpha = 16.00000, Total beta = 16.00000, Total charge = -0.00000

*** Psi4 exiting successfully. Buy a developer a beer!
