  ==> Input File <==

--------------------------------------------------------------------------
set {
	reference rhf
	basis 6-31G*
}

set_num_threads( 1 )
memory 2 gb

molecule MOL {
0 1

H	 -2.798360	 -0.862255	 -0.071053
N	 -1.863561	 -0.715187	 0.256814
C	 -1.344686	 0.554728	 -0.219830
H	 -1.300452	 -1.461917	 -0.101532
C	 0.081427	 0.741154	 0.254071
H	 -1.362155	 0.656231	 -1.305829
H	 -1.952773	 1.354456	 0.191809
O	 0.874168	 -0.245412	 -0.342030
H	 0.444037	 1.730782	 -0.023037
H	 0.121165	 0.653424	 1.337565
C	 1.970877	 -0.638680	 0.419638
H	 2.503404	 -1.396438	 -0.138856
H	 2.643673	 0.195838	 0.609129
H	 1.661786	 -1.056649	 1.375449

	symmetry c1
}
set optking {
	frozen_dihedral = ("
		8 5 3 6,
		6 3 2 4,
		5 8 11 13
	")
}

ee = energy('scf')
oeprop('DIPOLE', 'QUADRUPOLE', 'MULLIKEN_CHARGES')
f=open( 'psi4out.xyz', 'w' )
f.write( "14  " )
f.write( str(ee) + "\n" )
f.write( MOL.save_string_xyz() )
f.close()
--------------------------------------------------------------------------

    Molecular point group: c1

    Geometry (in Angstrom), charge = 0, multiplicity = 1:

       Center              X                  Y                   Z               Mass
    ------------   -----------------  -----------------  -----------------  -----------------
           H         -2.749579036882    -0.779107858118    -0.143790638212     1.007825032070
           N         -1.814780036882    -0.632039858118     0.184076361788    14.003074004780
           C         -1.295905036882     0.637875141882    -0.292567638212    12.000000000000
           H         -1.251671036882    -1.378769858118    -0.174269638212     1.007825032070
           C          0.130207963118     0.824301141882     0.181333361788    12.000000000000
           H         -1.313374036882     0.739378141882    -1.378566638212     1.007825032070
           H         -1.903992036882     1.437603141882     0.119071361788     1.007825032070
           O          0.922948963118    -0.162264858118    -0.414767638212    15.994914619560
           H          0.492817963118     1.813929141882    -0.095774638212     1.007825032070
           H          0.169945963118     0.736571141882     1.264827361788     1.007825032070
           C          2.019657963118    -0.555532858118     0.346900361788    12.000000000000
           H          2.552184963118    -1.313290858118    -0.211593638212     1.007825032070
           H          2.692453963118     0.278985141882     0.536391361788     1.007825032070
           H          1.710566963118    -0.973501858118     1.302711361788     1.007825032070

  Charge       = 0
  Multiplicity = 1
  Basis Set: 6-31G*
  Basis Set:

    Orbital Energies (a.u.)
    -----------------------

    Doubly Occupied:

       1A    -20.556617     2A    -15.529350     3A    -11.265781
       4A    -11.265308     5A    -11.240234     6A     -1.381294
       7A     -1.174064     8A     -0.999072     9A     -0.907003
      10A     -0.815467    11A     -0.685453    12A     -0.671230
      13A     -0.645848    14A     -0.613857    15A     -0.601576
      16A     -0.540534    17A     -0.529989    18A     -0.497777
      19A     -0.473827    20A     -0.416132    21A     -0.380268

  @DF-RHF Final Energy:  -248.12374770313511

   => Energetics <=

    Nuclear Repulsion Energy =            195.5249449197123681
    One-Electron Energy =                -724.9160191726551830
    Two-Electron Energy =                 281.2673265498078194
    DFT Exchange-Correlation Energy =       0.0000000000000000
    Empirical Dispersion Energy =           0.0000000000000000
    PCM Polarization Energy =               0.0000000000000000
    EFP Energy =                            0.0000000000000000
    Total Energy =                       -248.1237477031350522

  Mulliken Charges: (a.u.)
   Center  Symbol    Alpha    Beta     Spin     Total
       1     H     0.33240  0.33240  0.00000  0.33520
       2     N     3.92632  3.92632  0.00000 -0.85264
       3     C     3.06792  3.06792  0.00000 -0.13584
       4     H     0.32513  0.32513  0.00000  0.34973
       5     C     2.99167  2.99167  0.00000  0.01666
       6     H     0.42612  0.42612  0.00000  0.14775
       7     H     0.42108  0.42108  0.00000  0.15784
       8     O     4.30941  4.30941  0.00000 -0.61882
       9     H     0.42770  0.42770  0.00000  0.14460
      10     H     0.42281  0.42281  0.00000  0.15438
      11     C     3.08127  3.08127  0.00000 -0.16254
      12     H     0.41343  0.41343  0.00000  0.17315
      13     H     0.42947  0.42947  0.00000  0.14106
      14     H     0.42527  0.42527  0.00000  0.14946

   Total alpha = 21.00000, Total beta = 21.00000, Total charge = -0.00000
