  ==> Input File <==

--------------------------------------------------------------------------
set {
	reference rhf
	basis 6-31G*
}

set_num_threads( 4 )
memory 2 gb

molecule MOL {
0 1

H	 1.148083	 -1.049780	 0.784252
O	 1.319262	 -0.618148	 -0.041729
C	 0.709265	 0.639550	 -0.033818
C	 -0.010892	 0.968147	 1.247579
H	 0.004681	 0.639088	 -0.857690
H	 1.435629	 1.423295	 -0.246335
C	 -0.223561	 0.126445	 2.239080
H	 -0.369474	 1.983312	 1.320657
H	 0.103276	 -0.896525	 2.192817
H	 -0.746263	 0.430075	 3.128219

	symmetry c1
}
set optking {
	frozen_dihedral = ("
		5 3 2 1
	")
}

ee = optimize('scf')
oeprop('DIPOLE', 'QUADRUPOLE', 'MULLIKEN_CHARGES')
f=open( 'psi4out.xyz', 'w' )
f.write( "10  " )
f.write( str(ee) + "\n" )
f.write( MOL.save_string_xyz() )
f.close()
--------------------------------------------------------------------------

    Molecular point group: c1
  Charge       = 0
  Multiplicity = 1
  Basis Set: 6-31G*
  Basis Set:
  @DF-RHF Final Energy:  -191.91006021321482
    Total Energy =                       -191.9100602132148197
    Molecular point group: c1
  Basis Set: 6-31G*
  Basis Set:
  Basis Set: 6-31G*
  Basis Set:
  @DF-RHF Final Energy:  -191.91102581533676
    Total Energy =                       -191.9110258153367568
  Basis Set: 6-31G*
  Basis Set:
  Basis Set: 6-31G*
  Basis Set:
  @DF-RHF Final Energy:  -191.91180123807726
    Total Energy =                       -191.9118012380773166
  Basis Set: 6-31G*
  Basis Set:
  Basis Set: 6-31G*
  Basis Set:
  @DF-RHF Final Energy:  -191.91183554142049
    Total Energy =                       -191.9118355414205439
  Basis Set: 6-31G*
  Basis Set:
  @DF-RHF Final Energy:  -191.91184874594290
    Total Energy =                       -191.9118487459429332
  @DF-RHF Final Energy:  -191.91191077002674
    Total Energy =                       -191.9119107700267364
  @DF-RHF Final Energy:  -191.90711025586717
    Total Energy =                       -191.9071102558672237
  @DF-RHF Final Energy:  -191.91190753331051
    Total Energy =                       -191.9119075333105116
  @DF-RHF Final Energy:  -191.91181679186545
    Total Energy =                       -191.9118167918655047
  @DF-RHF Final Energy:  -191.91201548510202
    Total Energy =                       -191.9120154851020459
  @DF-RHF Final Energy:  -191.91203552549405
    Total Energy =                       -191.9120355254940478
  Basis Set: 6-31G*
  Basis Set:
  @DF-RHF Final Energy:  -191.91207206517032
    Total Energy =                       -191.9120720651703493
  Basis Set: 6-31G*
  Basis Set:
  Basis Set: 6-31G*
  Basis Set:
  @DF-RHF Final Energy:  -191.91207398215064
    Total Energy =                       -191.9120739821506731
  Basis Set: 6-31G*
  Basis Set:
  Basis Set: 6-31G*
  Basis Set:
  @DF-RHF Final Energy:  -191.91207557173635
    Total Energy =                       -191.9120755717363807
  Basis Set: 6-31G*
  Basis Set:
  Charge       = 0
  Multiplicity = 1
  Basis Set: 6-31G*
  Basis Set:

    Orbital Energies (a.u.)
    -----------------------

    Doubly Occupied:

       1A    -20.555536     2A    -11.278686     3A    -11.243136
       4A    -11.231209     5A     -1.365413     6A     -1.066510
       7A     -0.935540     8A     -0.777128     9A     -0.689711
      10A     -0.653299    11A     -0.630278    12A     -0.570262
      13A     -0.555206    14A     -0.483614    15A     -0.450947
      16A     -0.371836

  @DF-RHF Final Energy:  -191.91207558928431

   => Energetics <=

    Nuclear Repulsion Energy =            119.1185677305862640
    One-Electron Energy =                -496.3446612334543033
    Two-Electron Energy =                 185.3140179135837968
    DFT Exchange-Correlation Energy =       0.0000000000000000
    Empirical Dispersion Energy =           0.0000000000000000
    PCM Polarization Energy =               0.0000000000000000
    EFP Energy =                            0.0000000000000000
    Total Energy =                       -191.9120755892842283
    Molecular point group: c1
  Basis Set: 6-31G*
  Basis Set:

  -Total Gradient:
     Atom            X                  Y                   Z
    ------   -----------------  -----------------  -----------------
       1        0.002204349788     0.000671328080     0.001570759087
       2       -0.002239296723    -0.000631753606    -0.002202184526
       3       -0.001934430711    -0.000895723103     0.001663029886
       4       -0.000016612113    -0.000004978418    -0.000007168295
       5        0.001984811534     0.000854598227    -0.001023017072
       6       -0.000002804152     0.000003707703    -0.000005750097
       7       -0.000002283926    -0.000000306162    -0.000001843992
       8        0.000001659616     0.000002497413     0.000002575569
       9        0.000001069000    -0.000000846557     0.000000660601
      10        0.000003537687     0.000001476426     0.000002938840

  **** Optimization is complete! (in 15 steps) ****
    Final optimized geometry and variables:
    Molecular point group: c1

    Geometry (in Angstrom), charge = 0, multiplicity = 1:

    H            0.438331821398    -1.432895833089    -0.247071265278
    O            0.763656522710    -0.880639015832    -0.940647344550
    C            0.271119684480     0.422598073848    -0.807772017828
    C           -0.570427201036     0.686179916225     0.413086017140
    H           -0.297786576078     0.671565175995    -1.699147016076
    H            1.118435161162     1.104732061741    -0.792109404506
    C           -0.618736715516    -0.038905009046     1.512960275784
    H           -1.165595429962     1.583371112023     0.355854848500
    H           -0.033593688763    -0.931151630868     1.659042777773
    H           -1.248579079706     0.241965061047     2.337085813610

  Mulliken Charges: (a.u.)
   Center  Symbol    Alpha    Beta     Spin     Total
       1     H     0.27510  0.27510  0.00000  0.44979
       2     O     4.37704  4.37704  0.00000 -0.75407
       3     C     2.98766  2.98766  0.00000  0.02467
       4     C     3.09123  3.09123  0.00000 -0.18245
       5     H     0.41988  0.41988  0.00000  0.16023
       6     H     0.41547  0.41547  0.00000  0.16906
       7     C     3.20619  3.20619  0.00000 -0.41237
       8     H     0.40525  0.40525  0.00000  0.18950
       9     H     0.41658  0.41658  0.00000  0.16685
      10     H     0.40560  0.40560  0.00000  0.18879

   Total alpha = 16.00000, Total beta = 16.00000, Total charge = -0.00000
