                              Psi4 1.0.54 Driver

  ==> Input File <==

--------------------------------------------------------------------------
set {
	reference rhf
	basis cc-pvtz
}

set_num_threads( 4 )
memory 2 gb

molecule MOL {
0 1

H	 1.510536	 1.293834	 -1.901019
O	 0.645952	 1.121826	 -1.577675
C	 0.700177	 0.619554	 -0.266242
C	 -0.713111	 0.588314	 0.266177
H	 1.311035	 1.258898	 0.363850
H	 1.117741	 -0.383844	 -0.251741
O	 -1.421673	 -0.521378	 -0.196983
H	 -1.244794	 1.469161	 -0.069059
H	 -0.685100	 0.604721	 1.352683
H	 -0.933408	 -1.297830	 0.014544

	symmetry c1
}
set optking {
	frozen_dihedral = ("
		5 3 4 7
	")
}

ee,wfn = optimize('scf', return_wfn=True)
oeprop( wfn, 'DIPOLE', 'QUADRUPOLE', 'MULLIKEN_CHARGES')
f=open( 'psi4out.xyz', 'w' )
f.write( "10  " )
f.write( str(ee) + "\n" )
f.write( MOL.save_string_xyz() )
f.close()
--------------------------------------------------------------------------

    Molecular point group: c1
  Charge       = 0
  Multiplicity = 1
  Basis Set: CC-PVTZ
  Basis Set:
  @DF-RHF Final Energy:  -229.02163512329190
    Total Energy =                       -229.0216351232919578
    Molecular point group: c1
  Basis Set: CC-PVTZ
  Basis Set:
  Basis Set: CC-PVTZ
  Basis Set:
  @DF-RHF Final Energy:  -228.09694471142384
    Total Energy =                       -228.0969447114237596
  Basis Set: CC-PVTZ
  Basis Set:
  Basis Set: CC-PVTZ
  Basis Set:
  @DF-RHF Final Energy:  -228.25282950922463
    Total Energy =                       -228.2528295092246537
  Basis Set: CC-PVTZ
  Basis Set:
  Basis Set: CC-PVTZ
  Basis Set:
  @DF-RHF Final Energy:  -228.17442771494646
    Total Energy =                       -228.1744277149466313
  Basis Set: CC-PVTZ
  Basis Set:
  @DF-RHF Final Energy:  -228.39948887958877
    Total Energy =                       -228.3994888795886311
  @DF-RHF Final Energy:  -228.28562327685086
    Total Energy =                       -228.2856232768507994
  @DF-RHF Final Energy:  -228.49056766134825
    Total Energy =                       -228.4905676613481944
  @DF-RHF Final Energy:  -228.53750426189691
    Total Energy =                       -228.5375042618968280
  @DF-RHF Final Energy:  -228.51992020446079
    Total Energy =                       -228.5199202044607887
  @DF-RHF Final Energy:  -228.60435451068349
    Total Energy =                       -228.6043545106835211
  @DF-RHF Final Energy:  -228.82945357810974
    Total Energy =                       -228.8294535781097068
  @DF-RHF Final Energy:  -228.99103337668842
    Total Energy =                       -228.9910333766883355
  @DF-RHF Final Energy:  -229.02126460054231
    Total Energy =                       -229.0212646005422243
  @DF-RHF Final Energy:  -229.01163457606231
    Total Energy =                       -229.0116345760623915
  @DF-RHF Final Energy:  -229.01049126814189
    Total Energy =                       -229.0104912681419194
  @DF-RHF Final Energy:  -228.97592515985002
    Total Energy =                       -228.9759251598499645
  @DF-RHF Final Energy:  -229.02105680813577
    Total Energy =                       -229.0210568081357110
  @DF-RHF Final Energy:  -229.01920207495760
    Total Energy =                       -229.0192020749574908
  @DF-RHF Final Energy:  -229.02173378726272
    Total Energy =                       -229.0217337872626615
  Basis Set: CC-PVTZ
  Basis Set:
  @DF-RHF Final Energy:  -229.02272588156671
    Total Energy =                       -229.0227258815666289
  Basis Set: CC-PVTZ
  Basis Set:
  Basis Set: CC-PVTZ
  Basis Set:
  @DF-RHF Final Energy:  -229.02274291081901
    Total Energy =                       -229.0227429108189199
  Basis Set: CC-PVTZ
  Basis Set:
  Basis Set: CC-PVTZ
  Basis Set:
  @DF-RHF Final Energy:  -229.02274619556982
    Total Energy =                       -229.0227461955698800
  Basis Set: CC-PVTZ
  Basis Set:
  Charge       = 0
  Multiplicity = 1
  Basis Set: CC-PVTZ
  Basis Set:

    Orbital Energies (a.u.)
    -----------------------

    Doubly Occupied:

       1A    -20.551959     2A    -20.547065     3A    -11.273877
       4A    -11.268543     5A     -1.378358     6A     -1.359485
       7A     -1.002981     8A     -0.847313     9A     -0.723076
      10A     -0.682858    11A     -0.654296    12A     -0.600103
      13A     -0.576242    14A     -0.541273    15A     -0.484219
      16A     -0.448706    17A     -0.439593

  @DF-RHF Final Energy:  -229.02274649309857

   => Energetics <=

    Nuclear Repulsion Energy =            132.9245653260965128
    One-Electron Energy =                -577.1347283754781756
    Two-Electron Energy =                 215.1874165562829830
    DFT Exchange-Correlation Energy =       0.0000000000000000
    Empirical Dispersion Energy =           0.0000000000000000
    PCM Polarization Energy =               0.0000000000000000
    EFP Energy =                            0.0000000000000000
    Total Energy =                       -229.0227464930986798
    Molecular point group: c1
  Basis Set: CC-PVTZ
  Basis Set:

  -Total Gradient:
     Atom            X                  Y                   Z
    ------   -----------------  -----------------  -----------------
       1       -0.000013855599    -0.000009603669    -0.000003208089
       2        0.000026859035     0.000003245662    -0.000004400370
       3       -0.001155903761     0.000021848452    -0.002649956653
       4       -0.000190335428    -0.001115211486    -0.002379749726
       5        0.001003289183     0.000233523791     0.002802175846
       6        0.000003261299     0.000005090613     0.000016545852
       7        0.000310504974     0.000860756906     0.002206384325
       8       -0.000000325030     0.000012406123    -0.000020165527
       9        0.000000555859    -0.000003085773     0.000014371016
      10        0.000015949469    -0.000008970620     0.000018003323

  **** Optimization is complete! (in 19 steps) ****
    Final optimized geometry and variables:
    Molecular point group: c1

    Geometry (in Angstrom), charge = 0, multiplicity = 1:

    H            1.533440420499     0.852335350917    -1.592039836399
    O            0.745612956677     0.421016154472    -1.317466178423
    C            0.378366804647     0.846413257080    -0.038647398953
    C           -0.795627325809     0.025652419854     0.454192348646
    H            0.101202598681     1.898758171241    -0.031448060201
    H            1.206324982883     0.733696742110     0.660725039503
    O           -0.442041802880    -1.249800982190     0.905683112019
    H           -1.495134371270    -0.112970701781    -0.357673224654
    H           -1.301190565986     0.580349256686     1.241785446264
    H            0.105711970226    -1.182288785137     1.666124196554

  Mulliken Charges: (a.u.)
   Center  Symbol    Alpha    Beta     Spin     Total
       1     H     0.39509  0.39509  0.00000  0.20982
       2     O     4.19262  4.19262  0.00000 -0.38524
       3     C     2.95978  2.95978  0.00000  0.08044
       4     C     2.96678  2.96678  0.00000  0.06644
       5     H     0.47781  0.47781  0.00000  0.04439
       6     H     0.48429  0.48429  0.00000  0.03142
       7     O     4.19813  4.19813  0.00000 -0.39625
       8     H     0.45433  0.45433  0.00000  0.09133
       9     H     0.47434  0.47434  0.00000  0.05132
      10     H     0.39683  0.39683  0.00000  0.20634

   Total alpha = 17.00000, Total beta = 17.00000, Total charge = -0.00000

*** Psi4 exiting successfully. Buy a developer a beer!
