  ==> Input File <==

--------------------------------------------------------------------------
set {
	reference rhf
	basis cc-pvtz
}

set_num_threads( 4 )
memory 2 gb

molecule MOL {
0 1

H	 -0.264722	 1.119872	 -2.399138
C	 -1.022246	 1.042866	 -1.625917
O	 -0.775228	 0.000056	 -0.739966
H	 -1.968481	 0.829156	 -2.102486
H	 -1.105305	 2.002377	 -1.125844
C	 0.406133	 -0.000384	 0.036994
C	 1.526415	 -0.003194	 -0.997339
C	 0.498772	 1.259027	 0.900673
C	 0.495883	 -1.257378	 0.904465
H	 1.452279	 0.872071	 -1.630204
H	 1.451276	 -0.881020	 -1.626529
H	 2.497919	 -0.002741	 -0.517601
H	 0.368981	 2.144239	 0.289753
H	 1.470064	 1.313479	 1.377660
H	 -0.248448	 1.271586	 1.684297
H	 0.363971	 -2.144195	 0.296316
H	 1.467114	 -1.312636	 1.381470
H	 -0.251246	 -1.265768	 1.688235

	symmetry c1
}
set optking {
	frozen_dihedral = ("
		2 3 6 7
	")
}

ee = optimize('scf')
oeprop('DIPOLE', 'QUADRUPOLE', 'MULLIKEN_CHARGES')
f=open( 'psi4out.xyz', 'w' )
f.write( "18  " )
f.write( str(ee) + "\n" )
f.write( MOL.save_string_xyz() )
f.close()
--------------------------------------------------------------------------

    Molecular point group: c1
  Charge       = 0
  Multiplicity = 1
  Basis Set: CC-PVTZ
  Basis Set:
  @DF-RHF Final Energy:  -271.26834523221106
    Total Energy =                       -271.2683452322111748
    Molecular point group: c1
  Basis Set: CC-PVTZ
  Basis Set:
  Basis Set: CC-PVTZ
  Basis Set:
  @DF-RHF Final Energy:  -271.27304363326908
    Total Energy =                       -271.2730436332687418
  Basis Set: CC-PVTZ
  Basis Set:
  Basis Set: CC-PVTZ
  Basis Set:
  @DF-RHF Final Energy:  -271.27599020709403
    Total Energy =                       -271.2759902070943099
  Basis Set: CC-PVTZ
  Basis Set:
  Basis Set: CC-PVTZ
  Basis Set:
  @DF-RHF Final Energy:  -271.27670190327990
    Total Energy =                       -271.2767019032800135
  Basis Set: CC-PVTZ
  Basis Set:
  Basis Set: CC-PVTZ
  Basis Set:
  @DF-RHF Final Energy:  -271.27674636736867
    Total Energy =                       -271.2767463673689008
  Basis Set: CC-PVTZ
  Basis Set:
  Basis Set: CC-PVTZ
  Basis Set:
  @DF-RHF Final Energy:  -271.27675264343668
    Total Energy =                       -271.2767526434370211
  Basis Set: CC-PVTZ
  Basis Set:
  Basis Set: CC-PVTZ
  Basis Set:
  @DF-RHF Final Energy:  -271.27675387993133
    Total Energy =                       -271.2767538799313911
  Basis Set: CC-PVTZ
  Basis Set:
  Charge       = 0
  Multiplicity = 1
  Basis Set: CC-PVTZ
  Basis Set:

    Orbital Energies (a.u.)
    -----------------------

    Doubly Occupied:

       1A    -20.540633     2A    -11.280135     3A    -11.258055
       4A    -11.207309     5A    -11.206841     6A    -11.201797
       7A     -1.373639     8A     -1.074661     9A     -0.946740
      10A     -0.940805    11A     -0.913192    12A     -0.753500
      13A     -0.656633    14A     -0.646655    15A     -0.639402
      16A     -0.593840    17A     -0.575979    18A     -0.553304
      19A     -0.534353    20A     -0.524866    21A     -0.515070
      22A     -0.488284    23A     -0.487945    24A     -0.440773
      25A     -0.407695

  @DF-RHF Final Energy:  -271.27675497585005

   => Energetics <=

    Nuclear Repulsion Energy =            272.6594288555577350
    One-Electron Energy =                -908.3481552273229909
    Two-Electron Energy =                 364.4119713959152591
    DFT Exchange-Correlation Energy =       0.0000000000000000
    Empirical Dispersion Energy =           0.0000000000000000
    PCM Polarization Energy =               0.0000000000000000
    EFP Energy =                            0.0000000000000000
    Total Energy =                       -271.2767549758499968
    Molecular point group: c1
  Basis Set: CC-PVTZ
  Basis Set:

  -Total Gradient:
     Atom            X                  Y                   Z
    ------   -----------------  -----------------  -----------------
       1       -0.000014292628    -0.000002306708     0.000004647434
       2        0.000000109565    -0.000021851847    -0.000052461997
       3       -0.000020235108     0.000083903846     0.000052386869
       4        0.000000668843    -0.000001112767    -0.000002008250
       5       -0.000011350405    -0.000003929066    -0.000015709082
       6        0.000002085880    -0.000106003474    -0.000027051969
       7        0.000026885675     0.000053086090    -0.000023610982
       8        0.000005747765     0.000006617853     0.000028858200
       9        0.000005324926     0.000014968438     0.000009607172
      10        0.000010586149    -0.000003535543     0.000002713801
      11        0.000002993668    -0.000005073031    -0.000003298945
      12       -0.000008853775    -0.000001883935     0.000000521982
      13        0.000004603673    -0.000023408803     0.000010606027
      14       -0.000000710370     0.000003298206     0.000003684022
      15       -0.000004980975     0.000013361773     0.000004908103
      16       -0.000001807325     0.000008082789     0.000005845252
      17        0.000004120441    -0.000009134909     0.000000747021
      18       -0.000000895997    -0.000005078912    -0.000000384658

  **** Optimization is complete! (in 8 steps) ****
    Final optimized geometry and variables:
    Molecular point group: c1

    Geometry (in Angstrom), charge = 0, multiplicity = 1:

    H           -0.638745787260     0.822344930020    -2.170003366822
    C           -1.310363400647     0.791854451065    -1.318218132000
    O           -0.969958933843    -0.202765433378    -0.408079876438
    H           -2.301548577006     0.557269594322    -1.679688881894
    H           -1.340842936607     1.777835339901    -0.865904557223
    C            0.273205247097    -0.149276578035     0.263529222887
    C            1.439768239807    -0.178611234977    -0.725808824571
    C            0.358927014195     1.086061882607     1.162202521926
    C            0.284834324169    -1.412702196165     1.117032781606
    H            1.500342605832     0.730175966483    -1.311496232813
    H            1.337348639348    -1.017065809772    -1.404272101559
    H            2.377092232112    -0.284406839046    -0.192906436865
    H            0.404320989690     2.003949162888     0.589592911789
    H            1.251649160471     1.041361183983     1.774597649182
    H           -0.502256253656     1.134015023336     1.817657085112
    H            0.202950367241    -2.289551136624     0.487325777546
    H            1.199739271640    -1.483872211862     1.693102126795
    H           -0.555062842336    -1.409141652199     1.800136999790

  Mulliken Charges: (a.u.)
   Center  Symbol    Alpha    Beta     Spin     Total
       1     H     0.46950  0.46950  0.00000  0.06101
       2     C     3.04425  3.04425  0.00000 -0.08849
       3     O     4.18985  4.18985  0.00000 -0.37970
       4     H     0.44026  0.44026  0.00000  0.11948
       5     H     0.47005  0.47005  0.00000  0.05990
       6     C     2.87281  2.87281  0.00000  0.25439
       7     C     3.16543  3.16543  0.00000 -0.33086
       8     C     3.16351  3.16351  0.00000 -0.32702
       9     C     3.14153  3.14153  0.00000 -0.28305
      10     H     0.44932  0.44932  0.00000  0.10135
      11     H     0.44498  0.44498  0.00000  0.11004
      12     H     0.44805  0.44805  0.00000  0.10391
      13     H     0.44947  0.44947  0.00000  0.10106
      14     H     0.44872  0.44872  0.00000  0.10256
      15     H     0.44527  0.44527  0.00000  0.10945
      16     H     0.44896  0.44896  0.00000  0.10208
      17     H     0.45938  0.45938  0.00000  0.08124
      18     H     0.44867  0.44867  0.00000  0.10266

   Total alpha = 25.00000, Total beta = 25.00000, Total charge =  0.00000
