  ==> Input File <==

--------------------------------------------------------------------------
set {
	reference rhf
	basis 6-31G*
}

set_num_threads( 4 )
memory 2 gb

molecule MOL {
0 1

H	 -1.984672	 1.687191	 -1.106127
C	 -1.238541	 2.198861	 -0.510452
C	 0.089409	 1.451492	 -0.537799
H	 -1.621737	 2.273142	 0.499957
H	 -1.114985	 3.202231	 -0.904482
C	 -0.000005	 0.033229	 -0.000001
H	 0.842929	 1.982240	 0.040914
H	 0.483243	 1.401469	 -1.551105
C	 1.290528	 -0.768786	 0.000276
O	 -1.026288	 -0.425039	 0.399897
C	 2.545731	 0.095645	 -0.000061
H	 1.275672	 -1.427874	 -0.865626
H	 1.275566	 -1.427086	 0.866768
H	 2.577157	 0.734767	 -0.874036
H	 3.433520	 -0.528139	 0.000137
H	 2.577172	 0.735117	 0.873581

	symmetry c1
}
set optking {
	frozen_dihedral = ("
		3 6 9 12
	")
}

ee = optimize('scf')
oeprop('DIPOLE', 'QUADRUPOLE', 'MULLIKEN_CHARGES')
f=open( 'psi4out.xyz', 'w' )
f.write( "16  " )
f.write( str(ee) + "\n" )
f.write( MOL.save_string_xyz() )
f.close()
--------------------------------------------------------------------------

    Molecular point group: c1
  Charge       = 0
  Multiplicity = 1
  Basis Set: 6-31G*
  Basis Set:
  @DF-RHF Final Energy:  -270.02721322083880
    Total Energy =                       -270.0272132208389166
    Molecular point group: c1
  Basis Set: 6-31G*
  Basis Set:
  Basis Set: 6-31G*
  Basis Set:
  @DF-RHF Final Energy:  -270.02841729176617
    Total Energy =                       -270.0284172917662886
  Basis Set: 6-31G*
  Basis Set:
  Basis Set: 6-31G*
  Basis Set:
  @DF-RHF Final Energy:  -270.02877015218860
    Total Energy =                       -270.0287701521885992
  Basis Set: 6-31G*
  Basis Set:
  Basis Set: 6-31G*
  Basis Set:
  @DF-RHF Final Energy:  -270.02935528359069
    Total Energy =                       -270.0293552835906326
  Basis Set: 6-31G*
  Basis Set:
  Basis Set: 6-31G*
  Basis Set:
  @DF-RHF Final Energy:  -270.02944132482850
    Total Energy =                       -270.0294413248285537
  Basis Set: 6-31G*
  Basis Set:
  Basis Set: 6-31G*
  Basis Set:
  @DF-RHF Final Energy:  -270.02944227044878
    Total Energy =                       -270.0294422704487260
  Basis Set: 6-31G*
  Basis Set:
  Basis Set: 6-31G*
  Basis Set:
  @DF-RHF Final Energy:  -270.02944329390488
    Total Energy =                       -270.0294432939048193
  Basis Set: 6-31G*
  Basis Set:
  Charge       = 0
  Multiplicity = 1
  Basis Set: 6-31G*
  Basis Set:

    Orbital Energies (a.u.)
    -----------------------

    Doubly Occupied:

       1A    -20.546905     2A    -11.323809     3A    -11.233711
       4A    -11.233377     5A    -11.228165     6A    -11.212717
       7A     -1.393657     8A     -1.072237     9A     -1.035026
      10A     -0.907342    11A     -0.866737    12A     -0.722103
      13A     -0.656514    14A     -0.644622    15A     -0.630150
      16A     -0.609047    17A     -0.553409    18A     -0.542249
      19A     -0.535494    20A     -0.510375    21A     -0.506682
      22A     -0.500802    23A     -0.472841    24A     -0.396263

  @DF-RHF Final Energy:  -270.02944338095244

   => Energetics <=

    Nuclear Repulsion Energy =            240.4477949197356281
    One-Electron Energy =                -842.2860125911919340
    Two-Electron Energy =                 331.8087742905038908
    DFT Exchange-Correlation Energy =       0.0000000000000000
    Empirical Dispersion Energy =           0.0000000000000000
    PCM Polarization Energy =               0.0000000000000000
    EFP Energy =                            0.0000000000000000
    Total Energy =                       -270.0294433809523866
    Molecular point group: c1
  Basis Set: 6-31G*
  Basis Set:

  -Total Gradient:
     Atom            X                  Y                   Z
    ------   -----------------  -----------------  -----------------
       1       -0.000004580330     0.000003395771     0.000001747640
       2       -0.000003063640    -0.000010008936    -0.000009256909
       3        0.000256055585     0.000383665269     0.001002289807
       4       -0.000000087439    -0.000000272568    -0.000000056650
       5        0.000003028294    -0.000001783441    -0.000000012349
       6       -0.000497425585    -0.000726789717    -0.001314908954
       7        0.000000098758     0.000005978731    -0.000007264822
       8        0.000001594574     0.000000595652    -0.000000920304
       9        0.000848193130     0.001289112227    -0.000422189831
      10        0.000020077680    -0.000017087464    -0.000002569343
      11       -0.000001834592     0.000011896520    -0.000002300787
      12       -0.000618524214    -0.000956086367     0.000765951649
      13       -0.000008003728     0.000012794187    -0.000008810168
      14        0.000005988336     0.000008688943    -0.000009450927
      15       -0.000012211271    -0.000003454125     0.000001456045
      16        0.000010694446    -0.000000644683     0.000006295903

  **** Optimization is complete! (in 8 steps) ****
    Final optimized geometry and variables:
    Molecular point group: c1

    Geometry (in Angstrom), charge = 0, multiplicity = 1:

    H           -2.289120319846     1.179576048483    -1.056820436490
    C           -1.595274125256     1.729122088356    -0.432323843201
    C           -0.226419914254     1.059472865456    -0.413950904232
    H           -2.018193865827     1.774704141930     0.563516396064
    H           -1.514539546849     2.740292978081    -0.817632986008
    C           -0.260690226766    -0.361199145529     0.119508876300
    H            0.472049853638     1.631697775554     0.192255453157
    H            0.206258947522     1.037661445421    -1.412482591937
    C            1.019129658539    -1.189349206872     0.105927252248
    O           -1.271101868170    -0.848547149020     0.527617284278
    C            2.349393398359    -0.436190786444     0.090426227408
    H            0.947787121070    -1.840368877071    -0.763573095688
    H            0.963296938442    -1.844855732496     0.967488492271
    H            2.464254690275     0.178265615181    -0.795675165093
    H            3.171886963794    -1.142895486024     0.105304129558
    H            2.455794038158     0.205421303550     0.959480097275

  Mulliken Charges: (a.u.)
   Center  Symbol    Alpha    Beta     Spin     Total
       1     H     0.41123  0.41123  0.00000  0.17754
       2     C     3.23399  3.23399  0.00000 -0.46799
       3     C     3.21125  3.21125  0.00000 -0.42250
       4     H     0.40964  0.40964  0.00000  0.18073
       5     H     0.42056  0.42056  0.00000  0.15888
       6     C     2.73510  2.73510  0.00000  0.52980
       7     H     0.40640  0.40640  0.00000  0.18720
       8     H     0.40949  0.40949  0.00000  0.18101
       9     C     3.20123  3.20123  0.00000 -0.40247
      10     O     4.26581  4.26581  0.00000 -0.53162
      11     C     3.24999  3.24999  0.00000 -0.49998
      12     H     0.40316  0.40316  0.00000  0.19368
      13     H     0.39824  0.39824  0.00000  0.20353
      14     H     0.41679  0.41679  0.00000  0.16642
      15     H     0.41120  0.41120  0.00000  0.17759
      16     H     0.41592  0.41592  0.00000  0.16817

   Total alpha = 24.00000, Total beta = 24.00000, Total charge =  0.00000
