  ==> Input File <==

--------------------------------------------------------------------------
set {
	reference rhf
	basis 6-31G*
}

set_num_threads( 4 )
memory 2 gb

molecule MOL {
0 1

H	 -3.683077	 -0.180982	 0.246418
C	 -3.336902	 0.138766	 -0.744313
C	 -2.409844	 1.327534	 -0.742413
O	 -3.694901	 -0.440820	 -1.717795
C	 -1.220012	 1.144545	 0.209990
H	 -2.082085	 1.507379	 -1.759732
H	 -2.995059	 2.188996	 -0.422941
C	 -0.252658	 0.041456	 -0.226725
H	 -0.685339	 2.087340	 0.277419
H	 -1.588911	 0.933597	 1.212572
C	 1.180775	 0.282413	 0.250794
H	 -0.266029	 -0.034465	 -1.312038
H	 -0.597733	 -0.921000	 0.146291
C	 2.148627	 -0.814315	 -0.201312
H	 1.516199	 1.249228	 -0.115937
H	 1.192670	 0.346017	 1.338083
C	 3.580890	 -0.659131	 0.322722
H	 2.166869	 -0.852443	 -1.289387
H	 1.762857	 -1.776509	 0.128956
C	 4.324889	 0.564933	 -0.213704
H	 4.142010	 -1.551473	 0.056605
H	 3.564836	 -0.624694	 1.410140
H	 4.342616	 0.565491	 -1.300421
H	 3.866655	 1.493402	 0.110242
H	 5.353900	 0.572371	 0.132816

	symmetry c1
}
set optking {
	frozen_dihedral = ("
		3 5 8 12
	")
}

ee = optimize('scf')
oeprop('DIPOLE', 'QUADRUPOLE', 'MULLIKEN_CHARGES')
f=open( 'psi4out.xyz', 'w' )
f.write( "25  " )
f.write( str(ee) + "\n" )
f.write( MOL.save_string_xyz() )
f.close()
--------------------------------------------------------------------------

    Molecular point group: c1
  Charge       = 0
  Multiplicity = 1
  Basis Set: 6-31G*
  Basis Set:
  @DF-RHF Final Energy:  -387.11969853762616
    Total Energy =                       -387.1196985376263910
    Molecular point group: c1
  Basis Set: 6-31G*
  Basis Set:
  Basis Set: 6-31G*
  Basis Set:
  @DF-RHF Final Energy:  -387.11968575640981
    Total Energy =                       -387.1196857564098082
  Basis Set: 6-31G*
  Basis Set:
  Basis Set: 6-31G*
  Basis Set:
  @DF-RHF Final Energy:  -387.11762220319764
    Total Energy =                       -387.1176222031974703
  Basis Set: 6-31G*
  Basis Set:
  Basis Set: 6-31G*
  Basis Set:
  @DF-RHF Final Energy:  -387.11988706133349
    Total Energy =                       -387.1198870613335430
  Basis Set: 6-31G*
  Basis Set:
  @DF-RHF Final Energy:  -387.11996878311862
    Total Energy =                       -387.1199687831187930
  Basis Set: 6-31G*
  Basis Set:
  @DF-RHF Final Energy:  -387.11978878668214
    Total Energy =                       -387.1197887866821929
  Basis Set: 6-31G*
  Basis Set:
  Basis Set: 6-31G*
  Basis Set:
  @DF-RHF Final Energy:  -387.11997916154820
    Total Energy =                       -387.1199791615480308
  Basis Set: 6-31G*
  Basis Set:
  Basis Set: 6-31G*
  Basis Set:
  @DF-RHF Final Energy:  -387.11998633605600
    Total Energy =                       -387.1199863360561721
  Basis Set: 6-31G*
  Basis Set:
  Charge       = 0
  Multiplicity = 1
  Basis Set: 6-31G*
  Basis Set:

    Orbital Energies (a.u.)
    -----------------------

    Doubly Occupied:

       1A    -20.561845     2A    -11.325778     3A    -11.235265
       4A    -11.234665     5A    -11.223258     6A    -11.219945
       7A    -11.217863     8A    -11.216684     9A    -11.210411
      10A     -1.401602    11A     -1.102969    12A     -1.069346
      13A     -1.013014    14A     -0.941837    15A     -0.875339
      16A     -0.821858    17A     -0.786245    18A     -0.781898
      19A     -0.665271    20A     -0.658925    21A     -0.633951
      22A     -0.624775    23A     -0.602161    24A     -0.591795
      25A     -0.577543    26A     -0.546738    27A     -0.537021
      28A     -0.524022    29A     -0.509138    30A     -0.495702
      31A     -0.491182    32A     -0.477242    33A     -0.463829
      34A     -0.459048    35A     -0.441084    36A     -0.408858

  @DF-RHF Final Energy:  -387.11998703040882

   => Energetics <=

    Nuclear Repulsion Energy =            439.3437283464938332
    One-Electron Energy =               -1395.0312180481018913
    Two-Electron Energy =                 568.5675026711993496
    DFT Exchange-Correlation Energy =       0.0000000000000000
    Empirical Dispersion Energy =           0.0000000000000000
    PCM Polarization Energy =               0.0000000000000000
    EFP Energy =                            0.0000000000000000
    Total Energy =                       -387.1199870304086517
    Molecular point group: c1
  Basis Set: 6-31G*
  Basis Set:

  -Total Gradient:
     Atom            X                  Y                   Z
    ------   -----------------  -----------------  -----------------
       1        0.000008314020    -0.000018425937     0.000014272760
       2       -0.000030347063    -0.000010956320     0.000021515201
       3        0.001523633191     0.001930648494    -0.001445342311
       4        0.000003497655     0.000038350768    -0.000004628359
       5       -0.002739500392    -0.003341003498     0.002118776126
       6        0.000000828611     0.000023021466    -0.000012161933
       7       -0.000039612487    -0.000012200128    -0.000022848397
       8        0.004069896839     0.004065960228    -0.000875135537
       9       -0.000031392825     0.000018876400    -0.000022714937
      10        0.000020212013     0.000018692292    -0.000005889868
      11       -0.000003669572    -0.000043343227     0.000084518999
      12       -0.002818612108    -0.002654054120     0.000233186270
      13        0.000013648932    -0.000012849012    -0.000033667713
      14        0.000032528832     0.000009209599    -0.000044407629
      15        0.000013772382    -0.000037029324    -0.000005655313
      16       -0.000040202090     0.000033518121     0.000024593007
      17       -0.000008273397     0.000012689784    -0.000016303066
      18       -0.000003866106    -0.000018439632    -0.000010171059
      19        0.000029965138     0.000004552835     0.000008515058
      20        0.000020087049    -0.000006269982    -0.000006328253
      21       -0.000005961145    -0.000008031986     0.000008521714
      22       -0.000016204815     0.000012201079    -0.000003139461
      23       -0.000002176811     0.000006747427    -0.000006274073
      24        0.000001688338    -0.000010282710     0.000009604914
      25        0.000001745820    -0.000001582616    -0.000008836136

  **** Optimization is complete! (in 9 steps) ****
    Final optimized geometry and variables:
    Molecular point group: c1

    Geometry (in Angstrom), charge = 0, multiplicity = 1:

    H           -3.717823962192    -0.431837516626     0.559510295536
    C           -3.356927182253    -0.068856744024    -0.410871119556
    C           -2.493751006835     1.165263169358    -0.349647270617
    O           -3.652083768514    -0.641022618271    -1.409787329809
    C           -1.281462110574     0.986884390317     0.575925737964
    H           -2.183157522285     1.415822381775    -1.357055614650
    H           -3.114735191172     1.977946147801     0.024619825840
    C           -0.297228375417    -0.093403718029     0.100500175198
    H           -0.770494448059     1.944225034446     0.628799860406
    H           -1.613895141102     0.768913459535     1.588213957893
    C            1.133384208132     0.132439379073     0.590239814181
    H           -0.321267595511    -0.159163295015    -0.984869166468
    H           -0.641314161408    -1.066891404961     0.446365774488
    C            2.089703273874    -0.986349515827     0.169573030391
    H            1.486636179982     1.087915948809     0.211330086388
    H            1.132071173631     0.215255651560     1.676449370681
    C            3.522074540124    -0.834608609003     0.694393121865
    H            2.111015943022    -1.051626857445    -0.917066847353
    H            1.691742191788    -1.935513828209     0.522089317498
    C            4.284747223155     0.363172261712     0.125157741785
    H            4.072057419619    -1.741951464446     0.457579667875
    H            3.501933523070    -0.767636601059     1.780332236336
    H            4.309368436497     0.329650242522    -0.960760619169
    H            3.836564996983     1.307162870565     0.417068604359
    H            5.311498077230     0.368652122138     0.477802846184

  Mulliken Charges: (a.u.)
   Center  Symbol    Alpha    Beta     Spin     Total
       1     H     0.43264  0.43264  0.00000  0.13471
       2     C     2.83045  2.83045  0.00000  0.33909
       3     C     3.20910  3.20910  0.00000 -0.41821
       4     O     4.23776  4.23776  0.00000 -0.47553
       5     C     3.16618  3.16618  0.00000 -0.33236
       6     H     0.39973  0.39973  0.00000  0.20054
       7     H     0.40779  0.40779  0.00000  0.18441
       8     C     3.15819  3.15819  0.00000 -0.31639
       9     H     0.41275  0.41275  0.00000  0.17450
      10     H     0.41753  0.41753  0.00000  0.16493
      11     C     3.15461  3.15461  0.00000 -0.30922
      12     H     0.41411  0.41411  0.00000  0.17178
      13     H     0.41980  0.41980  0.00000  0.16040
      14     C     3.15347  3.15347  0.00000 -0.30695
      15     H     0.42034  0.42034  0.00000  0.15931
      16     H     0.42351  0.42351  0.00000  0.15299
      17     C     3.15278  3.15278  0.00000 -0.30557
      18     H     0.42229  0.42229  0.00000  0.15542
      19     H     0.42113  0.42113  0.00000  0.15774
      20     C     3.24133  3.24133  0.00000 -0.48266
      21     H     0.41998  0.41998  0.00000  0.16004
      22     H     0.42342  0.42342  0.00000  0.15315
      23     H     0.42160  0.42160  0.00000  0.15680
      24     H     0.42076  0.42076  0.00000  0.15849
      25     H     0.41871  0.41871  0.00000  0.16257

   Total alpha = 36.00000, Total beta = 36.00000, Total charge =  0.00000
