  ==> Input File <==

--------------------------------------------------------------------------
set {
	reference rhf
	basis 6-31G*
}

set_num_threads( 1 )
memory 2 gb

molecule MOL {
0 1

H	 3.893188	 0.355400	 -0.101367
N	 3.092854	 -0.246221	 -0.068770
C	 1.865559	 0.531981	 0.018834
H	 3.199514	 -0.826043	 0.741946
C	 0.645745	 -0.382037	 -0.029944
H	 1.841966	 1.207024	 -0.831236
H	 1.815756	 1.155410	 0.915079
C	 -0.679275	 0.379305	 0.025956
H	 0.698998	 -0.976915	 -0.937203
H	 0.693479	 -1.083846	 0.802235
C	 -1.272025	 0.454755	 1.434263
H	 -1.397860	 -0.097883	 -0.638707
H	 -0.535851	 1.389045	 -0.355754
C	 -2.598010	 1.212862	 1.484737
H	 -1.417421	 -0.552941	 1.817175
H	 -0.557191	 0.933529	 2.100179
H	 -3.345091	 0.738392	 0.854606
H	 -2.992865	 1.248703	 2.495385
H	 -2.478208	 2.236214	 1.140078

	symmetry c1
}
set optking {
	frozen_dihedral = ("
		6 3 5 9,
		12 8 11 15,
		1 2 3 6
	")
}

ee = energy('scf')
oeprop('DIPOLE', 'QUADRUPOLE', 'MULLIKEN_CHARGES')
f=open( 'psi4out.xyz', 'w' )
f.write( "19  " )
f.write( str(ee) + "\n" )
f.write( MOL.save_string_xyz() )
f.close()
--------------------------------------------------------------------------

    Molecular point group: c1

    Geometry (in Angstrom), charge = 0, multiplicity = 1:

       Center              X                  Y                   Z               Mass
    ------------   -----------------  -----------------  -----------------  -----------------
           H          3.683472179056     0.026079031052    -0.587083011556     1.007825032070
           N          2.883138179056    -0.575541968948    -0.554486011556    14.003074004780
           C          1.655843179056     0.202660031052    -0.466882011556    12.000000000000
           H          2.989798179056    -1.155363968948     0.256229988444     1.007825032070
           C          0.436029179056    -0.711357968948    -0.515660011556    12.000000000000
           H          1.632250179056     0.877703031052    -1.316952011556     1.007825032070
           H          1.606040179056     0.826089031052     0.429362988444     1.007825032070
           C         -0.888990820944     0.049984031052    -0.459760011556    12.000000000000
           H          0.489282179056    -1.306235968948    -1.422919011556     1.007825032070
           H          0.483763179056    -1.413166968948     0.316518988444     1.007825032070
           C         -1.481740820944     0.125434031052     0.948546988444    12.000000000000
           H         -1.607575820944    -0.427203968948    -1.124423011556     1.007825032070
           H         -0.745566820944     1.059724031052    -0.841470011556     1.007825032070
           C         -2.807725820944     0.883541031052     0.999020988444    12.000000000000
           H         -1.627136820944    -0.882261968948     1.331458988444     1.007825032070
           H         -0.766906820944     0.604208031052     1.614462988444     1.007825032070
           H         -3.554806820944     0.409071031052     0.368889988444     1.007825032070
           H         -3.202580820944     0.919382031052     2.009668988444     1.007825032070
           H         -2.687923820944     1.906893031052     0.654361988444     1.007825032070

  Charge       = 0
  Multiplicity = 1
  Basis Set: 6-31G*
  Basis Set:

    Orbital Energies (a.u.)
    -----------------------

    Doubly Occupied:

       1A    -15.532436     2A    -11.239960     3A    -11.214803
       4A    -11.211908     5A    -11.208338     6A    -11.207885
       7A     -1.176671     8A     -1.073752     9A     -0.997630
      10A     -0.899535    11A     -0.820929    12A     -0.784969
      13A     -0.659491    14A     -0.636841    15A     -0.623918
      16A     -0.591358    17A     -0.564640    18A     -0.550479
      19A     -0.531346    20A     -0.497750    21A     -0.483452
      22A     -0.466529    23A     -0.456848    24A     -0.447875
      25A     -0.380709

  @DF-RHF Final Energy:  -251.34790154825026

   => Energetics <=

    Nuclear Repulsion Energy =            248.0656154033296730
    One-Electron Energy =                -830.3070938963302297
    Two-Electron Energy =                 330.8935769447504072
    DFT Exchange-Correlation Energy =       0.0000000000000000
    Empirical Dispersion Energy =           0.0000000000000000
    PCM Polarization Energy =               0.0000000000000000
    EFP Energy =                            0.0000000000000000
    Total Energy =                       -251.3479015482502064

  Mulliken Charges: (a.u.)
   Center  Symbol    Alpha    Beta     Spin     Total
       1     H     0.33258  0.33258  0.00000  0.33483
       2     N     3.92193  3.92193  0.00000 -0.84386
       3     C     3.06217  3.06217  0.00000 -0.12435
       4     H     0.33529  0.33529  0.00000  0.32943
       5     C     3.15386  3.15386  0.00000 -0.30772
       6     H     0.42033  0.42033  0.00000  0.15933
       7     H     0.43449  0.43449  0.00000  0.13102
       8     C     3.15797  3.15797  0.00000 -0.31595
       9     H     0.41081  0.41081  0.00000  0.17838
      10     H     0.42608  0.42608  0.00000  0.14784
      11     C     3.15260  3.15260  0.00000 -0.30520
      12     H     0.41982  0.41982  0.00000  0.16036
      13     H     0.42306  0.42306  0.00000  0.15388
      14     C     3.23946  3.23946  0.00000 -0.47892
      15     H     0.42238  0.42238  0.00000  0.15524
      16     H     0.42393  0.42393  0.00000  0.15215
      17     H     0.42147  0.42147  0.00000  0.15706
      18     H     0.41977  0.41977  0.00000  0.16046
      19     H     0.42198  0.42198  0.00000  0.15603

   Total alpha = 25.00000, Total beta = 25.00000, Total charge = -0.00000
