  ==> Input File <==

--------------------------------------------------------------------------
set {
	reference rhf
	basis cc-pvtz
}

set_num_threads( 4 )
memory 2 gb

molecule MOL {
0 1

H	 2.867672	 -0.456275	 0.875795
C	 2.403497	 -0.020426	 0.000000
N	 0.989899	 -0.304564	 0.000000
H	 2.867672	 -0.456275	 -0.875795
H	 2.620366	 1.051270	 0.000000
C	 0.649415	 -1.418791	 -0.860313
C	 0.191777	 0.857976	 -0.330257
H	 0.917603	 -1.216132	 -1.901826
H	 1.202460	 -2.295578	 -0.543906
C	 -0.837641	 -1.705079	 -0.776978
H	 0.409038	 1.651727	 0.375069
H	 0.425544	 1.231881	 -1.331902
C	 -1.283520	 0.513188	 -0.260541
H	 -1.116087	 -2.474025	 -1.483955
H	 -1.085773	 -2.050928	 0.224480
O	 -1.588493	 -0.569296	 -1.089012
H	 -1.884265	 1.347690	 -0.594218
H	 -1.554725	 0.282128	 0.767641

	symmetry c1
}
set optking {
	frozen_dihedral = ("
		6 3 2 5
	")
}

ee = optimize('scf')
oeprop('DIPOLE', 'QUADRUPOLE', 'MULLIKEN_CHARGES')
f=open( 'psi4out.xyz', 'w' )
f.write( "18  " )
f.write( str(ee) + "\n" )
f.write( MOL.save_string_xyz() )
f.close()
--------------------------------------------------------------------------

    Molecular point group: c1
  Charge       = 0
  Multiplicity = 1
  Basis Set: CC-PVTZ
  Basis Set:
  @DF-RHF Final Energy:  -325.14011523977956
    Total Energy =                       -325.1401152397793339
    Molecular point group: c1
  Basis Set: CC-PVTZ
  Basis Set:
  Basis Set: CC-PVTZ
  Basis Set:
  @DF-RHF Final Energy:  -325.14075884325518
    Total Energy =                       -325.1407588432551847
  Basis Set: CC-PVTZ
  Basis Set:
  Basis Set: CC-PVTZ
  Basis Set:
  @DF-RHF Final Energy:  -325.14085404122505
    Total Energy =                       -325.1408540412253387
  Basis Set: CC-PVTZ
  Basis Set:
  Charge       = 0
  Multiplicity = 1
  Basis Set: CC-PVTZ
  Basis Set:

    Orbital Energies (a.u.)
    -----------------------

    Doubly Occupied:

       1A    -20.547057     2A    -15.542772     3A    -11.263706
       4A    -11.263681     5A    -11.242494     6A    -11.242336
       7A    -11.238900     8A     -1.386039     9A     -1.230432
      10A     -1.038543    11A     -0.981107    12A     -0.883227
      13A     -0.870366    14A     -0.774748    15A     -0.684549
      16A     -0.645556    17A     -0.644122    18A     -0.632100
      19A     -0.629180    20A     -0.573049    21A     -0.557770
      22A     -0.546966    23A     -0.526481    24A     -0.500220
      25A     -0.483284    26A     -0.453344    27A     -0.409970
      28A     -0.352858

  @DF-RHF Final Energy:  -325.14085608734689

   => Energetics <=

    Nuclear Repulsion Energy =            341.5501209071738344
    One-Electron Energy =               -1119.0922389144070621
    Two-Electron Energy =                 452.4012619198865650
    DFT Exchange-Correlation Energy =       0.0000000000000000
    Empirical Dispersion Energy =           0.0000000000000000
    PCM Polarization Energy =               0.0000000000000000
    EFP Energy =                            0.0000000000000000
    Total Energy =                       -325.1408560873467195
    Molecular point group: c1
  Basis Set: CC-PVTZ
  Basis Set:

  -Total Gradient:
     Atom            X                  Y                   Z
    ------   -----------------  -----------------  -----------------
       1        0.000022465261    -0.000002220919     0.000028763746
       2       -0.000197442167     0.000709078059     0.003954419071
       3        0.000540928837    -0.002547458458     0.001989815054
       4       -0.000003405384    -0.000006934008     0.000001478835
       5        0.000075953144    -0.000059532180    -0.003813777575
       6       -0.000266802926     0.001876908730    -0.002247393776
       7       -0.000065081112    -0.000119896874     0.000082489647
       8        0.000024099448     0.000008542784    -0.000003858878
       9        0.000005828606     0.000022343903     0.000009841578
      10       -0.000007320024     0.000029854854     0.000093196560
      11       -0.000010522272    -0.000023098662    -0.000013808884
      12       -0.000027865396    -0.000005573417     0.000019441131
      13       -0.000046525126     0.000158686565    -0.000065320074
      14        0.000003201136     0.000012664586    -0.000005520121
      15       -0.000019064545    -0.000019685672     0.000008370181
      16        0.000020204426    -0.000020489230     0.000009108309
      17       -0.000082540704     0.000006996850    -0.000004075888
      18        0.000033888792    -0.000020186914    -0.000043168917

  **** Optimization is complete! (in 4 steps) ****
    Final optimized geometry and variables:
    Molecular point group: c1

    Geometry (in Angstrom), charge = 0, multiplicity = 1:

    H            2.812226253397    -0.093224915851     1.369809899920
    C            2.342892716136     0.344330386403     0.496589184549
    N            0.915734972747     0.075946068885     0.475072069800
    H            2.841948806870    -0.052565606165    -0.386050920118
    H            2.532398063147     1.410071197254     0.494984740477
    C            0.569212034029    -1.037109704644    -0.384704993785
    C            0.114777082128     1.236887403139     0.138922321840
    H            0.830496338014    -0.830759635966    -1.426847118867
    H            1.124990955307    -1.915433660615    -0.075806221179
    C           -0.916130260978    -1.328273813051    -0.291722687026
    H            0.329496179509     2.034686970454     0.839751795686
    H            0.339671172931     1.607331975504    -0.865960110976
    C           -1.359916140868     0.890798658885     0.219898518001
    H           -1.195756177675    -2.098872921885    -0.996671203551
    H           -1.157077579708    -1.674494446242     0.711425038849
    O           -1.672036788475    -0.195314286465    -0.600857297850
    H           -1.963719777894     1.724048037533    -0.112051305008
    H           -1.621848337890     0.664111147403     1.251526910132

  Mulliken Charges: (a.u.)
   Center  Symbol    Alpha    Beta     Spin     Total
       1     H     0.44851  0.44851  0.00000  0.10297
       2     C     3.09113  3.09113  0.00000 -0.18226
       3     N     3.61973  3.61973  0.00000 -0.23945
       4     H     0.46441  0.46441  0.00000  0.07118
       5     H     0.45681  0.45681  0.00000  0.08637
       6     C     3.04234  3.04234  0.00000 -0.08469
       7     C     3.04084  3.04084  0.00000 -0.08167
       8     H     0.46838  0.46838  0.00000  0.06324
       9     H     0.45352  0.45352  0.00000  0.09297
      10     C     2.98437  2.98437  0.00000  0.03127
      11     H     0.45372  0.45372  0.00000  0.09256
      12     H     0.46895  0.46895  0.00000  0.06209
      13     C     2.98462  2.98462  0.00000  0.03075
      14     H     0.45012  0.45012  0.00000  0.09977
      15     H     0.46799  0.46799  0.00000  0.06401
      16     O     4.18644  4.18644  0.00000 -0.37288
      17     H     0.44998  0.44998  0.00000  0.10005
      18     H     0.46814  0.46814  0.00000  0.06372

   Total alpha = 28.00000, Total beta = 28.00000, Total charge = -0.00000
