                              Psi4 1.0.54 Driver

  ==> Input File <==

--------------------------------------------------------------------------
set {
	reference rhf
	basis cc-pvtz
}

set_num_threads( 4 )
memory 2 gb

molecule MOL {
0 1

O	 -2.817697	 1.304178	 0.001046
C	 -2.664672	 0.129869	 0.003507
C	 -3.797908	 -0.860100	 -0.001145
O	 -1.481217	 -0.452708	 0.001092
H	 -4.408836	 -0.679689	 -0.875387
H	 -3.443486	 -1.878443	 -0.002770
H	 -4.412123	 -0.683688	 0.871605
C	 -0.332055	 0.384012	 -0.000250
C	 0.892252	 -0.506059	 -0.000295
H	 -0.360822	 1.020205	 -0.874146
H	 -0.359817	 1.021310	 0.872861
C	 2.088153	 0.161893	 -0.672620
H	 0.652256	 -1.434491	 -0.508316
H	 1.139562	 -0.764389	 1.024287
C	 3.335472	 -0.717419	 -0.684130
H	 1.828427	 0.426488	 -1.694633
H	 2.314569	 1.096037	 -0.164600
C	 4.531093	 -0.049849	 -1.354838
H	 3.110971	 -1.650494	 -1.193077
H	 3.596079	 -0.982344	 0.336647
H	 4.312910	 0.196412	 -2.388567
H	 5.398599	 -0.699358	 -1.346052
H	 4.801569	 0.869920	 -0.847174

	symmetry c1
}
set optking {
	frozen_dihedral = ("
		13 9 8 10
	")
}

ee,wfn = optimize('scf', return_wfn=True)
oeprop( wfn, 'DIPOLE', 'QUADRUPOLE', 'MULLIKEN_CHARGES')
f=open( 'psi4out.xyz', 'w' )
f.write( "23  " )
f.write( str(ee) + "\n" )
f.write( MOL.save_string_xyz() )
f.close()
--------------------------------------------------------------------------

    Molecular point group: c1
  Charge       = 0
  Multiplicity = 1
  Basis Set: CC-PVTZ
  Basis Set:
  @DF-RHF Final Energy:  -423.13199461296739
    Total Energy =                       -423.1319946129675600
    Molecular point group: c1
  Basis Set: CC-PVTZ
  Basis Set:
  Basis Set: CC-PVTZ
  Basis Set:
  @DF-RHF Final Energy:  -423.13204532157192
    Total Energy =                       -423.1320453215721500
  Basis Set: CC-PVTZ
  Basis Set:
  Basis Set: CC-PVTZ
  Basis Set:
  @DF-RHF Final Energy:  -423.13218214254482
    Total Energy =                       -423.1321821425451617
  Basis Set: CC-PVTZ
  Basis Set:
  Basis Set: CC-PVTZ
  Basis Set:
  @DF-RHF Final Energy:  -423.13230209375791
    Total Energy =                       -423.1323020937580850
  Basis Set: CC-PVTZ
  Basis Set:
  Basis Set: CC-PVTZ
  Basis Set:
  @DF-RHF Final Energy:  -423.13234273116944
    Total Energy =                       -423.1323427311690466
  Basis Set: CC-PVTZ
  Basis Set:
  Basis Set: CC-PVTZ
  Basis Set:
  @DF-RHF Final Energy:  -423.13234683833576
    Total Energy =                       -423.1323468383358204
  Basis Set: CC-PVTZ
  Basis Set:
  Basis Set: CC-PVTZ
  Basis Set:
  @DF-RHF Final Energy:  -423.13234974389189
    Total Energy =                       -423.1323497438919503
  Basis Set: CC-PVTZ
  Basis Set:
  Charge       = 0
  Multiplicity = 1
  Basis Set: CC-PVTZ
  Basis Set:

    Orbital Energies (a.u.)
    -----------------------

    Doubly Occupied:

       1A    -20.596775     2A    -20.530001     3A    -11.366781
       4A    -11.279187     5A    -11.231001     6A    -11.221994
       7A    -11.221238     8A    -11.219221     9A    -11.210816
      10A     -1.471774    11A     -1.364629    12A     -1.094415
      13A     -1.042913    14A     -1.004146    15A     -0.931788
      16A     -0.842916    17A     -0.803110    18A     -0.778655
      19A     -0.692548    20A     -0.687647    21A     -0.671665
      22A     -0.647521    23A     -0.607109    24A     -0.587940
      25A     -0.584416    26A     -0.568007    27A     -0.559836
      28A     -0.538867    29A     -0.524748    30A     -0.505647
      31A     -0.492526    32A     -0.477763    33A     -0.470997
      34A     -0.466506    35A     -0.452337    36A     -0.439351

  @DF-RHF Final Energy:  -423.13235007640998

   => Energetics <=

    Nuclear Repulsion Energy =            450.4522338743974501
    One-Electron Energy =               -1468.7955840128558975
    Two-Electron Energy =                 595.2110000620490382
    DFT Exchange-Correlation Energy =       0.0000000000000000
    Empirical Dispersion Energy =           0.0000000000000000
    PCM Polarization Energy =               0.0000000000000000
    EFP Energy =                            0.0000000000000000
    Total Energy =                       -423.1323500764093524
    Molecular point group: c1
  Basis Set: CC-PVTZ
  Basis Set:

  -Total Gradient:
     Atom            X                  Y                   Z
    ------   -----------------  -----------------  -----------------
       1        0.000017800353     0.000039067193     0.000008351134
       2       -0.000013963993    -0.000015907611    -0.000027604970
       3        0.000008703259    -0.000013619857     0.000010259961
       4        0.000024441793     0.000001267133     0.000008275577
       5       -0.000010539350     0.000003476846    -0.000012357222
       6       -0.000002046379    -0.000012104861    -0.000000135699
       7       -0.000001555907     0.000002380736     0.000009503683
       8       -0.003247971102    -0.004374041778    -0.002028797285
       9        0.002188000117     0.003113352096    -0.004094968930
      10        0.002311824225     0.003129101572     0.002298865793
      11       -0.000003699488     0.000000557568     0.000001037819
      12        0.000001635476     0.000000682103     0.000013020784
      13       -0.001276410683    -0.001865105277     0.003811938364
      14        0.000013360060    -0.000005775668    -0.000000015567
      15        0.000003595253    -0.000009948195     0.000002257712
      16       -0.000006683078    -0.000007216140    -0.000001083797
      17        0.000003560227     0.000013408513     0.000000220595
      18       -0.000009739264     0.000004911923    -0.000000971643
      19        0.000002870308    -0.000001992278    -0.000004572440
      20       -0.000003052451    -0.000003038035     0.000006325625
      21        0.000000977254     0.000001385347    -0.000005172855
      22       -0.000001805572    -0.000003264158     0.000003348082
      23        0.000000698938     0.000002422828     0.000002275279

  **** Optimization is complete! (in 8 steps) ****
    Final optimized geometry and variables:
    Molecular point group: c1

    Geometry (in Angstrom), charge = 0, multiplicity = 1:

    O           -2.768277758680     1.374059744173     0.356114252098
    C           -2.631923822667     0.198157425464     0.328125671299
    C           -3.777584931506    -0.777090220531     0.359888184609
    O           -1.457457459582    -0.399949253844     0.264744354028
    H           -4.425121731289    -0.574614530610    -0.482682560628
    H           -3.437573090385    -1.799828585553     0.326224610124
    H           -4.348925625081    -0.606862602658     1.262559074342
    C           -0.299894559839     0.420329888448     0.234636563772
    C            0.928872709191    -0.474437639077     0.207843275051
    H           -0.334276301413     1.078872065280    -0.622808469859
    H           -0.300281731098     1.057174864360     1.108656586259
    C            2.143100241536     0.211688829878    -0.407694934825
    H            0.684282369752    -1.388795121554    -0.321314068714
    H            1.161349929105    -0.782821473104     1.222939645675
    C            3.405326448342    -0.643908385859    -0.356954761247
    H            1.924337194300     0.469259809512    -1.440734514019
    H            2.328140590479     1.151843147743     0.107340375189
    C            4.615267276038     0.038338323029    -0.985971221761
    H            3.218616959688    -1.586705641741    -0.863625418233
    H            3.628602227625    -0.892708330024     0.676664169735
    H            4.436029794845     0.268086322316    -2.030969844326
    H            5.493503165621    -0.594481644697    -0.932814546283
    H            4.847225468940     0.969123034580    -0.479163056922

  Mulliken Charges: (a.u.)
   Center  Symbol    Alpha    Beta     Spin     Total
       1     O     4.20202  4.20202  0.00000 -0.40405
       2     C     2.81198  2.81198  0.00000  0.37604
       3     C     3.13951  3.13951  0.00000 -0.27902
       4     O     4.14507  4.14507  0.00000 -0.29014
       5     H     0.44213  0.44213  0.00000  0.11574
       6     H     0.44192  0.44192  0.00000  0.11615
       7     H     0.44209  0.44209  0.00000  0.11582
       8     C     2.98019  2.98019  0.00000  0.03963
       9     C     3.08598  3.08598  0.00000 -0.17195
      10     H     0.45580  0.45580  0.00000  0.08840
      11     H     0.45314  0.45314  0.00000  0.09372
      12     C     3.09594  3.09594  0.00000 -0.19188
      13     H     0.44813  0.44813  0.00000  0.10374
      14     H     0.45247  0.45247  0.00000  0.09507
      15     C     3.08547  3.08547  0.00000 -0.17093
      16     H     0.45226  0.45226  0.00000  0.09549
      17     H     0.45273  0.45273  0.00000  0.09454
      18     C     3.14948  3.14948  0.00000 -0.29895
      19     H     0.45340  0.45340  0.00000  0.09320
      20     H     0.45338  0.45338  0.00000  0.09323
      21     H     0.45456  0.45456  0.00000  0.09089
      22     H     0.44775  0.44775  0.00000  0.10451
      23     H     0.45463  0.45463  0.00000  0.09074

   Total alpha = 36.00000, Total beta = 36.00000, Total charge =  0.00000

*** Psi4 exiting successfully. Buy a developer a beer!
