  ==> Input File <==

--------------------------------------------------------------------------
set {
	reference rhf
	basis 6-31G*
}

set_num_threads( 4 )
memory 2 gb

molecule MOL {
0 1

H	 -2.364819	 -0.990301	 1.306589
C	 -2.563450	 -0.666347	 0.286912
O	 -1.392607	 -0.295399	 -0.366433
H	 -2.997317	 -1.489612	 -0.263666
H	 -3.281234	 0.152314	 0.318659
C	 -0.719715	 0.768384	 0.229244
C	 0.719720	 0.768376	 -0.229267
H	 -1.185038	 1.714362	 -0.050570
H	 -0.750528	 0.687237	 1.313896
O	 1.392611	 -0.295398	 0.366430
H	 0.750534	 0.687200	 -1.313918
H	 1.185043	 1.714359	 0.050526
C	 2.706965	 -0.449871	 -0.062409
H	 2.756559	 -0.644779	 -1.131878
H	 3.305899	 0.433456	 0.155466
H	 3.125548	 -1.294566	 0.467107

	symmetry c1
}
set optking {
	frozen_dihedral = ("
		2 3 6 7
	")
}

ee = optimize('scf')
oeprop('DIPOLE', 'QUADRUPOLE', 'MULLIKEN_CHARGES')
f=open( 'psi4out.xyz', 'w' )
f.write( "16  " )
f.write( str(ee) + "\n" )
f.write( MOL.save_string_xyz() )
f.close()
--------------------------------------------------------------------------

    Molecular point group: c1
  Charge       = 0
  Multiplicity = 1
  Basis Set: 6-31G*
  Basis Set:
  @DF-RHF Final Energy:  -306.97723018075021
    Total Energy =                       -306.9772301807503823
    Molecular point group: c1
  Basis Set: 6-31G*
  Basis Set:
  Basis Set: 6-31G*
  Basis Set:
  @DF-RHF Final Energy:  -306.97725870730397
    Total Energy =                       -306.9772587073038039
  Basis Set: 6-31G*
  Basis Set:
  Basis Set: 6-31G*
  Basis Set:
  @DF-RHF Final Energy:  -306.97726328854384
    Total Energy =                       -306.9772632885437247
  Basis Set: 6-31G*
  Basis Set:
  Charge       = 0
  Multiplicity = 1
  Basis Set: 6-31G*
  Basis Set:

    Orbital Energies (a.u.)
    -----------------------

    Doubly Occupied:

       1A    -20.553907     2A    -20.552463     3A    -11.268686
       4A    -11.268025     5A    -11.263842     6A    -11.262805
       7A     -1.387765     8A     -1.369785     9A     -1.030511
      10A     -0.936431    11A     -0.891059    12A     -0.824068
      13A     -0.682669    14A     -0.681094    15A     -0.656513
      16A     -0.633796    17A     -0.630473    18A     -0.598282
      19A     -0.547088    20A     -0.537699    21A     -0.509838
      22A     -0.477463    23A     -0.462057    24A     -0.418258
      25A     -0.410688

  @DF-RHF Final Energy:  -306.97726353752330

   => Energetics <=

    Nuclear Repulsion Energy =            259.3439847097048414
    One-Electron Energy =                -932.9319636639395412
    Two-Electron Energy =                 366.6107154167116278
    DFT Exchange-Correlation Energy =       0.0000000000000000
    Empirical Dispersion Energy =           0.0000000000000000
    PCM Polarization Energy =               0.0000000000000000
    EFP Energy =                            0.0000000000000000
    Total Energy =                       -306.9772635375230720
    Molecular point group: c1
  Basis Set: 6-31G*
  Basis Set:

  -Total Gradient:
     Atom            X                  Y                   Z
    ------   -----------------  -----------------  -----------------
       1        0.000000323555     0.000008709570    -0.000002566723
       2        0.000670407267    -0.000849736665     0.000737091508
       3       -0.000857321288     0.000957277561    -0.000690451566
       4       -0.000003352444     0.000000179959    -0.000004710859
       5        0.000017487123     0.000001327720    -0.000008796092
       6       -0.000118256716     0.000568820755    -0.000925876426
       7        0.000294435511    -0.000691895852     0.000925536869
       8       -0.000001812953    -0.000007753070     0.000002964380
       9        0.000000169795    -0.000007368260     0.000003300221
      10       -0.000017904263     0.000018765656    -0.000034147640
      11        0.000007812807    -0.000007391060     0.000003392479
      12        0.000002585744     0.000017926324    -0.000007736892
      13        0.000005187334    -0.000009906148     0.000002918134
      14        0.000000911246     0.000000401868     0.000000517419
      15       -0.000004224622     0.000001254150     0.000000045489
      16        0.000003551908    -0.000000612508    -0.000001480298

  **** Optimization is complete! (in 4 steps) ****
    Final optimized geometry and variables:
    Molecular point group: c1

    Geometry (in Angstrom), charge = 0, multiplicity = 1:

    H           -2.391026105631    -0.958054633281     1.263430535697
    C           -2.589225468371    -0.634084226175     0.244237950270
    O           -1.417388114281    -0.255143687864    -0.403584845162
    H           -3.014773562142    -1.459316189118    -0.310001872653
    H           -3.314023405332     0.178334895051     0.273724315678
    C           -0.742770674199     0.810114570632     0.190405543152
    C            0.696074542300     0.809416398997    -0.270855248749
    H           -1.214746171279     1.754702338923    -0.079908420952
    H           -0.761219087426     0.723888329881     1.274354383162
    O            1.366530192959    -0.253396012783     0.329877148729
    H            0.727191270222     0.722620892820    -1.355084037184
    H            1.163396419141     1.755963628894     0.003673577231
    C            2.678821970246    -0.417095743740    -0.102367800921
    H            2.723737888907    -0.619951337208    -1.170490018633
    H            3.282121002547     0.465178729288     0.106924548129
    H            3.095686513297    -1.259730553605     0.431848918845

  Mulliken Charges: (a.u.)
   Center  Symbol    Alpha    Beta     Spin     Total
       1     H     0.42652  0.42652  0.00000  0.14695
       2     C     3.07943  3.07943  0.00000 -0.15887
       3     O     4.30222  4.30222  0.00000 -0.60443
       4     H     0.41203  0.41203  0.00000  0.17593
       5     H     0.43211  0.43211  0.00000  0.13578
       6     C     2.99363  2.99363  0.00000  0.01274
       7     C     2.99361  2.99361  0.00000  0.01278
       8     H     0.43023  0.43023  0.00000  0.13953
       9     H     0.42321  0.42321  0.00000  0.15359
      10     O     4.30151  4.30151  0.00000 -0.60301
      11     H     0.42251  0.42251  0.00000  0.15499
      12     H     0.43241  0.43241  0.00000  0.13518
      13     C     3.07944  3.07944  0.00000 -0.15888
      14     H     0.42790  0.42790  0.00000  0.14421
      15     H     0.43172  0.43172  0.00000  0.13657
      16     H     0.41153  0.41153  0.00000  0.17694

   Total alpha = 25.00000, Total beta = 25.00000, Total charge =  0.00000
