                              Psi4 1.0.54 Driver

  ==> Input File <==

--------------------------------------------------------------------------
set {
	reference rhf
	basis cc-pvtz
}

set_num_threads( 4 )
memory 2 gb

molecule MOL {
0 1

H	 1.736786	 -0.977387	 -0.884823
O	 1.583947	 -0.677544	 -0.001533
C	 0.489979	 0.078084	 0.002623
C	 -0.763662	 -0.754014	 0.000816
O	 0.539051	 1.259395	 -0.000088
C	 -2.038001	 0.074705	 -0.000833
H	 -0.712945	 -1.405886	 -0.864342
H	 -0.715137	 -1.405770	 0.866182
H	 -2.087267	 0.710831	 -0.874232
H	 -2.903419	 -0.576199	 -0.001922
H	 -2.089467	 0.710909	 0.872389

	symmetry c1
}
set optking {
	frozen_dihedral = ("
		1 2 3 5
	")
}

ee,wfn = optimize('scf', return_wfn=True)
oeprop( wfn, 'DIPOLE', 'QUADRUPOLE', 'MULLIKEN_CHARGES')
f=open( 'psi4out.xyz', 'w' )
f.write( "11  " )
f.write( str(ee) + "\n" )
f.write( MOL.save_string_xyz() )
f.close()
--------------------------------------------------------------------------

    Molecular point group: c1
  Charge       = 0
  Multiplicity = 1
  Basis Set: CC-PVTZ
  Basis Set:
  @DF-RHF Final Energy:  -266.93168069231774
    Total Energy =                       -266.9316806923178547
    Molecular point group: c1
  Basis Set: CC-PVTZ
  Basis Set:
  Basis Set: CC-PVTZ
  Basis Set:
  @DF-RHF Final Energy:  -266.75578039366781
    Total Energy =                       -266.7557803936676919
  Basis Set: CC-PVTZ
  Basis Set:
  Basis Set: CC-PVTZ
  Basis Set:
  @DF-RHF Final Energy:  -266.88640949678268
    Total Energy =                       -266.8864094967826759
  Basis Set: CC-PVTZ
  Basis Set:
  Basis Set: CC-PVTZ
  Basis Set:
  @DF-RHF Final Energy:  -266.93130349842681
    Total Energy =                       -266.9313034984267574
  Basis Set: CC-PVTZ
  Basis Set:
  @DF-RHF Final Energy:  -266.93087282431088
    Total Energy =                       -266.9308728243108817
  Basis Set: CC-PVTZ
  Basis Set:
  @DF-RHF Final Energy:  -266.93244052147304
    Total Energy =                       -266.9324405214731541
  Basis Set: CC-PVTZ
  Basis Set:
  Basis Set: CC-PVTZ
  Basis Set:
  @DF-RHF Final Energy:  -266.93338083365143
    Total Energy =                       -266.9333808336515403
  Basis Set: CC-PVTZ
  Basis Set:
  Basis Set: CC-PVTZ
  Basis Set:
  @DF-RHF Final Energy:  -266.93339429281389
    Total Energy =                       -266.9333942928139436
  Basis Set: CC-PVTZ
  Basis Set:
  Charge       = 0
  Multiplicity = 1
  Basis Set: CC-PVTZ
  Basis Set:

    Orbital Energies (a.u.)
    -----------------------

    Doubly Occupied:

       1A    -20.587256     2A    -20.551521     3A    -11.375008
       4A    -11.246354     5A    -11.221093     6A     -1.464309
       7A     -1.372005     8A     -1.066178     9A     -0.910868
      10A     -0.812021    11A     -0.715686    12A     -0.676188
      13A     -0.662331    14A     -0.616524    15A     -0.571439
      16A     -0.531505    17A     -0.522735    18A     -0.502246
      19A     -0.497559    20A     -0.449422

  @DF-RHF Final Energy:  -266.93339578082475

   => Energetics <=

    Nuclear Repulsion Energy =            179.3798900600224044
    One-Electron Energy =                -719.9220770397711249
    Two-Electron Energy =                 273.6087911989238819
    DFT Exchange-Correlation Energy =       0.0000000000000000
    Empirical Dispersion Energy =           0.0000000000000000
    PCM Polarization Energy =               0.0000000000000000
    EFP Energy =                            0.0000000000000000
    Total Energy =                       -266.9333957808248670
    Molecular point group: c1
  Basis Set: CC-PVTZ
  Basis Set:

  -Total Gradient:
     Atom            X                  Y                   Z
    ------   -----------------  -----------------  -----------------
       1        0.000533549191     0.000656988334     0.000184392136
       2       -0.000614741201    -0.000724693590    -0.000607022056
       3        0.000078853402    -0.000357872922     0.001115942954
       4        0.000054077858    -0.000029504923    -0.000025999160
       5       -0.000072231562     0.000426667965    -0.000658038549
       6       -0.000016898911    -0.000011680869    -0.000006550032
       7        0.000002788401     0.000014533970    -0.000005980833
       8        0.000005893678     0.000015934520    -0.000000879029
       9        0.000007469529     0.000005480331    -0.000006900402
      10        0.000018482208     0.000006183543     0.000004386414
      11        0.000002757410    -0.000002036361     0.000006648557

  **** Optimization is complete! (in 9 steps) ****
    Final optimized geometry and variables:
    Molecular point group: c1

    Geometry (in Angstrom), charge = 0, multiplicity = 1:

    H            1.586131220768    -0.375668210089    -1.566885939878
    O            1.519487296761    -0.593844317292    -0.652182986613
    C            0.493954213506     0.062579006831    -0.046745006061
    C           -0.843980562969    -0.601395305821    -0.245163649272
    O            0.682115837290     1.024853119407     0.597588053277
    C           -1.994631265864     0.114979907096     0.442411238501
    H           -1.013124707138    -0.680947131199    -1.315443929125
    H           -0.740907496479    -1.621443860070     0.109104899132
    H           -2.101085683619     1.126164938124     0.072490833988
    H           -2.922993052247    -0.413770768967     0.265090167077
    H           -1.831623135084     0.171789875462     1.510096705169

  Mulliken Charges: (a.u.)
   Center  Symbol    Alpha    Beta     Spin     Total
       1     H     0.38888  0.38888  0.00000  0.22225
       2     O     4.17271  4.17271  0.00000 -0.34542
       3     C     2.80293  2.80293  0.00000  0.39414
       4     C     3.10435  3.10435  0.00000 -0.20870
       5     O     4.15977  4.15977  0.00000 -0.31955
       6     C     3.13910  3.13910  0.00000 -0.27819
       7     H     0.45029  0.45029  0.00000  0.09942
       8     H     0.43748  0.43748  0.00000  0.12504
       9     H     0.44884  0.44884  0.00000  0.10231
      10     H     0.45006  0.45006  0.00000  0.09987
      11     H     0.44559  0.44559  0.00000  0.10883

   Total alpha = 20.00000, Total beta = 20.00000, Total charge =  0.00000

*** Psi4 exiting successfully. Buy a developer a beer!
