  ==> Input File <==

--------------------------------------------------------------------------
set {
	reference rhf
	basis cc-pvtz
}

set_num_threads( 4 )
memory 2 gb

molecule MOL {
0 1

H	 1.428497	 1.260593	 1.087502
O	 0.628462	 0.759523	 1.135858
C	 0.489979	 0.078084	 0.002623
C	 -0.763662	 -0.754014	 0.000816
O	 1.283453	 0.139771	 -0.871737
C	 -2.038001	 0.074705	 -0.000833
H	 -0.712945	 -1.405886	 -0.864342
H	 -0.715137	 -1.405770	 0.866182
H	 -2.087267	 0.710831	 -0.874232
H	 -2.903419	 -0.576199	 -0.001922
H	 -2.089467	 0.710909	 0.872389

	symmetry c1
}
set optking {
	frozen_dihedral = ("
		2 3 4 7
	")
}

ee = optimize('scf')
oeprop('DIPOLE', 'QUADRUPOLE', 'MULLIKEN_CHARGES')
f=open( 'psi4out.xyz', 'w' )
f.write( "11  " )
f.write( str(ee) + "\n" )
f.write( MOL.save_string_xyz() )
f.close()
--------------------------------------------------------------------------

    Molecular point group: c1
  Charge       = 0
  Multiplicity = 1
  Basis Set: CC-PVTZ
  Basis Set:
  @DF-RHF Final Energy:  -266.95133323226662
    Total Energy =                       -266.9513332322666201
    Molecular point group: c1
  Basis Set: CC-PVTZ
  Basis Set:
  Basis Set: CC-PVTZ
  Basis Set:
  @DF-RHF Final Energy:  -266.95165620846069
    Total Energy =                       -266.9516562084605766
  Basis Set: CC-PVTZ
  Basis Set:
  Basis Set: CC-PVTZ
  Basis Set:
  @DF-RHF Final Energy:  -266.95145592129086
    Total Energy =                       -266.9514559212909148
  Basis Set: CC-PVTZ
  Basis Set:
  Basis Set: CC-PVTZ
  Basis Set:
  @DF-RHF Final Energy:  -266.95169430509247
    Total Energy =                       -266.9516943050924738
  Basis Set: CC-PVTZ
  Basis Set:
  Charge       = 0
  Multiplicity = 1
  Basis Set: CC-PVTZ
  Basis Set:

    Orbital Energies (a.u.)
    -----------------------

    Doubly Occupied:

       1A    -20.605509     2A    -20.540355     3A    -11.373474
       4A    -11.241770     5A    -11.228654     6A     -1.478209
       7A     -1.369105     8A     -1.069056     9A     -0.913495
      10A     -0.820166    11A     -0.706084    12A     -0.687580
      13A     -0.644949    14A     -0.617711    15A     -0.594267
      16A     -0.547172    17A     -0.527878    18A     -0.513125
      19A     -0.481980    20A     -0.443817

  @DF-RHF Final Energy:  -266.95170228091195

   => Energetics <=

    Nuclear Repulsion Energy =            180.4041410413314281
    One-Electron Energy =                -721.9029709034415419
    Two-Electron Energy =                 274.5471275811983105
    DFT Exchange-Correlation Energy =       0.0000000000000000
    Empirical Dispersion Energy =           0.0000000000000000
    PCM Polarization Energy =               0.0000000000000000
    EFP Energy =                            0.0000000000000000
    Total Energy =                       -266.9517022809118316
    Molecular point group: c1
  Basis Set: CC-PVTZ
  Basis Set:

  -Total Gradient:
     Atom            X                  Y                   Z
    ------   -----------------  -----------------  -----------------
       1        0.000039416900     0.000055891650     0.000046720956
       2        0.000103276494     0.000070309986    -0.000068165183
       3       -0.000101189676    -0.000090833699    -0.000033863142
       4        0.000034751133    -0.000168210744    -0.000011778181
       5        0.000015554431     0.000044055650     0.000104608666
       6        0.000040745726     0.000043328208     0.000000165413
       7       -0.000055840661     0.000056241762    -0.000013490966
       8       -0.000044463766     0.000044181492    -0.000015912816
       9       -0.000023647866    -0.000000782580     0.000016766783
      10       -0.000029134474    -0.000042924288    -0.000011372820
      11        0.000020531761    -0.000011257436    -0.000013678712

  **** Optimization is complete! (in 5 steps) ****
    Final optimized geometry and variables:
    Molecular point group: c1

    Geometry (in Angstrom), charge = 0, multiplicity = 1:

    H            1.489512703153     1.180679484947     1.006356075765
    O            0.704000227002     0.658752368913     1.072782498285
    C            0.545805135466    -0.011529334971    -0.065246249154
    C           -0.697578756352    -0.858632799022    -0.065174932877
    O            1.313517910726     0.079610821478    -0.960122278498
    C           -1.972580238378    -0.012049101246    -0.074355107942
    H           -0.651740208050    -1.492656842615    -0.937562628304
    H           -0.678880730326    -1.484073213036     0.819277004079
    H           -2.009405020711     0.624021773067    -0.950529131122
    H           -2.842115155262    -0.656333937102    -0.092639809471
    H           -2.032531045581     0.614341127106     0.805335248715

  Mulliken Charges: (a.u.)
   Center  Symbol    Alpha    Beta     Spin     Total
       1     H     0.38037  0.38037  0.00000  0.23926
       2     O     4.16438  4.16438  0.00000 -0.32877
       3     C     2.80005  2.80005  0.00000  0.39990
       4     C     3.08999  3.08999  0.00000 -0.17999
       5     O     4.19408  4.19408  0.00000 -0.38815
       6     C     3.14972  3.14972  0.00000 -0.29944
       7     H     0.43583  0.43583  0.00000  0.12834
       8     H     0.44491  0.44491  0.00000  0.11018
       9     H     0.44846  0.44846  0.00000  0.10308
      10     H     0.44673  0.44673  0.00000  0.10655
      11     H     0.44548  0.44548  0.00000  0.10904

   Total alpha = 20.00000, Total beta = 20.00000, Total charge =  0.00000
