  ==> Input File <==

--------------------------------------------------------------------------
set {
	reference rhf
	basis 6-31G*
}

set_num_threads( 1 )
memory 2 gb

molecule MOL {
0 1

H	 -2.429389	 3.339900	 -1.339810
O	 -1.731019	 2.745808	 -1.574835
C	 -1.383938	 1.961393	 -0.462712
C	 -0.264206	 1.022419	 -0.875358
H	 -1.056925	 2.591397	 0.363402
H	 -2.242357	 1.387940	 -0.115425
C	 0.198102	 0.111031	 0.262842
H	 0.567552	 1.620578	 -1.237454
H	 -0.609669	 0.426983	 -1.715946
C	 1.331804	 -0.827780	 -0.158768
H	 0.517153	 0.722650	 1.103260
H	 -0.643205	 -0.483066	 0.617482
C	 2.723619	 -0.410569	 0.329459
H	 1.342964	 -0.912588	 -1.244120
H	 1.116806	 -1.824343	 0.220779
C	 3.243875	 0.895854	 -0.272975
H	 3.424222	 -1.207124	 0.091250
H	 2.714788	 -0.329854	 1.414619
H	 3.251977	 0.848779	 -1.358681
H	 2.637085	 1.747371	 0.016682
H	 4.259473	 1.094070	 0.055697

	symmetry c1
}
set optking {
	frozen_dihedral = ("
		2 3 4 8,
		8 4 7 10,
		16 13 10 14,
		1 2 3 5
	")
}

ee = energy('scf')
oeprop('DIPOLE', 'QUADRUPOLE', 'MULLIKEN_CHARGES')
f=open( 'psi4out.xyz', 'w' )
f.write( "21  " )
f.write( str(ee) + "\n" )
f.write( MOL.save_string_xyz() )
f.close()
--------------------------------------------------------------------------

    Molecular point group: c1

    Geometry (in Angstrom), charge = 0, multiplicity = 1:

       Center              X                  Y                   Z               Mass
    ------------   -----------------  -----------------  -----------------  -----------------
           H         -2.972505319467     2.497229345724    -0.923841519970     1.007825032070
           O         -2.274135319467     1.903137345724    -1.158866519970    15.994914619560
           C         -1.927054319467     1.118722345724    -0.046743519970    12.000000000000
           C         -0.807322319467     0.179748345724    -0.459389519970    12.000000000000
           H         -1.600041319467     1.748726345724     0.779370480030     1.007825032070
           H         -2.785473319467     0.545269345724     0.300543480030     1.007825032070
           C         -0.345014319467    -0.731639654276     0.678810480030    12.000000000000
           H          0.024435680533     0.777907345724    -0.821485519970     1.007825032070
           H         -1.152785319467    -0.415687654276    -1.299977519970     1.007825032070
           C          0.788687680533    -1.670450654276     0.257200480030    12.000000000000
           H         -0.025963319467    -0.120020654276     1.519228480030     1.007825032070
           H         -1.186321319467    -1.325736654276     1.033450480030     1.007825032070
           C          2.180502680533    -1.253239654276     0.745427480030    12.000000000000
           H          0.799847680533    -1.755258654276    -0.828151519970     1.007825032070
           H          0.573689680533    -2.667013654276     0.636747480030     1.007825032070
           C          2.700758680533     0.053183345724     0.142993480030    12.000000000000
           H          2.881105680533    -2.049794654276     0.507218480030     1.007825032070
           H          2.171671680533    -1.172524654276     1.830587480030     1.007825032070
           H          2.708860680533     0.006108345724    -0.942712519970     1.007825032070
           H          2.093968680533     0.904700345724     0.432650480030     1.007825032070
           H          3.716356680533     0.251399345724     0.471665480030     1.007825032070

  Charge       = 0
  Multiplicity = 1
  Basis Set: 6-31G*
  Basis Set:

    Orbital Energies (a.u.)
    -----------------------

    Doubly Occupied:

       1A    -20.551451     2A    -11.266221     3A    -11.214680
       4A    -11.214626     5A    -11.212114     6A    -11.209774
       7A    -11.207262     8A     -1.358252     9A     -1.086928
      10A     -1.030378    11A     -0.955577    12A     -0.875350
      13A     -0.807018    14A     -0.778388    15A     -0.691906
      16A     -0.660195    17A     -0.619796    18A     -0.610289
      19A     -0.586736    20A     -0.557471    21A     -0.549813
      22A     -0.520392    23A     -0.498658    24A     -0.497384
      25A     -0.479964    26A     -0.461351    27A     -0.448167
      28A     -0.440896    29A     -0.433605

  @DF-RHF Final Energy:  -310.20776047750775

   => Energetics <=

    Nuclear Repulsion Energy =            318.9155315646675604
    One-Electron Energy =               -1052.5973850024922740
    Two-Electron Energy =                 423.4740929603187851
    DFT Exchange-Correlation Energy =       0.0000000000000000
    Empirical Dispersion Energy =           0.0000000000000000
    PCM Polarization Energy =               0.0000000000000000
    EFP Energy =                            0.0000000000000000
    Total Energy =                       -310.2077604775058717

  Mulliken Charges: (a.u.)
   Center  Symbol    Alpha    Beta     Spin     Total
       1     H     0.28128  0.28128  0.00000  0.43744
       2     O     4.37182  4.37182  0.00000 -0.74363
       3     C     2.99026  2.99026  0.00000  0.01948
       4     C     3.16287  3.16287  0.00000 -0.32574
       5     H     0.43338  0.43338  0.00000  0.13323
       6     H     0.43299  0.43299  0.00000  0.13402
       7     C     3.16382  3.16382  0.00000 -0.32763
       8     H     0.41183  0.41183  0.00000  0.17635
       9     H     0.41443  0.41443  0.00000  0.17115
      10     C     3.15520  3.15520  0.00000 -0.31040
      11     H     0.42164  0.42164  0.00000  0.15673
      12     H     0.42066  0.42066  0.00000  0.15869
      13     C     3.15243  3.15243  0.00000 -0.30486
      14     H     0.42008  0.42008  0.00000  0.15984
      15     H     0.41991  0.41991  0.00000  0.16019
      16     C     3.24169  3.24169  0.00000 -0.48338
      17     H     0.42166  0.42166  0.00000  0.15667
      18     H     0.42356  0.42356  0.00000  0.15289
      19     H     0.42075  0.42075  0.00000  0.15851
      20     H     0.42046  0.42046  0.00000  0.15908
      21     H     0.41931  0.41931  0.00000  0.16138

   Total alpha = 29.00000, Total beta = 29.00000, Total charge =  0.00000
