  ==> Input File <==

--------------------------------------------------------------------------
set {
	reference rhf
	basis 6-31G*
}

set_num_threads( 1 )
memory 2 gb

molecule MOL {
0 1

O	 -1.276010	 1.052711	 -0.768302
C	 -1.204840	 0.067374	 -0.106123
C	 -2.388195	 -0.672128	 0.458071
O	 -0.067104	 -0.527208	 0.221609
H	 -2.388023	 -1.694060	 0.097175
H	 -3.300579	 -0.174919	 0.164318
H	 -2.315377	 -0.706351	 1.539059
C	 0.172465	 -0.863782	 1.595382
C	 1.681630	 -0.909663	 1.756323
C	 -0.502199	 -2.186077	 1.925547
H	 -0.245123	 -0.077773	 2.207197
H	 2.123636	 0.045485	 1.496381
H	 1.941047	 -1.138963	 2.784650
H	 2.112599	 -1.671532	 1.115639
H	 -0.305381	 -2.457896	 2.957725
H	 -1.574314	 -2.113443	 1.794131
H	 -0.121955	 -2.975922	 1.285572

	symmetry c1
}
set optking {
	frozen_dihedral = ("
		11 8 4 2
	")
}

ee = energy('scf')
oeprop('DIPOLE', 'QUADRUPOLE', 'MULLIKEN_CHARGES')
f=open( 'psi4out.xyz', 'w' )
f.write( "17  " )
f.write( str(ee) + "\n" )
f.write( MOL.save_string_xyz() )
f.close()
--------------------------------------------------------------------------

    Molecular point group: c1

    Geometry (in Angstrom), charge = 0, multiplicity = 1:

       Center              X                  Y                   Z               Mass
    ------------   -----------------  -----------------  -----------------  -----------------
           O         -0.761823713611     1.634996520668    -1.496921294206    15.994914619560
           C         -0.690653713611     0.649659520668    -0.834742294206    12.000000000000
           C         -1.874008713611    -0.089842479332    -0.270548294206    12.000000000000
           O          0.447082286389     0.055077520668    -0.507010294206    15.994914619560
           H         -1.873836713611    -1.111774479332    -0.631444294206     1.007825032070
           H         -2.786392713611     0.407366520668    -0.564301294206     1.007825032070
           H         -1.801190713611    -0.124065479332     0.810439705794     1.007825032070
           C          0.686651286389    -0.281496479332     0.866762705794    12.000000000000
           C          2.195816286389    -0.327377479332     1.027703705794    12.000000000000
           C          0.011987286389    -1.603791479332     1.196927705794    12.000000000000
           H          0.269063286389     0.504512520668     1.478577705794     1.007825032070
           H          2.637822286389     0.627770520668     0.767761705794     1.007825032070
           H          2.455233286389    -0.556677479332     2.056030705794     1.007825032070
           H          2.626785286389    -1.089246479332     0.387019705794     1.007825032070
           H          0.208805286389    -1.875610479332     2.229105705794     1.007825032070
           H         -1.060127713611    -1.531157479332     1.065511705794     1.007825032070
           H          0.392231286389    -2.393636479332     0.556952705794     1.007825032070

  Charge       = 0
  Multiplicity = 1
  Basis Set: 6-31G*
  Basis Set:

    Orbital Energies (a.u.)
    -----------------------

    Doubly Occupied:

       1A    -20.590070     2A    -20.549102     3A    -11.376163
       4A    -11.308521     5A    -11.234023     6A    -11.226922
       7A    -11.225698     8A     -1.461497     9A     -1.367503
      10A     -1.080329    11A     -1.026165    12A     -0.955149
      13A     -0.855942    14A     -0.780197    15A     -0.707375
      16A     -0.673465    17A     -0.660881    18A     -0.621051
      19A     -0.610959    20A     -0.586473    21A     -0.562664
      22A     -0.555174    23A     -0.550988    24A     -0.519540
      25A     -0.501478    26A     -0.484356    27A     -0.448545
      28A     -0.435164

  @DF-RHF Final Energy:  -344.87402984634031

   => Energetics <=

    Nuclear Repulsion Energy =            326.8090930511261263
    One-Electron Energy =               -1117.4554328006086052
    Two-Electron Energy =                 445.7723099031417178
    DFT Exchange-Correlation Energy =       0.0000000000000000
    Empirical Dispersion Energy =           0.0000000000000000
    PCM Polarization Energy =               0.0000000000000000
    EFP Energy =                            0.0000000000000000
    Total Energy =                       -344.8740298463407044

  Mulliken Charges: (a.u.)
   Center  Symbol    Alpha    Beta     Spin     Total
       1     O     4.26172  4.26172  0.00000 -0.52343
       2     C     2.61149  2.61149  0.00000  0.77701
       3     C     3.31657  3.31657  0.00000 -0.63315
       4     O     4.30938  4.30938  0.00000 -0.61876
       5     H     0.39604  0.39604  0.00000  0.20792
       6     H     0.39310  0.39310  0.00000  0.21380
       7     H     0.40199  0.40199  0.00000  0.19602
       8     C     2.93890  2.93890  0.00000  0.12220
       9     C     3.23869  3.23869  0.00000 -0.47737
      10     C     3.24971  3.24971  0.00000 -0.49942
      11     H     0.41330  0.41330  0.00000  0.17340
      12     H     0.40443  0.40443  0.00000  0.19114
      13     H     0.41837  0.41837  0.00000  0.16327
      14     H     0.40956  0.40956  0.00000  0.18088
      15     H     0.41637  0.41637  0.00000  0.16726
      16     H     0.41048  0.41048  0.00000  0.17903
      17     H     0.40990  0.40990  0.00000  0.18020

   Total alpha = 28.00000, Total beta = 28.00000, Total charge =  0.00000
