                              Psi4 1.0.54 Driver

  ==> Input File <==

--------------------------------------------------------------------------
set {
	reference rhf
	basis cc-pvtz
}

set_num_threads( 4 )
memory 2 gb

molecule MOL {
0 1

H	 2.646708	 0.758099	 0.000000
O	 2.258158	 -0.097743	 0.000000
C	 0.911162	 -0.015915	 0.000000
C	 0.345220	 1.230288	 0.213284
C	 0.102469	 -1.118348	 -0.202677
H	 0.987961	 2.074226	 0.368691
C	 -1.026516	 1.361977	 0.221795
H	 0.541534	 -2.085546	 -0.368212
C	 -1.273284	 -0.971253	 -0.191498
H	 -1.459540	 2.330176	 0.387571
C	 -1.847333	 0.264752	 0.019905
H	 -1.894012	 -1.832637	 -0.349740
H	 -2.913946	 0.375064	 0.027916

	symmetry c1
}
set optking {
	frozen_dihedral = ("
		4 3 2 1
	")
}

ee,wfn = optimize('scf', return_wfn=True)
oeprop( wfn, 'DIPOLE', 'QUADRUPOLE', 'MULLIKEN_CHARGES')
f=open( 'psi4out.xyz', 'w' )
f.write( "13  " )
f.write( str(ee) + "\n" )
f.write( MOL.save_string_xyz() )
f.close()
--------------------------------------------------------------------------

    Molecular point group: c1
  Charge       = 0
  Multiplicity = 1
  Basis Set: CC-PVTZ
  Basis Set:
  @DF-RHF Final Energy:  -305.66844930175392
    Total Energy =                       -305.6684493017539808
    Molecular point group: c1
  Basis Set: CC-PVTZ
  Basis Set:
  Basis Set: CC-PVTZ
  Basis Set:
  @DF-RHF Final Energy:  -305.67023630485255
    Total Energy =                       -305.6702363048525513
  Basis Set: CC-PVTZ
  Basis Set:
  Basis Set: CC-PVTZ
  Basis Set:
  @DF-RHF Final Energy:  -305.67039871311482
    Total Energy =                       -305.6703987131148210
  Basis Set: CC-PVTZ
  Basis Set:
  Basis Set: CC-PVTZ
  Basis Set:
  @DF-RHF Final Energy:  -305.67042013055675
    Total Energy =                       -305.6704201305565221
  Basis Set: CC-PVTZ
  Basis Set:
  Basis Set: CC-PVTZ
  Basis Set:
  @DF-RHF Final Energy:  -305.67042401537253
    Total Energy =                       -305.6704240153725891
  Basis Set: CC-PVTZ
  Basis Set:
  Charge       = 0
  Multiplicity = 1
  Basis Set: CC-PVTZ
  Basis Set:

    Orbital Energies (a.u.)
    -----------------------

    Doubly Occupied:

       1A    -20.584734     2A    -11.297500     3A    -11.235223
       4A    -11.233420     5A    -11.226166     6A    -11.220603
       7A    -11.219525     8A     -1.415377     9A     -1.152664
      10A     -1.022810    11A     -1.008383    12A     -0.851212
      13A     -0.826749    14A     -0.741575    15A     -0.688286
      16A     -0.654823    17A     -0.612977    18A     -0.596537
      19A     -0.592055    20A     -0.566673    21A     -0.517565
      22A     -0.493072    23A     -0.485328    24A     -0.343224
      25A     -0.314946

  @DF-RHF Final Energy:  -305.67042435116207

   => Energetics <=

    Nuclear Repulsion Energy =            273.8306132800419164
    One-Electron Energy =                -957.1992215680319305
    Two-Electron Energy =                 377.6981839368280021
    DFT Exchange-Correlation Energy =       0.0000000000000000
    Empirical Dispersion Energy =           0.0000000000000000
    PCM Polarization Energy =               0.0000000000000000
    EFP Energy =                            0.0000000000000000
    Total Energy =                       -305.6704243511620120
    Molecular point group: c1
  Basis Set: CC-PVTZ
  Basis Set:

  -Total Gradient:
     Atom            X                  Y                   Z
    ------   -----------------  -----------------  -----------------
       1        0.000004904600     0.000012288960    -0.000910948440
       2        0.000000828915    -0.000073713217     0.001562353120
       3        0.000079478394     0.000200323495    -0.001416099784
       4       -0.000022627669    -0.000099522263     0.000715350648
       5       -0.000096176835    -0.000005857768     0.000030758025
       6        0.000005783146     0.000001258868     0.000002646991
       7        0.000012045336     0.000009450052     0.000020422136
       8        0.000003862261     0.000001116287    -0.000003336309
       9        0.000015230106    -0.000013088443     0.000045004379
      10       -0.000004366751    -0.000004728933    -0.000001896682
      11        0.000003646086    -0.000025916112    -0.000033821124
      12       -0.000001652666    -0.000002878491    -0.000010213109
      13       -0.000000954922     0.000001267565    -0.000000219851

  **** Optimization is complete! (in 6 steps) ****
    Final optimized geometry and variables:
    Molecular point group: c1

    Geometry (in Angstrom), charge = 0, multiplicity = 1:

    H            2.694687904049     0.565373419721    -0.011686779752
    O            2.245406152955    -0.260276200395    -0.017829213491
    C            0.907636465638    -0.081218950306    -0.010540018169
    C            0.328170939793     1.155056833511     0.206705476759
    C            0.110193187182    -1.195658572932    -0.210422703323
    H            0.947288648256     2.018574866917     0.369978661920
    C           -1.049924174614     1.274748917381     0.214827529333
    H            0.576527256496    -2.147060080264    -0.374567060575
    C           -1.261666236600    -1.062553342358    -0.195254059883
    H           -1.491735580176     2.238724822763     0.381862370150
    C           -1.853544185203     0.171443727128     0.015245411197
    H           -1.874505010027    -1.930014554101    -0.351411817058
    H           -2.921542697406     0.267744338668     0.023963305485

  Mulliken Charges: (a.u.)
   Center  Symbol    Alpha    Beta     Spin     Total
       1     H     0.38727  0.38727  0.00000  0.22547
       2     O     4.17531  4.17531  0.00000 -0.35062
       3     C     2.85005  2.85005  0.00000  0.29989
       4     C     3.13372  3.13372  0.00000 -0.26743
       5     C     3.11101  3.11101  0.00000 -0.22202
       6     H     0.43460  0.43460  0.00000  0.13081
       7     C     3.06479  3.06479  0.00000 -0.12958
       8     H     0.41943  0.41943  0.00000  0.16113
       9     C     3.05664  3.05664  0.00000 -0.11327
      10     H     0.42237  0.42237  0.00000  0.15525
      11     C     3.09848  3.09848  0.00000 -0.19695
      12     H     0.42242  0.42242  0.00000  0.15516
      13     H     0.42392  0.42392  0.00000  0.15216

   Total alpha = 25.00000, Total beta = 25.00000, Total charge = -0.00000

*** Psi4 exiting successfully. Buy a developer a beer!
