  ==> Input File <==

--------------------------------------------------------------------------
set {
	reference rhf
	basis cc-pvtz
}

set_num_threads( 4 )
memory 2 gb

molecule MOL {
0 1

H	 2.867672	 -0.456275	 0.875795
C	 2.403497	 -0.020426	 0.000000
N	 0.989899	 -0.304564	 0.000000
H	 2.867672	 -0.456275	 -0.875795
H	 2.620366	 1.051270	 0.000000
C	 0.711121	 -1.725779	 -0.000000
C	 0.293408	 0.352358	 -1.086702
H	 1.117960	 -2.212914	 -0.891586
H	 1.179431	 -2.181011	 0.864972
C	 -0.785921	 -1.962387	 0.055888
H	 0.455230	 1.421922	 -1.019079
H	 0.668829	 0.021529	 -2.060024
C	 -1.192901	 0.062354	 -1.002892
H	 -1.007041	 -3.016531	 -0.036381
H	 -1.174285	 -1.610579	 1.009568
O	 -1.439089	 -1.312586	 -0.994004
H	 -1.708202	 0.471770	 -1.860488
H	 -1.602325	 0.518936	 -0.104001

	symmetry c1
}
set optking {
	frozen_dihedral = ("
		6 3 2 5
	")
}

ee = optimize('scf')
oeprop('DIPOLE', 'QUADRUPOLE', 'MULLIKEN_CHARGES')
f=open( 'psi4out.xyz', 'w' )
f.write( "18  " )
f.write( str(ee) + "\n" )
f.write( MOL.save_string_xyz() )
f.close()
--------------------------------------------------------------------------

    Molecular point group: c1
  Charge       = 0
  Multiplicity = 1
  Basis Set: CC-PVTZ
  Basis Set:
  @DF-RHF Final Energy:  -325.14509075739585
    Total Energy =                       -325.1450907573959057
    Molecular point group: c1
  Basis Set: CC-PVTZ
  Basis Set:
  Basis Set: CC-PVTZ
  Basis Set:
  @DF-RHF Final Energy:  -325.14571164228806
    Total Energy =                       -325.1457116422884610
  Basis Set: CC-PVTZ
  Basis Set:
  Basis Set: CC-PVTZ
  Basis Set:
  @DF-RHF Final Energy:  -325.14579693525985
    Total Energy =                       -325.1457969352590567
  Basis Set: CC-PVTZ
  Basis Set:
  Charge       = 0
  Multiplicity = 1
  Basis Set: CC-PVTZ
  Basis Set:

    Orbital Energies (a.u.)
    -----------------------

    Doubly Occupied:

       1A    -20.547664     2A    -15.544746     3A    -11.264450
       4A    -11.264424     5A    -11.242607     6A    -11.242546
       7A    -11.239250     8A     -1.386618     9A     -1.234530
      10A     -1.039232    11A     -0.982214    12A     -0.884110
      13A     -0.869543    14A     -0.774829    15A     -0.685243
      16A     -0.646702    17A     -0.645476    18A     -0.635509
      19A     -0.631272    20A     -0.574379    21A     -0.557327
      22A     -0.540265    23A     -0.527552    24A     -0.501822
      25A     -0.485313    26A     -0.454100    27A     -0.410802
      28A     -0.356273

  @DF-RHF Final Energy:  -325.14579788350898

   => Energetics <=

    Nuclear Repulsion Energy =            342.0047107457595530
    One-Electron Energy =               -1119.9634248958846001
    Two-Electron Energy =                 452.8129162666159004
    DFT Exchange-Correlation Energy =       0.0000000000000000
    Empirical Dispersion Energy =           0.0000000000000000
    PCM Polarization Energy =               0.0000000000000000
    EFP Energy =                            0.0000000000000000
    Total Energy =                       -325.1457978835091467
    Molecular point group: c1
  Basis Set: CC-PVTZ
  Basis Set:

  -Total Gradient:
     Atom            X                  Y                   Z
    ------   -----------------  -----------------  -----------------
       1       -0.000030236344    -0.000004137611     0.000005398637
       2        0.000002587239    -0.000053330357     0.000746737208
       3       -0.000045555329    -0.000028274711     0.000662352478
       4       -0.000022910021    -0.000010761905    -0.000009249538
       5       -0.000039232088    -0.000001314975    -0.000775795261
       6        0.000101684162    -0.000051723318    -0.000644047586
       7        0.000022765385    -0.000017135086     0.000033923402
       8        0.000010237829     0.000002566162    -0.000007324961
       9        0.000017811204     0.000007109181     0.000010259395
      10        0.000010820990     0.000162517091     0.000031599412
      11       -0.000004895997     0.000002906079    -0.000005778528
      12       -0.000021540043     0.000003034692    -0.000001231248
      13        0.000003453882     0.000007483772    -0.000033017865
      14        0.000047387323     0.000027118120    -0.000007731464
      15       -0.000025532767    -0.000015372696     0.000031466289
      16       -0.000025203213    -0.000018113183    -0.000034429119
      17       -0.000011955445    -0.000004289860    -0.000001840074
      18        0.000010313230    -0.000008281395    -0.000001291179

  **** Optimization is complete! (in 4 steps) ****
    Final optimized geometry and variables:
    Molecular point group: c1

    Geometry (in Angstrom), charge = 0, multiplicity = 1:

    H            2.726954902078     0.260196241652     1.321407722261
    C            2.264600703569     0.676148912248     0.434960647310
    N            0.849466392521     0.399436145383     0.439966076410
    H            2.773076569670     0.260547214755    -0.439485914765
    H            2.430939241771     1.745985367375     0.437077300590
    C            0.567669899040    -1.021190330711     0.437389346786
    C            0.153752409016     1.056340078155    -0.647685303816
    H            0.971033471838    -1.506205172579    -0.456894186188
    H            1.037977015736    -1.480059552536     1.299639731417
    C           -0.929700072057    -1.254817949734     0.496903869454
    H            0.317888019691     2.125717500002    -0.582310064405
    H            0.526826633195     0.722749042716    -1.621020791174
    C           -1.333379127163     0.770440057430    -0.561769701591
    H           -1.152520143032    -2.308657804947     0.404823376443
    H           -1.315048795277    -0.902984807677     1.451883303521
    O           -1.584017011309    -0.603594870677    -0.551291166529
    H           -1.848599628253     1.181132243197    -1.418893659570
    H           -1.739779546218     1.229255927852     0.337423657244

  Mulliken Charges: (a.u.)
   Center  Symbol    Alpha    Beta     Spin     Total
       1     H     0.45105  0.45105  0.00000  0.09789
       2     C     3.09490  3.09490  0.00000 -0.18981
       3     N     3.61698  3.61698  0.00000 -0.23396
       4     H     0.46965  0.46965  0.00000  0.06070
       5     H     0.45185  0.45185  0.00000  0.09631
       6     C     3.04133  3.04133  0.00000 -0.08266
       7     C     3.04088  3.04088  0.00000 -0.08175
       8     H     0.46852  0.46852  0.00000  0.06296
       9     H     0.45401  0.45401  0.00000  0.09199
      10     C     2.98343  2.98343  0.00000  0.03315
      11     H     0.45389  0.45389  0.00000  0.09223
      12     H     0.46901  0.46901  0.00000  0.06198
      13     C     2.98358  2.98358  0.00000  0.03283
      14     H     0.44976  0.44976  0.00000  0.10047
      15     H     0.46748  0.46748  0.00000  0.06505
      16     O     4.18646  4.18646  0.00000 -0.37292
      17     H     0.44972  0.44972  0.00000  0.10057
      18     H     0.46752  0.46752  0.00000  0.06497

   Total alpha = 28.00000, Total beta = 28.00000, Total charge = -0.00000
