                              Psi4 1.0.54 Driver

  ==> Input File <==

--------------------------------------------------------------------------
set {
	reference rhf
	basis cc-pvtz
}

set_num_threads( 4 )
memory 2 gb

molecule MOL {
0 1

O	 1.427781	 -0.024807	 -0.810650
C	 0.576499	 0.134701	 -0.003900
C	 -0.765656	 -0.550508	 -0.002152
O	 0.694345	 0.963031	 1.020773
C	 -1.945526	 0.411052	 0.000603
H	 -0.794329	 -1.203792	 -0.868145
H	 -0.791555	 -1.205429	 0.862701
C	 -3.282915	 -0.321280	 0.002596
H	 -1.880300	 1.059126	 -0.864925
H	 -1.877207	 1.057892	 0.866807
H	 -3.388495	 -0.952755	 -0.873419
H	 -4.107811	 0.380864	 0.004116
H	 -3.385717	 -0.953283	 0.878571
C	 1.907139	 1.679193	 1.140159
H	 2.740898	 1.001402	 1.247400
H	 1.806512	 2.288492	 2.023515
H	 2.068584	 2.302573	 0.273340

	symmetry c1
}
set optking {
	frozen_dihedral = ("
		1 2 3 6
	")
}

ee,wfn = optimize('scf', return_wfn=True)
oeprop( wfn, 'DIPOLE', 'QUADRUPOLE', 'MULLIKEN_CHARGES')
f=open( 'psi4out.xyz', 'w' )
f.write( "17  " )
f.write( str(ee) + "\n" )
f.write( MOL.save_string_xyz() )
f.close()
--------------------------------------------------------------------------

    Molecular point group: c1
  Charge       = 0
  Multiplicity = 1
  Basis Set: CC-PVTZ
  Basis Set:
  @DF-RHF Final Energy:  -345.03370440674303
    Total Energy =                       -345.0337044067430270
    Molecular point group: c1
  Basis Set: CC-PVTZ
  Basis Set:
  Basis Set: CC-PVTZ
  Basis Set:
  @DF-RHF Final Energy:  -345.03260981873439
    Total Energy =                       -345.0326098187344996
  Basis Set: CC-PVTZ
  Basis Set:
  Basis Set: CC-PVTZ
  Basis Set:
  @DF-RHF Final Energy:  -345.03394931519045
    Total Energy =                       -345.0339493151903980
  Basis Set: CC-PVTZ
  Basis Set:
  Basis Set: CC-PVTZ
  Basis Set:
  @DF-RHF Final Energy:  -345.03398464180668
    Total Energy =                       -345.0339846418070806
  Basis Set: CC-PVTZ
  Basis Set:
  Basis Set: CC-PVTZ
  Basis Set:
  @DF-RHF Final Energy:  -345.03405682646456
    Total Energy =                       -345.0340568264648482
  Basis Set: CC-PVTZ
  Basis Set:
  Basis Set: CC-PVTZ
  Basis Set:
  @DF-RHF Final Energy:  -345.03406086794195
    Total Energy =                       -345.0340608679418892
  Basis Set: CC-PVTZ
  Basis Set:
  Charge       = 0
  Multiplicity = 1
  Basis Set: CC-PVTZ
  Basis Set:

    Orbital Energies (a.u.)
    -----------------------

    Doubly Occupied:

       1A    -20.597376     2A    -20.533090     3A    -11.363959
       4A    -11.278973     5A    -11.233367     6A    -11.228846
       7A    -11.216474     8A     -1.472363     9A     -1.364967
      10A     -1.085450    11A     -0.999829    12A     -0.942658
      13A     -0.831898    14A     -0.776438    15A     -0.699266
      16A     -0.683903    17A     -0.676408    18A     -0.638936
      19A     -0.597338    20A     -0.578802    21A     -0.551255
      22A     -0.546084    23A     -0.526968    24A     -0.511691
      25A     -0.489915    26A     -0.483892    27A     -0.459260
      28A     -0.434847

  @DF-RHF Final Energy:  -345.03406107129769

   => Energetics <=

    Nuclear Repulsion Energy =            314.7416511591279118
    One-Electron Energy =               -1093.9429251630244835
    Two-Electron Energy =                 434.1672129325988294
    DFT Exchange-Correlation Energy =       0.0000000000000000
    Empirical Dispersion Energy =           0.0000000000000000
    PCM Polarization Energy =               0.0000000000000000
    EFP Energy =                            0.0000000000000000
    Total Energy =                       -345.0340610712976854
    Molecular point group: c1
  Basis Set: CC-PVTZ
  Basis Set:

  -Total Gradient:
     Atom            X                  Y                   Z
    ------   -----------------  -----------------  -----------------
       1        0.000157334983    -0.000413807745     0.000401059361
       2       -0.000291736329     0.000626578672    -0.000691430773
       3        0.000308925341    -0.000664644827     0.000592878076
       4        0.000019680123     0.000070618559     0.000063120258
       5        0.000003704506    -0.000000165266     0.000011506717
       6       -0.000190150763     0.000392779612    -0.000366578728
       7        0.000005978196     0.000003650022     0.000008611917
       8        0.000000916929    -0.000004358744    -0.000010398986
       9       -0.000004433211    -0.000001203339    -0.000009554496
      10        0.000003856092     0.000004252712     0.000006483995
      11       -0.000004240712    -0.000004072110    -0.000006629594
      12       -0.000001237929     0.000004442678     0.000001114067
      13        0.000005420458    -0.000000887705     0.000004722318
      14       -0.000019423697    -0.000020017017    -0.000007622838
      15        0.000009297688    -0.000005021354     0.000003683348
      16       -0.000006445904     0.000004249872     0.000007370281
      17        0.000002554234     0.000007605980    -0.000008334926

  **** Optimization is complete! (in 7 steps) ****
    Final optimized geometry and variables:
    Molecular point group: c1

    Geometry (in Angstrom), charge = 0, multiplicity = 1:

    O            1.613034075566    -0.513120610778    -0.893972303741
    C            0.742494385185    -0.244340869996    -0.137680913160
    C           -0.623936548738    -0.879532561685    -0.141932570406
    O            0.874704814800     0.650864577865     0.827424099620
    C           -1.766373882160     0.126543177406    -0.302989817350
    H           -0.634024420638    -1.599227843889    -0.947811225272
    H           -0.739737007796    -1.416343401833     0.794133799904
    C           -3.127678804131    -0.558151172496    -0.347904208539
    H           -1.616413888112     0.693346803869    -1.216750935358
    H           -1.738858823396     0.836788801479     0.513448897756
    H           -3.190132294416    -1.255701029523    -1.175979482714
    H           -3.922349204800     0.168663495370    -0.466292328210
    H           -3.317570226927    -1.110925726486     0.566010946595
    C            2.121005446779     1.308400958686     0.936187667930
    H            2.911585009586     0.597226972915     1.124208288001
    H            2.027014229075     1.989162578014     1.766678376534
    H            2.344815694657     1.852857438643     0.030889281152

  Mulliken Charges: (a.u.)
   Center  Symbol    Alpha    Beta     Spin     Total
       1     O     4.19922  4.19922  0.00000 -0.39844
       2     C     2.80921  2.80921  0.00000  0.38158
       3     C     3.07857  3.07857  0.00000 -0.15714
       4     O     4.14939  4.14939  0.00000 -0.29878
       5     C     3.09141  3.09141  0.00000 -0.18283
       6     H     0.43721  0.43721  0.00000  0.12557
       7     H     0.44771  0.44771  0.00000  0.10459
       8     C     3.15133  3.15133  0.00000 -0.30266
       9     H     0.44932  0.44932  0.00000  0.10136
      10     H     0.44348  0.44348  0.00000  0.11304
      11     H     0.45303  0.45303  0.00000  0.09394
      12     H     0.44614  0.44614  0.00000  0.10772
      13     H     0.45440  0.45440  0.00000  0.09120
      14     C     3.03678  3.03678  0.00000 -0.07355
      15     H     0.45290  0.45290  0.00000  0.09420
      16     H     0.44569  0.44569  0.00000  0.10862
      17     H     0.45420  0.45420  0.00000  0.09159

   Total alpha = 28.00000, Total beta = 28.00000, Total charge = -0.00000

*** Psi4 exiting successfully. Buy a developer a beer!
