                              Psi4 1.0.54 Driver

  ==> Input File <==

--------------------------------------------------------------------------
set {
	reference rhf
	basis cc-pvtz
}

set_num_threads( 4 )
memory 2 gb

molecule MOL {
0 1

H	 -3.425266	 0.246415	 -1.961727
C	 -2.721816	 -0.403421	 -1.483000
C	 -2.105997	 -0.000418	 -0.398703
H	 -2.540941	 -1.372255	 -1.905426
O	 -1.189946	 -0.765863	 0.237511
H	 -2.285939	 0.965051	 0.037895
C	 0.026572	 -0.995256	 -0.379403
C	 1.057223	 0.049888	 -0.004615
H	 -0.054361	 -1.010670	 -1.459674
H	 0.397526	 -1.952058	 -0.044198
F	 2.203233	 -0.234060	 -0.590375
F	 0.698147	 1.254887	 -0.392621
F	 1.266440	 0.094219	 1.288722

	symmetry c1
}
set optking {
	frozen_dihedral = ("
		6 3 5 7
	")
}

ee,wfn = optimize('scf', return_wfn=True)
oeprop( wfn, 'DIPOLE', 'QUADRUPOLE', 'MULLIKEN_CHARGES')
f=open( 'psi4out.xyz', 'w' )
f.write( "13  " )
f.write( str(ee) + "\n" )
f.write( MOL.save_string_xyz() )
f.close()
--------------------------------------------------------------------------

    Molecular point group: c1
  Charge       = 0
  Multiplicity = 1
  Basis Set: CC-PVTZ
  Basis Set:
  @DF-RHF Final Energy:  -527.73728802340338
    Total Energy =                       -527.7372880234031527
    Molecular point group: c1
  Basis Set: CC-PVTZ
  Basis Set:
  Basis Set: CC-PVTZ
  Basis Set:
  @DF-RHF Final Energy:  -527.73761869145847
    Total Energy =                       -527.7376186914583513
  Basis Set: CC-PVTZ
  Basis Set:
  Basis Set: CC-PVTZ
  Basis Set:
  @DF-RHF Final Energy:  -527.73793476885066
    Total Energy =                       -527.7379347688508915
  Basis Set: CC-PVTZ
  Basis Set:
  Basis Set: CC-PVTZ
  Basis Set:
  @DF-RHF Final Energy:  -527.73794560730619
    Total Energy =                       -527.7379456073063011
  Basis Set: CC-PVTZ
  Basis Set:
  Basis Set: CC-PVTZ
  Basis Set:
  @DF-RHF Final Energy:  -527.73794738026072
    Total Energy =                       -527.7379473802607208
  Basis Set: CC-PVTZ
  Basis Set:
  Charge       = 0
  Multiplicity = 1
  Basis Set: CC-PVTZ
  Basis Set:

    Orbital Energies (a.u.)
    -----------------------

    Doubly Occupied:

       1A    -26.338741     2A    -26.337427     3A    -26.334925
       4A    -20.593537     5A    -11.493937     6A    -11.315036
       7A    -11.297274     8A    -11.227175     9A     -1.747082
      10A     -1.643844    11A     -1.641861    12A     -1.432546
      13A     -1.082230    14A     -1.024429    15A     -0.932953
      16A     -0.840714    17A     -0.836495    18A     -0.832901
      19A     -0.769551    20A     -0.724177    21A     -0.719570
      22A     -0.707707    23A     -0.679017    24A     -0.664645
      25A     -0.657815    26A     -0.651977    27A     -0.647914
      28A     -0.595004    29A     -0.565087    30A     -0.533834
      31A     -0.475143    32A     -0.379376

  @DF-RHF Final Energy:  -527.73794778969273

   => Energetics <=

    Nuclear Repulsion Energy =            414.4679296402744058
    One-Electron Energy =               -1552.9639051584485969
    Two-Electron Energy =                 610.7580277284813519
    DFT Exchange-Correlation Energy =       0.0000000000000000
    Empirical Dispersion Energy =           0.0000000000000000
    PCM Polarization Energy =               0.0000000000000000
    EFP Energy =                            0.0000000000000000
    Total Energy =                       -527.7379477896928393
    Molecular point group: c1
  Basis Set: CC-PVTZ
  Basis Set:

  -Total Gradient:
     Atom            X                  Y                   Z
    ------   -----------------  -----------------  -----------------
       1        0.000010066079     0.000005960771    -0.000005103535
       2        0.000028753732    -0.000043429556     0.000023250249
       3       -0.000035460134     0.000096021922    -0.000054092164
       4       -0.000005680823     0.000018540375    -0.000001173876
       5        0.000046470110    -0.000061046136     0.000061367231
       6        0.000005355817    -0.000010323584     0.000005300836
       7        0.000014985420     0.000015392940    -0.000037743603
       8        0.000010007556     0.000028681681    -0.000023486615
       9       -0.000005905281    -0.000011666400     0.000000987276
      10       -0.000017291368    -0.000000332750     0.000004546600
      11       -0.000022926988     0.000004799923     0.000022300466
      12       -0.000042185227    -0.000024683101    -0.000014444574
      13        0.000013811109    -0.000017916080     0.000018291706

  **** Optimization is complete! (in 6 steps) ****
    Final optimized geometry and variables:
    Molecular point group: c1

    Geometry (in Angstrom), charge = 0, multiplicity = 1:

    H           -3.565886476179     0.277774092107    -1.791777594071
    C           -2.837654571412    -0.354100341421    -1.324404549424
    C           -2.167790963934     0.082744521617    -0.286053771815
    H           -2.685313401343    -1.336858008948    -1.728792763277
    O           -1.243748333070    -0.656887826411     0.390365272281
    H           -2.330905678925     1.055610953414     0.137441377056
    C           -0.014616633522    -0.908936687914    -0.204345688549
    C            1.010162794477     0.131736137963     0.194843265914
    H           -0.077261400474    -0.922558660850    -1.283716434476
    H            0.341660250355    -1.866815061522     0.144782797948
    F            2.162705554537    -0.134400310422    -0.386033773208
    F            0.647569717855     1.343165104340    -0.171101312147
    F            1.210864452665     0.154730949929     1.491588229570

  Mulliken Charges: (a.u.)
   Center  Symbol    Alpha    Beta     Spin     Total
       1     H     0.42350  0.42350  0.00000  0.15301
       2     C     3.18307  3.18307  0.00000 -0.36613
       3     C     2.97380  2.97380  0.00000  0.05240
       4     H     0.42358  0.42358  0.00000  0.15284
       5     O     4.16748  4.16748  0.00000 -0.33496
       6     H     0.41989  0.41989  0.00000  0.16022
       7     C     3.00309  3.00309  0.00000 -0.00618
       8     C     2.67643  2.67643  0.00000  0.64714
       9     H     0.45573  0.45573  0.00000  0.08855
      10     H     0.44064  0.44064  0.00000  0.11872
      11     F     4.61260  4.61260  0.00000 -0.22520
      12     F     4.61167  4.61167  0.00000 -0.22333
      13     F     4.60854  4.60854  0.00000 -0.21707

   Total alpha = 32.00000, Total beta = 32.00000, Total charge = -0.00000

*** Psi4 exiting successfully. Buy a developer a beer!
