                              Psi4 1.0.54 Driver

  ==> Input File <==

--------------------------------------------------------------------------
set {
	reference rhf
	basis cc-pvtz
}

set_num_threads( 4 )
memory 2 gb

molecule MOL {
0 1

H	 -3.162190	 0.493205	 -0.000107
C	 -2.363908	 -0.234727	 0.000005
O	 -1.158738	 0.454634	 -0.000087
H	 -2.464314	 -0.863616	 -0.882153
H	 -2.464327	 -0.863359	 0.882345
C	 -0.028611	 -0.359694	 0.000037
C	 -0.459923	 -1.812166	 -0.026190
H	 0.574069	 -0.162683	 0.886942
H	 0.593041	 -0.136622	 -0.867390
C	 0.724973	 -2.771525	 -0.027643
H	 -1.091938	 -2.000414	 0.834650
H	 -1.073066	 -1.974564	 -0.905756
H	 1.339301	 -2.642440	 0.857244
H	 0.388556	 -3.800841	 -0.046431
H	 1.358127	 -2.616623	 -0.894932

	symmetry c1
}
set optking {
	frozen_dihedral = ("
		8 6 3 2
	")
}

ee,wfn = optimize('scf', return_wfn=True)
oeprop( wfn, 'DIPOLE', 'QUADRUPOLE', 'MULLIKEN_CHARGES')
f=open( 'psi4out.xyz', 'w' )
f.write( "15  " )
f.write( str(ee) + "\n" )
f.write( MOL.save_string_xyz() )
f.close()
--------------------------------------------------------------------------

    Molecular point group: c1
  Charge       = 0
  Multiplicity = 1
  Basis Set: CC-PVTZ
  Basis Set:
  @DF-RHF Final Energy:  -232.19955382216833
    Total Energy =                       -232.1995538221682409
    Molecular point group: c1
  Basis Set: CC-PVTZ
  Basis Set:
  Basis Set: CC-PVTZ
  Basis Set:
  @DF-RHF Final Energy:  -231.14601135785443
    Total Energy =                       -231.1460113578544906
  Basis Set: CC-PVTZ
  Basis Set:
  Basis Set: CC-PVTZ
  Basis Set:
  @DF-RHF Final Energy:  -231.34187811194499
    Total Energy =                       -231.3418781119449363
  Basis Set: CC-PVTZ
  Basis Set:
  Basis Set: CC-PVTZ
  Basis Set:
  @DF-RHF Final Energy:  -231.71276996561065
    Total Energy =                       -231.7127699656108462
  Basis Set: CC-PVTZ
  Basis Set:
  @DF-RHF Final Energy:  -232.00389939719423
    Total Energy =                       -232.0038993971942318
  @DF-RHF Final Energy:  -232.16539279043573
    Total Energy =                       -232.1653927904357033
  @DF-RHF Final Energy:  -232.20917843245815
    Total Energy =                       -232.2091784324579180
  @DF-RHF Final Energy:  -232.21544603924542
    Total Energy =                       -232.2154460392455348
  @DF-RHF Final Energy:  -232.21699103093314
    Total Energy =                       -232.2169910309332863
  Basis Set: CC-PVTZ
  Basis Set:
  @DF-RHF Final Energy:  -232.21710292306204
    Total Energy =                       -232.2171029230620434
  Basis Set: CC-PVTZ
  Basis Set:
  Basis Set: CC-PVTZ
  Basis Set:
  @DF-RHF Final Energy:  -232.21711901986308
    Total Energy =                       -232.2171190198631621
  Basis Set: CC-PVTZ
  Basis Set:
  Basis Set: CC-PVTZ
  Basis Set:
  @DF-RHF Final Energy:  -232.21712028039067
    Total Energy =                       -232.2171202803907022
  Basis Set: CC-PVTZ
  Basis Set:
  Charge       = 0
  Multiplicity = 1
  Basis Set: CC-PVTZ
  Basis Set:

    Orbital Energies (a.u.)
    -----------------------

    Doubly Occupied:

       1A    -20.539833     2A    -11.264130     3A    -11.259950
       4A    -11.220936     5A    -11.215344     6A     -1.368933
       7A     -1.060629     8A     -0.962941     9A     -0.886319
      10A     -0.797033    11A     -0.673082    12A     -0.660505
      13A     -0.626336    14A     -0.607274    15A     -0.554053
      16A     -0.548088    17A     -0.523404    18A     -0.500568
      19A     -0.493215    20A     -0.443974    21A     -0.402883

  @DF-RHF Final Energy:  -232.21712032675418

   => Energetics <=

    Nuclear Repulsion Energy =            192.1628060050502427
    One-Electron Energy =                -695.5409894379956768
    Two-Electron Energy =                 271.1610631061912500
    DFT Exchange-Correlation Energy =       0.0000000000000000
    Empirical Dispersion Energy =           0.0000000000000000
    PCM Polarization Energy =               0.0000000000000000
    EFP Energy =                            0.0000000000000000
    Total Energy =                       -232.2171203267541841
    Molecular point group: c1
  Basis Set: CC-PVTZ
  Basis Set:

  -Total Gradient:
     Atom            X                  Y                   Z
    ------   -----------------  -----------------  -----------------
       1        0.000001676465     0.000001386665    -0.000002951416
       2        0.000321037388    -0.000522035852    -0.000432401689
       3       -0.000315997230     0.000822001001     0.000548008491
       4       -0.000004615031     0.000004664314    -0.000001744882
       5       -0.000003411467    -0.000000373492     0.000013254224
       6       -0.000723913971    -0.000458847785     0.000287222954
       7        0.000008203596    -0.000024703215    -0.000015061076
       8        0.000723085186     0.000163522227    -0.000411940416
       9       -0.000001563143    -0.000001021396     0.000005747628
      10       -0.000004786394     0.000005137946     0.000008612111
      11       -0.000003954325     0.000006911219    -0.000003362118
      12       -0.000000220167     0.000001288149     0.000001626467
      13        0.000004673353    -0.000001013077     0.000002682332
      14       -0.000004340719     0.000002610252     0.000003082469
      15        0.000004126458     0.000000473044    -0.000002775083

  **** Optimization is complete! (in 13 steps) ****
    Final optimized geometry and variables:
    Molecular point group: c1

    Geometry (in Angstrom), charge = 0, multiplicity = 1:

    H           -1.717160726984     0.920957601068    -2.326381800368
    C           -1.378937346817     0.402135277451    -1.440716880585
    O           -0.119568864718     0.909690352896    -1.142630548264
    H           -1.360528554705    -0.661044948991    -1.658068866278
    H           -2.099441933876     0.581754415282    -0.648318332802
    C            0.612704124103     0.439483021878    -0.039046116011
    C            0.015128778968    -0.700016895512     0.776003695891
    H            0.790930168275     1.286771448431     0.616988287549
    H            1.581941719737     0.125293758793    -0.414123145584
    C            0.941376570763    -1.080140885164     1.927740622004
    H           -0.951115827432    -0.413249425549     1.175034694559
    H           -0.145837396177    -1.567567920386     0.146084801382
    H            1.101490619457    -0.241724826383     2.596798566862
    H            0.521167905137    -1.891342464018     2.509527637635
    H            1.910661058951    -1.402264867444     1.563098239809

  Mulliken Charges: (a.u.)
   Center  Symbol    Alpha    Beta     Spin     Total
       1     H     0.44153  0.44153  0.00000  0.11694
       2     C     3.03631  3.03631  0.00000 -0.07262
       3     O     4.18213  4.18213  0.00000 -0.36426
       4     H     0.47073  0.47073  0.00000  0.05854
       5     H     0.47123  0.47123  0.00000  0.05753
       6     C     2.95548  2.95548  0.00000  0.08903
       7     C     3.10526  3.10526  0.00000 -0.21052
       8     H     0.46605  0.46605  0.00000  0.06790
       9     H     0.46480  0.46480  0.00000  0.07041
      10     C     3.15236  3.15236  0.00000 -0.30471
      11     H     0.45038  0.45038  0.00000  0.09925
      12     H     0.45022  0.45022  0.00000  0.09957
      13     H     0.45368  0.45368  0.00000  0.09264
      14     H     0.44627  0.44627  0.00000  0.10746
      15     H     0.45358  0.45358  0.00000  0.09284

   Total alpha = 21.00000, Total beta = 21.00000, Total charge = -0.00000

*** Psi4 exiting successfully. Buy a developer a beer!
