                              Psi4 1.0.54 Driver

  ==> Input File <==

--------------------------------------------------------------------------
set {
	reference rhf
	basis cc-pvtz
}

set_num_threads( 4 )
memory 2 gb

molecule MOL {
0 1

H	 -2.126027	 -1.185746	 0.255363
O	 -2.346257	 -0.289210	 0.080372
C	 -1.183935	 0.486039	 -0.009831
C	 0.062853	 -0.375310	 0.027457
H	 -1.178881	 1.094526	 -0.908634
H	 -1.184406	 1.155156	 0.838676
O	 1.172093	 0.457955	 -0.054438
H	 0.052476	 -1.081302	 -0.804627
H	 0.076323	 -0.955658	 0.947560
C	 2.395478	 -0.199028	 -0.000366
H	 2.505946	 -0.901710	 -0.823354
H	 3.174616	 0.545641	 -0.071768
H	 2.513730	 -0.742241	 0.934223

	symmetry c1
}
set optking {
	frozen_dihedral = ("
		1 2 3 5
	")
}

ee,wfn = optimize('scf', return_wfn=True)
oeprop( wfn, 'DIPOLE', 'QUADRUPOLE', 'MULLIKEN_CHARGES')
f=open( 'psi4out.xyz', 'w' )
f.write( "13  " )
f.write( str(ee) + "\n" )
f.write( MOL.save_string_xyz() )
f.close()
--------------------------------------------------------------------------

    Molecular point group: c1
  Charge       = 0
  Multiplicity = 1
  Basis Set: CC-PVTZ
  Basis Set:
  @DF-RHF Final Energy:  -268.05821443698449
    Total Energy =                       -268.0582144369844855
    Molecular point group: c1
  Basis Set: CC-PVTZ
  Basis Set:
  Basis Set: CC-PVTZ
  Basis Set:
  @DF-RHF Final Energy:  -268.05884451476413
    Total Energy =                       -268.0588445147641323
  Basis Set: CC-PVTZ
  Basis Set:
  Basis Set: CC-PVTZ
  Basis Set:
  @DF-RHF Final Energy:  -268.05898145278309
    Total Energy =                       -268.0589814527829731
  Basis Set: CC-PVTZ
  Basis Set:
  Basis Set: CC-PVTZ
  Basis Set:
  @DF-RHF Final Energy:  -268.05898318285671
    Total Energy =                       -268.0589831828566503
  Basis Set: CC-PVTZ
  Basis Set:
  Charge       = 0
  Multiplicity = 1
  Basis Set: CC-PVTZ
  Basis Set:

    Orbital Energies (a.u.)
    -----------------------

    Doubly Occupied:

       1A    -20.561406     2A    -20.550507     3A    -11.278230
       4A    -11.271765     5A    -11.267127     6A     -1.397519
       7A     -1.367215     8A     -1.023015     9A     -0.916608
      10A     -0.852339    11A     -0.696435    12A     -0.690222
      13A     -0.672229    14A     -0.626582    15A     -0.611231
      16A     -0.580645    17A     -0.546634    18A     -0.500272
      19A     -0.473037    20A     -0.443624    21A     -0.429994

  @DF-RHF Final Energy:  -268.05898339012094

   => Energetics <=

    Nuclear Repulsion Energy =            190.7047223011255426
    One-Electron Energy =                -744.0141427694737786
    Two-Electron Energy =                 285.2504370782270371
    DFT Exchange-Correlation Energy =       0.0000000000000000
    Empirical Dispersion Energy =           0.0000000000000000
    PCM Polarization Energy =               0.0000000000000000
    EFP Energy =                            0.0000000000000000
    Total Energy =                       -268.0589833901211705
    Molecular point group: c1
  Basis Set: CC-PVTZ
  Basis Set:

  -Total Gradient:
     Atom            X                  Y                   Z
    ------   -----------------  -----------------  -----------------
       1        0.000037305343    -0.000257778238    -0.001158230851
       2        0.000078847518     0.000131701899     0.001319808540
       3       -0.000562529345     0.000919525404     0.000346218510
       4       -0.000007993971    -0.000011750768    -0.000008004501
       5        0.000471915011    -0.000766489023    -0.000489661145
       6       -0.000006575790    -0.000014681410    -0.000001864939
       7       -0.000004676507     0.000014121216    -0.000005601926
       8        0.000012776304    -0.000009419649     0.000001233872
       9       -0.000007284993     0.000005696727    -0.000006075438
      10       -0.000011934079    -0.000007784656     0.000005284186
      11        0.000005043132    -0.000001724083    -0.000004045415
      12       -0.000009860588     0.000002761961    -0.000002926327
      13        0.000004967969    -0.000004179378     0.000003865435

  **** Optimization is complete! (in 5 steps) ****
    Final optimized geometry and variables:
    Molecular point group: c1

    Geometry (in Angstrom), charge = 0, multiplicity = 1:

    H           -2.121440121782    -1.223141219641     0.390137046412
    O           -2.345489708324    -0.333828901557     0.189133372934
    C           -1.197240072642     0.459917171687     0.047909126757
    C            0.072365097927    -0.367090508490     0.023359669568
    H           -1.273017067103     1.011628278169    -0.880173767279
    H           -1.142593268359     1.173243148631     0.861660821779
    O            1.152729850996     0.490925928867    -0.118765742973
    H            0.032630701491    -1.077800620865    -0.802620393560
    H            0.157795946067    -0.940242100697     0.948476888098
    C            2.391710502075    -0.138611528291    -0.163881577666
    H            2.458515297746    -0.823618967107    -1.005822000359
    H            3.145847005703     0.626102011416    -0.275829608941
    H            2.588232411843    -0.694261810837     0.750110183187

  Mulliken Charges: (a.u.)
   Center  Symbol    Alpha    Beta     Spin     Total
       1     H     0.39372  0.39372  0.00000  0.21255
       2     O     4.20379  4.20379  0.00000 -0.40757
       3     C     2.95031  2.95031  0.00000  0.09938
       4     C     2.97896  2.97896  0.00000  0.04209
       5     H     0.46482  0.46482  0.00000  0.07036
       6     H     0.46819  0.46819  0.00000  0.06362
       7     O     4.17131  4.17131  0.00000 -0.34262
       8     H     0.47247  0.47247  0.00000  0.05506
       9     H     0.47773  0.47773  0.00000  0.04454
      10     C     3.03364  3.03364  0.00000 -0.06727
      11     H     0.47009  0.47009  0.00000  0.05983
      12     H     0.44457  0.44457  0.00000  0.11087
      13     H     0.47042  0.47042  0.00000  0.05916

   Total alpha = 21.00000, Total beta = 21.00000, Total charge =  0.00000

*** Psi4 exiting successfully. Buy a developer a beer!
