  ==> Input File <==

--------------------------------------------------------------------------
set {
	reference rhf
	basis cc-pvtz
}

set_num_threads( 4 )
memory 2 gb

molecule MOL {
0 1

H	 -2.035000	 -1.300000	 0.000000
C	 -1.130000	 -0.718000	 0.000000
N	 0.000000	 -1.401000	 -0.000000
C	 -1.190000	 0.666000	 -0.000000
C	 1.130000	 -0.718000	 0.000000
H	 -2.140000	 1.169000	 0.000000
C	 -0.000000	 1.373000	 -0.000000
H	 2.036000	 -1.300000	 -0.000000
C	 1.190000	 0.666000	 0.000000
H	 -0.000000	 2.448000	 0.000000
H	 2.140000	 1.169000	 0.000000

	symmetry c1
}
ee = optimize('scf')
oeprop('DIPOLE', 'QUADRUPOLE', 'MULLIKEN_CHARGES')
f=open( 'psi4out.xyz', 'w' )
f.write( "11  " )
f.write( str(ee) + "\n" )
f.write( MOL.save_string_xyz() )
f.close()
--------------------------------------------------------------------------

    Molecular point group: c1
  Charge       = 0
  Multiplicity = 1
  Basis Set: CC-PVTZ
  Basis Set:
  @DF-RHF Final Energy:  -246.77800213879399
    Total Energy =                       -246.7780021387941360
    Molecular point group: c1
  Basis Set: CC-PVTZ
  Basis Set:
  Basis Set: CC-PVTZ
  Basis Set:
  @DF-RHF Final Energy:  -246.77810170492975
    Total Energy =                       -246.7781017049296679
  Basis Set: CC-PVTZ
  Basis Set:
  Charge       = 0
  Multiplicity = 1
  Basis Set: CC-PVTZ
  Basis Set:

    Orbital Energies (a.u.)
    -----------------------

    Doubly Occupied:

       1A    -15.557364     2A    -11.266791     3A    -11.266772
       4A    -11.253058     5A    -11.235217     6A    -11.235159
       7A     -1.268062     8A     -1.093142     9A     -1.037268
      10A     -0.860594    11A     -0.859622    12A     -0.726430
      13A     -0.665445    14A     -0.653836    15A     -0.600014
      16A     -0.577014    17A     -0.547449    18A     -0.521335
      19A     -0.414186    20A     -0.385903    21A     -0.348258

  @DF-RHF Final Energy:  -246.77810448599246

   => Energetics <=

    Nuclear Repulsion Energy =            208.4316878579531362
    One-Electron Energy =                -745.6737417238132366
    Two-Electron Energy =                 290.4639493798676995
    DFT Exchange-Correlation Energy =       0.0000000000000000
    Empirical Dispersion Energy =           0.0000000000000000
    PCM Polarization Energy =               0.0000000000000000
    EFP Energy =                            0.0000000000000000
    Total Energy =                       -246.7781044859923441
    Molecular point group: c1
  Basis Set: CC-PVTZ
  Basis Set:

  -Total Gradient:
     Atom            X                  Y                   Z
    ------   -----------------  -----------------  -----------------
       1       -0.000002233090    -0.000005776145     0.000000000000
       2       -0.000109839841     0.000095549642    -0.000000000000
       3        0.000010128879    -0.000058980484    -0.000000000000
       4       -0.000011094138    -0.000057658133     0.000000000000
       5        0.000100353211     0.000082637627    -0.000000000000
       6        0.000014404797    -0.000012215810     0.000000000000
       7       -0.000000376683     0.000032577062    -0.000000000000
       8        0.000000200223    -0.000003026213     0.000000000000
       9        0.000014072310    -0.000053495686     0.000000000000
      10       -0.000000496490    -0.000006811727     0.000000000000
      11       -0.000015119179    -0.000012800133     0.000000000000

  **** Optimization is complete! (in 3 steps) ****
    Final optimized geometry and variables:
    Molecular point group: c1

    Geometry (in Angstrom), charge = 0, multiplicity = 1:

    H           -2.032960112287    -1.268042707443     0.000000000000
    C           -1.127920739243    -0.688651315643     0.000000000000
    N            0.000055182366    -1.369107089651    -0.000000000000
    C           -1.186962299824     0.691941453137     0.000000000000
    C            1.127963802930    -0.688576612706     0.000000000000
    H           -2.134709365436     1.193118178547     0.000000000000
    C           -0.000048938087     1.396050823685    -0.000000000000
    H            2.033051051579    -1.267887006483     0.000000000000
    C            1.186911269666     0.692032901840     0.000000000000
    H           -0.000094339481     2.469526091110     0.000000000000
    H            2.134623595320     1.193272365308     0.000000000000

  Mulliken Charges: (a.u.)
   Center  Symbol    Alpha    Beta     Spin     Total
       1     H     0.41911  0.41911  0.00000  0.16178
       2     C     3.04707  3.04707  0.00000 -0.09414
       3     N     3.60202  3.60202  0.00000 -0.20404
       4     C     3.07034  3.07034  0.00000 -0.14069
       5     C     3.04707  3.04707  0.00000 -0.09414
       6     H     0.41256  0.41256  0.00000  0.17488
       7     C     3.08038  3.08038  0.00000 -0.16075
       8     H     0.41911  0.41911  0.00000  0.16178
       9     C     3.07035  3.07035  0.00000 -0.14070
      10     H     0.41943  0.41943  0.00000  0.16114
      11     H     0.41256  0.41256  0.00000  0.17488

   Total alpha = 21.00000, Total beta = 21.00000, Total charge =  0.00000
