                              Psi4 1.0.54 Driver

  ==> Input File <==

--------------------------------------------------------------------------
set {
	reference rhf
	basis cc-pvtz
}

set_num_threads( 4 )
memory 2 gb

molecule MOL {
0 1

H	 2.190573	 -0.629143	 -0.208718
O	 1.355408	 -0.529451	 0.208662
C	 0.700177	 0.619554	 -0.266242
C	 -0.713111	 0.588314	 0.266177
H	 0.678680	 0.627133	 -1.351786
H	 1.199747	 1.521489	 0.077736
O	 -1.421673	 -0.521378	 -0.196983
H	 -1.244794	 1.469161	 -0.069059
H	 -0.685100	 0.604721	 1.352683
H	 -2.232239	 -0.578518	 0.278141

	symmetry c1
}
set optking {
	frozen_dihedral = ("
		10 7 4 3
	")
}

ee,wfn = optimize('scf', return_wfn=True)
oeprop( wfn, 'DIPOLE', 'QUADRUPOLE', 'MULLIKEN_CHARGES')
f=open( 'psi4out.xyz', 'w' )
f.write( "10  " )
f.write( str(ee) + "\n" )
f.write( MOL.save_string_xyz() )
f.close()
--------------------------------------------------------------------------

    Molecular point group: c1
  Charge       = 0
  Multiplicity = 1
  Basis Set: CC-PVTZ
  Basis Set:
  @DF-RHF Final Energy:  -229.02226461562054
    Total Energy =                       -229.0222646156205997
    Molecular point group: c1
  Basis Set: CC-PVTZ
  Basis Set:
  Basis Set: CC-PVTZ
  Basis Set:
  @DF-RHF Final Energy:  -229.02368130975512
    Total Energy =                       -229.0236813097550055
  Basis Set: CC-PVTZ
  Basis Set:
  Basis Set: CC-PVTZ
  Basis Set:
  @DF-RHF Final Energy:  -229.02413357541167
    Total Energy =                       -229.0241335754116676
  Basis Set: CC-PVTZ
  Basis Set:
  Basis Set: CC-PVTZ
  Basis Set:
  @DF-RHF Final Energy:  -229.02419506444943
    Total Energy =                       -229.0241950644495432
  Basis Set: CC-PVTZ
  Basis Set:
  Basis Set: CC-PVTZ
  Basis Set:
  @DF-RHF Final Energy:  -229.02420461817397
    Total Energy =                       -229.0242046181739966
  Basis Set: CC-PVTZ
  Basis Set:
  Basis Set: CC-PVTZ
  Basis Set:
  @DF-RHF Final Energy:  -229.02420652658196
    Total Energy =                       -229.0242065265819633
  Basis Set: CC-PVTZ
  Basis Set:
  Basis Set: CC-PVTZ
  Basis Set:
  @DF-RHF Final Energy:  -229.02420757824774
    Total Energy =                       -229.0242075782477968
  Basis Set: CC-PVTZ
  Basis Set:
  Charge       = 0
  Multiplicity = 1
  Basis Set: CC-PVTZ
  Basis Set:

    Orbital Energies (a.u.)
    -----------------------

    Doubly Occupied:

       1A    -20.546043     2A    -20.545853     3A    -11.268441
       4A    -11.267761     5A     -1.375141     6A     -1.355275
       7A     -1.003899     8A     -0.831596     9A     -0.714902
      10A     -0.714154    11A     -0.609982    12A     -0.607553
      13A     -0.592443    14A     -0.529476    15A     -0.473741
      16A     -0.445696    17A     -0.443272

  @DF-RHF Final Energy:  -229.02420785823529

   => Energetics <=

    Nuclear Repulsion Energy =            133.5101194539895459
    One-Electron Energy =                -578.4181971048474225
    Two-Electron Energy =                 215.8838697926226473
    DFT Exchange-Correlation Energy =       0.0000000000000000
    Empirical Dispersion Energy =           0.0000000000000000
    PCM Polarization Energy =               0.0000000000000000
    EFP Energy =                            0.0000000000000000
    Total Energy =                       -229.0242078582352292
    Molecular point group: c1
  Basis Set: CC-PVTZ
  Basis Set:

  -Total Gradient:
     Atom            X                  Y                   Z
    ------   -----------------  -----------------  -----------------
       1        0.000006353758     0.000005704098    -0.000008916995
       2        0.000000681177    -0.000025390200     0.000035621102
       3       -0.000058371419     0.000081274733    -0.000124798758
       4        0.000051320315    -0.000020389548     0.000108186943
       5       -0.000001102076    -0.000004088494    -0.000000097783
       6        0.000003338001    -0.000003126828     0.000004043129
       7        0.000091509269    -0.000111206832     0.000098072705
       8       -0.000001475849    -0.000012936983     0.000000097121
       9       -0.000001066533    -0.000005966492     0.000000097336
      10       -0.000091186650     0.000096126546    -0.000112304800

  **** Optimization is complete! (in 8 steps) ****
    Final optimized geometry and variables:
    Molecular point group: c1

    Geometry (in Angstrom), charge = 0, multiplicity = 1:

    H            2.230905618944    -0.523106550406    -0.335899513947
    O            1.472499817068    -0.381489091565     0.199115944199
    C            0.633289540435     0.568832013721    -0.393073585977
    C           -0.712463799817     0.538231445735     0.286617809702
    H            0.494464480006     0.366135917705    -1.450694837625
    H            1.051865050022     1.567517948781    -0.289159315309
    O           -1.399266643313    -0.617581334322    -0.100964798084
    H           -1.266340418793     1.429017976080    -0.001788261047
    H           -0.561825561582     0.563995885412     1.361732581134
    H           -2.168618437481    -0.729203464938     0.425630121918

  Mulliken Charges: (a.u.)
   Center  Symbol    Alpha    Beta     Spin     Total
       1     H     0.39429  0.39429  0.00000  0.21142
       2     O     4.19592  4.19592  0.00000 -0.39184
       3     C     2.96163  2.96163  0.00000  0.07673
       4     C     2.96110  2.96110  0.00000  0.07780
       5     H     0.47060  0.47060  0.00000  0.05880
       6     H     0.47766  0.47766  0.00000  0.04468
       7     O     4.19540  4.19540  0.00000 -0.39079
       8     H     0.47793  0.47793  0.00000  0.04414
       9     H     0.47071  0.47071  0.00000  0.05859
      10     H     0.39476  0.39476  0.00000  0.21047

   Total alpha = 17.00000, Total beta = 17.00000, Total charge =  0.00000

*** Psi4 exiting successfully. Buy a developer a beer!
