  ==> Input File <==

--------------------------------------------------------------------------
set {
	reference rhf
	basis cc-pvtz
}

set_num_threads( 4 )
memory 2 gb

molecule MOL {
0 1

H	 -3.436473	 1.252944	 -1.023892
O	 -3.458596	 0.315260	 -0.960865
C	 -3.176635	 -0.080824	 0.355601
C	 -1.763371	 0.265266	 0.799691
H	 -3.321825	 -1.153438	 0.379502
H	 -3.895468	 0.357385	 1.043382
C	 -0.673390	 -0.426948	 -0.013392
H	 -1.631049	 1.344913	 0.747560
H	 -1.664587	 -0.001624	 1.849167
C	 0.737842	 -0.043159	 0.423759
H	 -0.806103	 -0.190518	 -1.063345
H	 -0.797221	 -1.503753	 0.074146
C	 1.824000	 -0.743224	 -0.390623
H	 0.850588	 1.033777	 0.343840
H	 0.868587	 -0.286314	 1.476203
C	 3.255957	 -0.453067	 0.062319
H	 1.718250	 -0.470599	 -1.438164
H	 1.658105	 -1.815850	 -0.339904
C	 4.336839	 -1.182952	 -0.731473
H	 3.347322	 -0.729468	 1.108278
H	 3.436506	 0.617764	 0.016035
H	 4.178651	 -2.256500	 -0.708063
H	 5.318374	 -0.985750	 -0.315611
H	 4.356200	 -0.874305	 -1.769725

	symmetry c1
}
set optking {
	frozen_dihedral = ("
		20 16 13 17
	")
}

ee = optimize('scf')
oeprop('DIPOLE', 'QUADRUPOLE', 'MULLIKEN_CHARGES')
f=open( 'psi4out.xyz', 'w' )
f.write( "24  " )
f.write( str(ee) + "\n" )
f.write( MOL.save_string_xyz() )
f.close()
--------------------------------------------------------------------------

    Molecular point group: c1
  Charge       = 0
  Multiplicity = 1
  Basis Set: CC-PVTZ
  Basis Set:
  @DF-RHF Final Energy:  -349.38176873541624
    Total Energy =                       -349.3817687354165855
    Molecular point group: c1
  Basis Set: CC-PVTZ
  Basis Set:
  Basis Set: CC-PVTZ
  Basis Set:
  @DF-RHF Final Energy:  -349.38212393868343
    Total Energy =                       -349.3821239386831508
  Basis Set: CC-PVTZ
  Basis Set:
  Basis Set: CC-PVTZ
  Basis Set:
  @DF-RHF Final Energy:  -349.38215010559009
    Total Energy =                       -349.3821501055898011
  Basis Set: CC-PVTZ
  Basis Set:
  Basis Set: CC-PVTZ
  Basis Set:
  @DF-RHF Final Energy:  -349.38215191614950
    Total Energy =                       -349.3821519161501783
  Basis Set: CC-PVTZ
  Basis Set:
  Charge       = 0
  Multiplicity = 1
  Basis Set: CC-PVTZ
  Basis Set:

    Orbital Energies (a.u.)
    -----------------------

    Doubly Occupied:

       1A    -20.546305     2A    -11.265536     3A    -11.215200
       4A    -11.211654     5A    -11.210563     6A    -11.209174
       7A    -11.209000     8A    -11.205239     9A     -1.364160
      10A     -1.089993    11A     -1.050342    12A     -0.989094
      13A     -0.914813    14A     -0.842797    15A     -0.797895
      16A     -0.788501    17A     -0.681718    18A     -0.658742
      19A     -0.632002    20A     -0.615833    21A     -0.592820
      22A     -0.586266    23A     -0.547187    24A     -0.544685
      25A     -0.531950    26A     -0.499229    27A     -0.497252
      28A     -0.472154    29A     -0.468125    30A     -0.461445
      31A     -0.458653    32A     -0.456351    33A     -0.420805

  @DF-RHF Final Energy:  -349.38215202025157

   => Energetics <=

    Nuclear Repulsion Energy =            380.9949152724928467
    One-Electron Energy =               -1228.6831708804129448
    Two-Electron Energy =                 498.3061035876687583
    DFT Exchange-Correlation Energy =       0.0000000000000000
    Empirical Dispersion Energy =           0.0000000000000000
    PCM Polarization Energy =               0.0000000000000000
    EFP Energy =                            0.0000000000000000
    Total Energy =                       -349.3821520202513966
    Molecular point group: c1
  Basis Set: CC-PVTZ
  Basis Set:

  -Total Gradient:
     Atom            X                  Y                   Z
    ------   -----------------  -----------------  -----------------
       1       -0.000000050437    -0.000000090515     0.000001436151
       2        0.000000229894    -0.000003518233     0.000001904654
       3        0.000001444135     0.000000414365    -0.000002119075
       4        0.000014451232    -0.000004740935     0.000003643218
       5       -0.000000049667     0.000001164665    -0.000003155804
       6        0.000000647921    -0.000000314365     0.000000647930
       7       -0.000001805855     0.000002930943    -0.000006869282
       8        0.000001084543    -0.000001501809    -0.000001413792
       9       -0.000002810222     0.000002555418     0.000002304925
      10       -0.000011204964     0.000009309482    -0.000000115233
      11        0.000002601955    -0.000000351733    -0.000002044756
      12       -0.000001594003    -0.000000613212     0.000002700599
      13        0.000005889370    -0.000008609919     0.000000643445
      14       -0.000004075750     0.000004484881    -0.000001199021
      15        0.000007658286    -0.000004414226    -0.000003958829
      16        0.000000695022    -0.000017515576     0.000016974782
      17       -0.000008942320     0.000010056115     0.000000876596
      18        0.000003513360     0.000001117163    -0.000001576059
      19        0.000004350765     0.000005107680    -0.000003919816
      20       -0.000003427553     0.000012085353     0.000006131862
      21       -0.000001116283    -0.000005849464    -0.000004224714
      22       -0.000001609943    -0.000002143949     0.000003465225
      23       -0.000011292662    -0.000001610775    -0.000002057156
      24        0.000005413186     0.000002048645    -0.000008075849

  **** Optimization is complete! (in 5 steps) ****
    Final optimized geometry and variables:
    Molecular point group: c1

    Geometry (in Angstrom), charge = 0, multiplicity = 1:

    H           -3.483293604119     1.577143454331    -0.946168933270
    O           -3.521638160038     0.639274694947    -0.895079335996
    C           -3.255445476950     0.222363378572     0.418150185233
    C           -1.839347408826     0.538308028821     0.875512572085
    H           -3.419398197555    -0.847776136450     0.427531630333
    H           -3.971246112865     0.664409931319     1.106642685562
    C           -0.756078380001    -0.161268957073     0.059790058880
    H           -1.688241150432     1.616125074887     0.838745374635
    H           -1.751727540110     0.255816651157     1.921872460110
    C            0.658278727969     0.191688605957     0.511229553212
    H           -0.877937294118     0.091449293413    -0.987643606256
    H           -0.898749233434    -1.236941970407     0.132085537756
    C            1.744226050103    -0.513969387531    -0.295716004310
    H            0.800233147853     1.267544173645     0.437785657509
    H            0.774666137137    -0.057939189261     1.563468579626
    C            3.160083602443    -0.159954768238     0.150145396217
    H            1.627567146132    -0.265510827639    -1.347909244269
    H            1.604678512699    -1.589917554001    -0.221490461377
    C            4.239511968022    -0.870239079341    -0.659909883479
    H            3.277815983486    -0.407867293388     1.201619902109
    H            3.302042262336     0.914720556268     0.073833340962
    H            4.146199316631    -1.947941619772    -0.575898490900
    H            5.231396188702    -0.597022207098    -0.318391138198
    H            4.170339848853    -0.615344236199    -1.712259989876

  Mulliken Charges: (a.u.)
   Center  Symbol    Alpha    Beta     Spin     Total
       1     H     0.39531  0.39531  0.00000  0.20937
       2     O     4.20372  4.20372  0.00000 -0.40745
       3     C     2.97757  2.97757  0.00000  0.04487
       4     C     3.10271  3.10271  0.00000 -0.20541
       5     H     0.45889  0.45889  0.00000  0.08221
       6     H     0.46030  0.46030  0.00000  0.07941
       7     C     3.08787  3.08787  0.00000 -0.17573
       8     H     0.45906  0.45906  0.00000  0.08189
       9     H     0.45330  0.45330  0.00000  0.09340
      10     C     3.08834  3.08834  0.00000 -0.17669
      11     H     0.44646  0.44646  0.00000  0.10707
      12     H     0.45543  0.45543  0.00000  0.08913
      13     C     3.08577  3.08577  0.00000 -0.17154
      14     H     0.45558  0.45558  0.00000  0.08883
      15     H     0.45616  0.45616  0.00000  0.08769
      16     C     3.08403  3.08403  0.00000 -0.16807
      17     H     0.45459  0.45459  0.00000  0.09083
      18     H     0.45510  0.45510  0.00000  0.08980
      19     C     3.15037  3.15037  0.00000 -0.30075
      20     H     0.45516  0.45516  0.00000  0.08968
      21     H     0.45522  0.45522  0.00000  0.08956
      22     H     0.45518  0.45518  0.00000  0.08963
      23     H     0.44880  0.44880  0.00000  0.10239
      24     H     0.45506  0.45506  0.00000  0.08988

   Total alpha = 33.00000, Total beta = 33.00000, Total charge = -0.00000
