                              Psi4 1.0.54 Driver

  ==> Input File <==

--------------------------------------------------------------------------
set {
	reference rhf
	basis cc-pvtz
}

set_num_threads( 4 )
memory 2 gb

molecule MOL {
0 1

H	 -2.631307	 -0.772470	 1.206972
C	 -2.670572	 -0.520115	 0.149778
O	 -1.401606	 -0.295183	 -0.366624
H	 -3.104881	 -1.349201	 -0.389554
H	 -3.312256	 0.350656	 0.027770
C	 -0.718530	 0.758693	 0.228682
C	 0.718529	 0.758687	 -0.228709
H	 -1.176498	 1.708665	 -0.046615
H	 -0.748705	 0.673525	 1.312779
O	 1.401606	 -0.295166	 0.366636
H	 0.748705	 0.673477	 -1.312803
H	 1.176496	 1.708671	 0.046552
C	 2.714315	 -0.441627	 -0.061017
H	 2.765292	 -0.641548	 -1.128869
H	 3.305661	 0.447341	 0.150952
H	 3.143725	 -1.278506	 0.470147

	symmetry c1
}
set optking {
	frozen_dihedral = ("
		2 3 6 7
	")
}

ee,wfn = optimize('scf', return_wfn=True)
oeprop( wfn, 'DIPOLE', 'QUADRUPOLE', 'MULLIKEN_CHARGES')
f=open( 'psi4out.xyz', 'w' )
f.write( "16  " )
f.write( str(ee) + "\n" )
f.write( MOL.save_string_xyz() )
f.close()
--------------------------------------------------------------------------

    Molecular point group: c1
  Charge       = 0
  Multiplicity = 1
  Basis Set: CC-PVTZ
  Basis Set:
  @DF-RHF Final Energy:  -307.09788417958100
    Total Energy =                       -307.0978841795809444
    Molecular point group: c1
  Basis Set: CC-PVTZ
  Basis Set:
  Basis Set: CC-PVTZ
  Basis Set:
  @DF-RHF Final Energy:  -307.09788754228867
    Total Energy =                       -307.0978875422887313
  Basis Set: CC-PVTZ
  Basis Set:
  Charge       = 0
  Multiplicity = 1
  Basis Set: CC-PVTZ
  Basis Set:

    Orbital Energies (a.u.)
    -----------------------

    Doubly Occupied:

       1A    -20.547973     2A    -20.547573     3A    -11.267482
       4A    -11.266803     5A    -11.261732     6A    -11.261403
       7A     -1.391741     8A     -1.374442     9A     -1.032051
      10A     -0.937360    11A     -0.891886    12A     -0.824526
      13A     -0.686003    14A     -0.683211    15A     -0.659445
      16A     -0.637558    17A     -0.632679    18A     -0.598911
      19A     -0.549469    20A     -0.537069    21A     -0.510223
      22A     -0.479939    23A     -0.464405    24A     -0.422939
      25A     -0.413929

  @DF-RHF Final Energy:  -307.09788792608958

   => Energetics <=

    Nuclear Repulsion Energy =            259.0821044113206426
    One-Electron Energy =                -932.5984774494332896
    Two-Electron Energy =                 366.4184851120230633
    DFT Exchange-Correlation Energy =       0.0000000000000000
    Empirical Dispersion Energy =           0.0000000000000000
    PCM Polarization Energy =               0.0000000000000000
    EFP Energy =                            0.0000000000000000
    Total Energy =                       -307.0978879260895837
    Molecular point group: c1
  Basis Set: CC-PVTZ
  Basis Set:

  -Total Gradient:
     Atom            X                  Y                   Z
    ------   -----------------  -----------------  -----------------
       1        0.000004968593    -0.000002619269    -0.000003749490
       2        0.000201175154    -0.000337271554     0.000386640028
       3       -0.000247557817     0.000405292717    -0.000382739886
       4        0.000012969163     0.000005129403    -0.000009340077
       5       -0.000005442416    -0.000006944584    -0.000004506401
       6       -0.000049224074     0.000237821868    -0.000337430418
       7        0.000123183253    -0.000358868612     0.000378008875
       8       -0.000003084590     0.000000518683    -0.000004381699
       9        0.000002035716     0.000010321450    -0.000001949635
      10       -0.000024240925     0.000031844768    -0.000005223941
      11        0.000011870249     0.000005112000    -0.000022350516
      12       -0.000018064495    -0.000003568612     0.000009939860
      13       -0.000007721179     0.000013808063    -0.000001005419
      14        0.000000583029    -0.000000240182    -0.000001506329
      15        0.000002294752    -0.000000765071    -0.000000820524
      16       -0.000003744415     0.000000428931     0.000000415573

  **** Optimization is complete! (in 3 steps) ****
    Final optimized geometry and variables:
    Molecular point group: c1

    Geometry (in Angstrom), charge = 0, multiplicity = 1:

    H           -2.638796445343    -0.766527938120     1.186226401273
    C           -2.678012350741    -0.509602441619     0.130366993110
    O           -1.408547319229    -0.280923601903    -0.383455286452
    H           -3.110280611780    -1.336846039860    -0.413449005880
    H           -3.321613781946     0.360251991935     0.011326638890
    C           -0.726168860907     0.772861080753     0.213339889890
    C            0.710872981084     0.773490716598    -0.244177693067
    H           -1.186839278504     1.722760291241    -0.057106002241
    H           -0.752428386712     0.683837663349     1.297033782661
    O            1.393534030166    -0.279188654298     0.353630616744
    H            0.741856851541     0.686268794274    -1.328119706039
    H            1.168461635582     1.724130825491     0.029436393375
    C            2.705832070425    -0.427943271917    -0.074599094864
    H            2.755790210714    -0.630878766086    -1.141908082004
    H            3.298060588660     0.461114106333     0.134448712193
    H            3.134941794403    -1.263672700774     0.458611648227

  Mulliken Charges: (a.u.)
   Center  Symbol    Alpha    Beta     Spin     Total
       1     H     0.46962  0.46962  0.00000  0.06076
       2     C     3.03178  3.03178  0.00000 -0.06355
       3     O     4.17122  4.17122  0.00000 -0.34245
       4     H     0.44670  0.44670  0.00000  0.10659
       5     H     0.47388  0.47388  0.00000  0.05225
       6     C     2.96059  2.96059  0.00000  0.07883
       7     C     2.96077  2.96077  0.00000  0.07846
       8     H     0.47458  0.47458  0.00000  0.05084
       9     H     0.47138  0.47138  0.00000  0.05725
      10     O     4.17076  4.17076  0.00000 -0.34153
      11     H     0.47069  0.47069  0.00000  0.05862
      12     H     0.47596  0.47596  0.00000  0.04808
      13     C     3.03190  3.03190  0.00000 -0.06380
      14     H     0.47011  0.47011  0.00000  0.05979
      15     H     0.47362  0.47362  0.00000  0.05276
      16     H     0.44645  0.44645  0.00000  0.10709

   Total alpha = 25.00000, Total beta = 25.00000, Total charge =  0.00000

*** Psi4 exiting successfully. Buy a developer a beer!
