                              Psi4 1.0.54 Driver

  ==> Input File <==

--------------------------------------------------------------------------
set {
	reference rhf
	basis cc-pvtz
}

set_num_threads( 4 )
memory 2 gb

molecule MOL {
0 1

O	 -2.081319	 -0.951530	 -0.502732
N	 -1.613558	 0.006676	 0.014756
C	 -0.329345	 -0.171618	 0.743966
O	 -2.068523	 1.100482	 -0.024385
C	 0.835974	 0.063375	 -0.208872
H	 -0.339202	 -1.179591	 1.123850
H	 -0.340508	 0.544919	 1.548131
C	 2.177098	 -0.108067	 0.499761
H	 0.761318	 -0.634231	 -1.034905
H	 0.758800	 1.063629	 -0.619083
C	 3.361358	 0.129002	 -0.430727
H	 2.239681	 -1.108874	 0.916782
H	 2.232853	 0.579905	 1.338208
H	 3.350784	 -0.567308	 -1.261834
H	 3.342595	 1.133318	 -0.839030
H	 4.299123	 0.002496	 0.096296

	symmetry c1
}
set optking {
	frozen_dihedral = ("
		5 3 2 1
	")
}

ee,wfn = optimize('scf', return_wfn=True)
oeprop( wfn, 'DIPOLE', 'QUADRUPOLE', 'MULLIKEN_CHARGES')
f=open( 'psi4out.xyz', 'w' )
f.write( "16  " )
f.write( str(ee) + "\n" )
f.write( MOL.save_string_xyz() )
f.close()
--------------------------------------------------------------------------

    Molecular point group: c1
  Charge       = 0
  Multiplicity = 1
  Basis Set: CC-PVTZ
  Basis Set:
  @DF-RHF Final Energy:  -360.90953336537143
    Total Energy =                       -360.9095333653714874
    Molecular point group: c1
  Basis Set: CC-PVTZ
  Basis Set:
  Basis Set: CC-PVTZ
  Basis Set:
  @DF-RHF Final Energy:  -360.90952858951158
    Total Energy =                       -360.9095285895111829
  Basis Set: CC-PVTZ
  Basis Set:
  Basis Set: CC-PVTZ
  Basis Set:
  @DF-RHF Final Energy:  -360.90951690105044
    Total Energy =                       -360.9095169010504378
  Basis Set: CC-PVTZ
  Basis Set:
  Basis Set: CC-PVTZ
  Basis Set:
  @DF-RHF Final Energy:  -360.90953381089611
    Total Energy =                       -360.9095338108960505
  Basis Set: CC-PVTZ
  Basis Set:
  Charge       = 0
  Multiplicity = 1
  Basis Set: CC-PVTZ
  Basis Set:

    Orbital Energies (a.u.)
    -----------------------

    Doubly Occupied:

       1A    -20.589717     2A    -20.589562     3A    -15.836205
       4A    -11.296262     5A    -11.250724     6A    -11.241919
       7A    -11.225933     8A     -1.635187     9A     -1.419495
      10A     -1.136694    11A     -1.060195    12A     -0.948775
      13A     -0.843379    14A     -0.829321    15A     -0.757705
      16A     -0.737934    17A     -0.727993    18A     -0.679597
      19A     -0.615698    20A     -0.607962    21A     -0.567862
      22A     -0.542215    23A     -0.517352    24A     -0.504232
      25A     -0.496870    26A     -0.486065    27A     -0.469964
      28A     -0.452172

  @DF-RHF Final Energy:  -360.90953404064430

   => Energetics <=

    Nuclear Repulsion Energy =            313.0143570846714738
    One-Electron Energy =               -1111.7138031299259637
    Two-Electron Energy =                 437.7899120046099597
    DFT Exchange-Correlation Energy =       0.0000000000000000
    Empirical Dispersion Energy =           0.0000000000000000
    PCM Polarization Energy =               0.0000000000000000
    EFP Energy =                            0.0000000000000000
    Total Energy =                       -360.9095340406445303
    Molecular point group: c1
  Basis Set: CC-PVTZ
  Basis Set:

  -Total Gradient:
     Atom            X                  Y                   Z
    ------   -----------------  -----------------  -----------------
       1       -0.000012337157    -0.000014102139     0.000010766917
       2        0.000016246086     0.000031146435    -0.000017145999
       3       -0.000000852304    -0.000017962227     0.000004909198
       4        0.000002127732    -0.000008414047     0.000000732519
       5        0.000005045247     0.000008867558    -0.000003015430
       6        0.000002277763     0.000000879018    -0.000002919754
       7        0.000000918162    -0.000000828999    -0.000002335593
       8       -0.000002417970     0.000002911207     0.000005228963
       9       -0.000004182339     0.000001355380     0.000001986057
      10       -0.000002256612    -0.000002552635     0.000001091501
      11       -0.000003143045    -0.000001065740    -0.000001732628
      12        0.000002697369     0.000001953935    -0.000003134083
      13        0.000002142623    -0.000000902023    -0.000000602188
      14       -0.000001347363     0.000000565973     0.000002238225
      15       -0.000001881139    -0.000001584012     0.000002539192
      16       -0.000003037050    -0.000000267685     0.000001393105

  **** Optimization is complete! (in 5 steps) ****
    Final optimized geometry and variables:
    Molecular point group: c1

    Geometry (in Angstrom), charge = 0, multiplicity = 1:

    O           -2.079970493672    -0.964876470240    -0.507661003543
    N           -1.613585603096    -0.006790441179     0.011475880805
    C           -0.329297777527    -0.183761185134     0.740848870453
    O           -2.070311183628     1.086398966096    -0.025730825991
    C            0.836069507308     0.054525609676    -0.211127017454
    H           -0.337608495871    -1.191860370424     1.120165893427
    H           -0.341871842887     0.532359053022     1.545504370480
    C            2.177148097002    -0.117887073913     0.497388265475
    H            0.762154115460    -0.641231842723    -1.038911885377
    H            0.758178451157     1.055590117030    -0.618943892038
    C            3.361468250794     0.115458047051    -0.433982522034
    H            2.238269408615    -1.118009309800     0.916231223802
    H            2.234338181225     0.571537345158     1.334558450430
    H            3.348768736961    -0.581604159139    -1.264435110695
    H            3.344857345880     1.119428033655    -0.843211602374
    H            4.299219494624    -0.012802430967     0.092639374036

  Mulliken Charges: (a.u.)
   Center  Symbol    Alpha    Beta     Spin     Total
       1     O     4.17402  4.17402  0.00000 -0.34805
       2     N     3.27559  3.27559  0.00000  0.44883
       3     C     3.04015  3.04015  0.00000 -0.08031
       4     O     4.17425  4.17425  0.00000 -0.34851
       5     C     3.10123  3.10123  0.00000 -0.20246
       6     H     0.43387  0.43387  0.00000  0.13225
       7     H     0.43397  0.43397  0.00000  0.13205
       8     C     3.09351  3.09351  0.00000 -0.18702
       9     H     0.43803  0.43803  0.00000  0.12393
      10     H     0.43773  0.43773  0.00000  0.12455
      11     C     3.14827  3.14827  0.00000 -0.29654
      12     H     0.45036  0.45036  0.00000  0.09928
      13     H     0.45038  0.45038  0.00000  0.09925
      14     H     0.45173  0.45173  0.00000  0.09653
      15     H     0.45171  0.45171  0.00000  0.09657
      16     H     0.44518  0.44518  0.00000  0.10964

   Total alpha = 28.00000, Total beta = 28.00000, Total charge = -0.00000

*** Psi4 exiting successfully. Buy a developer a beer!
