  ==> Input File <==

--------------------------------------------------------------------------
set {
	reference rhf
	basis 6-31G*
}

set_num_threads( 1 )
memory 2 gb

molecule MOL {
0 1

H	 -2.352127	 0.794044	 2.852086
C	 -2.332088	 0.116276	 2.020887
C	 -1.242650	 0.000483	 1.297203
H	 -3.214853	 -0.454694	 1.802646
O	 -1.180634	 -0.819263	 0.215062
H	 -0.345976	 0.557814	 1.503486
C	 0.051604	 -1.018856	 -0.387932
C	 1.043764	 0.054862	 -0.001873
H	 -0.017620	 -1.041351	 -1.469781
H	 0.437898	 -1.966374	 -0.042284
F	 2.212596	 -0.199467	 -0.571921
F	 0.652529	 1.252447	 -0.405055
F	 1.230877	 0.110694	 1.300533

	symmetry c1
}
set optking {
	frozen_dihedral = ("
		11 8 7 9,
		6 3 2 1,
		6 3 5 7
	")
}

ee = energy('scf')
oeprop('DIPOLE', 'QUADRUPOLE', 'MULLIKEN_CHARGES')
f=open( 'psi4out.xyz', 'w' )
f.write( "13  " )
f.write( str(ee) + "\n" )
f.write( MOL.save_string_xyz() )
f.close()
--------------------------------------------------------------------------

    Molecular point group: c1

    Geometry (in Angstrom), charge = 0, multiplicity = 1:

       Center              X                  Y                   Z               Mass
    ------------   -----------------  -----------------  -----------------  -----------------
           H         -2.539744234068     0.820148972334     2.460042929118     1.007825032070
           C         -2.519705234068     0.142380972334     1.628843929118    12.000000000000
           C         -1.430267234068     0.026587972334     0.905159929118    12.000000000000
           H         -3.402470234068    -0.428589027666     1.410602929118     1.007825032070
           O         -1.368251234068    -0.793158027666    -0.176981070882    15.994914619560
           H         -0.533593234068     0.583918972334     1.111442929118     1.007825032070
           C         -0.136013234068    -0.992751027666    -0.779975070882    12.000000000000
           C          0.856146765932     0.080966972334    -0.393916070882    12.000000000000
           H         -0.205237234068    -1.015246027666    -1.861824070882     1.007825032070
           H          0.250280765932    -1.940269027666    -0.434327070882     1.007825032070
           F          2.024978765932    -0.173362027666    -0.963964070882    18.998403224000
           F          0.464911765932     1.278551972334    -0.797098070882    18.998403224000
           F          1.043259765932     0.136798972334     0.908489929118    18.998403224000

  Charge       = 0
  Multiplicity = 1
  Basis Set: 6-31G*
  Basis Set:

    Orbital Energies (a.u.)
    -----------------------

    Doubly Occupied:

       1A    -26.363972     2A    -26.355333     3A    -26.355230
       4A    -20.602152     5A    -11.518091     6A    -11.320540
       7A    -11.280904     8A    -11.204505     9A     -1.761025
      10A     -1.662587    11A     -1.651230    12A     -1.434943
      13A     -1.083227    14A     -1.016860    15A     -0.937338
      16A     -0.868866    17A     -0.848923    18A     -0.836554
      19A     -0.765321    20A     -0.735056    21A     -0.720771
      22A     -0.713316    23A     -0.689035    24A     -0.663385
      25A     -0.661050    26A     -0.660871    27A     -0.645146
      28A     -0.580829    29A     -0.553064    30A     -0.525413
      31A     -0.492384    32A     -0.340986

  @DF-RHF Final Energy:  -527.50356177228502

   => Energetics <=

    Nuclear Repulsion Energy =            425.0519793885622448
    One-Electron Energy =               -1573.4132493422580410
    Two-Electron Energy =                 620.8577081814122494
    DFT Exchange-Correlation Energy =       0.0000000000000000
    Empirical Dispersion Energy =           0.0000000000000000
    PCM Polarization Energy =               0.0000000000000000
    EFP Energy =                            0.0000000000000000
    Total Energy =                       -527.5035617722834331

  Mulliken Charges: (a.u.)
   Center  Symbol    Alpha    Beta     Spin     Total
       1     H     0.40911  0.40911  0.00000  0.18178
       2     C     3.24471  3.24471  0.00000 -0.48943
       3     C     2.91361  2.91361  0.00000  0.17278
       4     H     0.40703  0.40703  0.00000  0.18595
       5     O     4.31481  4.31481  0.00000 -0.62962
       6     H     0.37116  0.37116  0.00000  0.25767
       7     C     3.01904  3.01904  0.00000 -0.03809
       8     C     2.49033  2.49033  0.00000  1.01935
       9     H     0.39500  0.39500  0.00000  0.21000
      10     H     0.40255  0.40255  0.00000  0.19490
      11     F     4.68079  4.68079  0.00000 -0.36157
      12     F     4.67703  4.67703  0.00000 -0.35405
      13     F     4.67484  4.67484  0.00000 -0.34968

   Total alpha = 32.00000, Total beta = 32.00000, Total charge = -0.00000
