  ==> Input File <==

--------------------------------------------------------------------------
set {
	reference rhf
	basis 6-31G*
}

set_num_threads( 1 )
memory 2 gb

molecule MOL {
0 1

H	 1.136379	 0.211822	 1.465562
C	 1.135357	 0.094285	 0.374742
C	 0.065331	 0.871482	 -0.349150
O	 1.941633	 -0.601957	 -0.151457
C	 0.559087	 2.245805	 -0.823410
H	 -0.793228	 0.963154	 0.306126
H	 -0.233744	 0.279850	 -1.213260
C	 0.873710	 3.204577	 0.325586
H	 -0.201779	 2.683367	 -1.461872
H	 1.441135	 2.117392	 -1.447221
H	 -0.004124	 3.374052	 0.941388
H	 1.205954	 4.165451	 -0.053428
H	 1.656099	 2.816602	 0.971135

	symmetry c1
}
set optking {
	frozen_dihedral = ("
		6 3 5 9
	")
}

ee = energy('scf')
oeprop('DIPOLE', 'QUADRUPOLE', 'MULLIKEN_CHARGES')
f=open( 'psi4out.xyz', 'w' )
f.write( "13  " )
f.write( str(ee) + "\n" )
f.write( MOL.save_string_xyz() )
f.close()
--------------------------------------------------------------------------

    Molecular point group: c1

    Geometry (in Angstrom), charge = 0, multiplicity = 1:

       Center              X                  Y                   Z               Mass
    ------------   -----------------  -----------------  -----------------  -----------------
           H          0.207986122833    -0.955401353899     1.584699363387     1.007825032070
           C          0.206964122833    -1.072938353899     0.493879363387    12.000000000000
           C         -0.863061877167    -0.295741353899    -0.230012636613    12.000000000000
           O          1.013240122833    -1.769180353899    -0.032319636613    15.994914619560
           C         -0.369305877167     1.078581646101    -0.704272636613    12.000000000000
           H         -1.721620877167    -0.204069353899     0.425263363387     1.007825032070
           H         -1.162136877167    -0.887373353899    -1.094122636613     1.007825032070
           C         -0.054682877167     2.037353646101     0.444723363387    12.000000000000
           H         -1.130171877167     1.516143646101    -1.342734636613     1.007825032070
           H          0.512742122833     0.950168646101    -1.328083636613     1.007825032070
           H         -0.932516877167     2.206828646101     1.060525363387     1.007825032070
           H          0.277561122833     2.998227646101     0.065709363387     1.007825032070
           H          0.727706122833     1.649378646101     1.090272363387     1.007825032070

  Charge       = 0
  Multiplicity = 1
  Basis Set: 6-31G*
  Basis Set:

    Orbital Energies (a.u.)
    -----------------------

    Doubly Occupied:

       1A    -20.563507     2A    -11.326660     3A    -11.237890
       4A    -11.235123     5A    -11.223763     6A     -1.403286
       7A     -1.085542     8A     -0.973613     9A     -0.855311
      10A     -0.775278    11A     -0.682820    12A     -0.644528
      13A     -0.613052    14A     -0.598832    15A     -0.563843
      16A     -0.535495    17A     -0.506577    18A     -0.493105
      19A     -0.479998    20A     -0.408735

  @DF-RHF Final Energy:  -230.98252427460204

   => Energetics <=

    Nuclear Repulsion Energy =            173.9850110396740774
    One-Electron Energy =                -657.5210887202157437
    Two-Electron Energy =                 252.5535534059392830
    DFT Exchange-Correlation Energy =       0.0000000000000000
    Empirical Dispersion Energy =           0.0000000000000000
    PCM Polarization Energy =               0.0000000000000000
    EFP Energy =                            0.0000000000000000
    Total Energy =                       -230.9825242746023832

  Mulliken Charges: (a.u.)
   Center  Symbol    Alpha    Beta     Spin     Total
       1     H     0.43062  0.43062  0.00000  0.13876
       2     C     2.83859  2.83859  0.00000  0.32282
       3     C     3.20298  3.20298  0.00000 -0.40596
       4     O     4.23623  4.23623  0.00000 -0.47247
       5     C     3.16092  3.16092  0.00000 -0.32183
       6     H     0.41493  0.41493  0.00000  0.17013
       7     H     0.39974  0.39974  0.00000  0.20052
       8     C     3.24500  3.24500  0.00000 -0.49000
       9     H     0.41261  0.41261  0.00000  0.17479
      10     H     0.40734  0.40734  0.00000  0.18532
      11     H     0.41946  0.41946  0.00000  0.16109
      12     H     0.41318  0.41318  0.00000  0.17363
      13     H     0.41840  0.41840  0.00000  0.16320

   Total alpha = 20.00000, Total beta = 20.00000, Total charge =  0.00000
