  ==> Input File <==

--------------------------------------------------------------------------
set {
	reference rhf
	basis cc-pvtz
}

set_num_threads( 4 )
memory 2 gb

molecule MOL {
0 1

H	 -0.366580	 2.045936	 -0.305741
C	 0.351829	 1.335402	 0.083179
N	 -0.000018	 0.000080	 -0.334836
H	 1.327156	 1.599860	 -0.305475
H	 0.380566	 1.445403	 1.171445
C	 0.204652	 -0.966315	 0.717101
C	 -1.337593	 -0.062577	 -0.872616
H	 -0.001706	 -1.963155	 0.348566
H	 1.234979	 -0.939424	 1.048598
H	 -0.434917	 -0.788347	 1.586784
H	 -1.434798	 0.624846	 -1.703389
H	 -1.542420	 -1.060452	 -1.239244
H	 -2.104044	 0.190068	 -0.133810

	symmetry c1
}
set optking {
	frozen_dihedral = ("
		6 3 2 1
	")
}

ee = optimize('scf')
oeprop('DIPOLE', 'QUADRUPOLE', 'MULLIKEN_CHARGES')
f=open( 'psi4out.xyz', 'w' )
f.write( "13  " )
f.write( str(ee) + "\n" )
f.write( MOL.save_string_xyz() )
f.close()
--------------------------------------------------------------------------

    Molecular point group: c1
  Charge       = 0
  Multiplicity = 1
  Basis Set: CC-PVTZ
  Basis Set:
  @DF-RHF Final Energy:  -173.32813655416339
    Total Energy =                       -173.3281365541632226
    Molecular point group: c1
  Basis Set: CC-PVTZ
  Basis Set:
  Basis Set: CC-PVTZ
  Basis Set:
  @DF-RHF Final Energy:  -173.32856505938864
    Total Energy =                       -173.3285650593886089
  Basis Set: CC-PVTZ
  Basis Set:
  Basis Set: CC-PVTZ
  Basis Set:
  @DF-RHF Final Energy:  -173.32866490204205
    Total Energy =                       -173.3286649020421351
  Basis Set: CC-PVTZ
  Basis Set:
  Basis Set: CC-PVTZ
  Basis Set:
  @DF-RHF Final Energy:  -173.32866665212481
    Total Energy =                       -173.3286666521248378
  Basis Set: CC-PVTZ
  Basis Set:
  Charge       = 0
  Multiplicity = 1
  Basis Set: CC-PVTZ
  Basis Set:

    Orbital Energies (a.u.)
    -----------------------

    Doubly Occupied:

       1A    -15.537306     2A    -11.233992     3A    -11.233883
       4A    -11.233824     5A     -1.222732     6A     -0.951828
       7A     -0.950948     8A     -0.807693     9A     -0.640070
      10A     -0.629841    11A     -0.627588    12A     -0.550844
      13A     -0.546694    14A     -0.513812    15A     -0.501254
      16A     -0.498502    17A     -0.345890

  @DF-RHF Final Energy:  -173.32866686995854

   => Energetics <=

    Nuclear Repulsion Energy =            139.1289415822650710
    One-Electron Energy =                -508.8618155280004771
    Two-Electron Energy =                 196.4042070757768670
    DFT Exchange-Correlation Energy =       0.0000000000000000
    Empirical Dispersion Energy =           0.0000000000000000
    PCM Polarization Energy =               0.0000000000000000
    EFP Energy =                            0.0000000000000000
    Total Energy =                       -173.3286668699585107
    Molecular point group: c1
  Basis Set: CC-PVTZ
  Basis Set:

  -Total Gradient:
     Atom            X                  Y                   Z
    ------   -----------------  -----------------  -----------------
       1       -0.002195245353    -0.000412093089     0.003347181135
       2        0.001710417495     0.000672396043    -0.003868163438
       3        0.003295864311    -0.000745058396    -0.000464944128
       4       -0.000004026821     0.000000486211    -0.000004007373
       5       -0.000000167375     0.000002112027     0.000006589900
       6       -0.002832047770     0.000503500934     0.000973512626
       7        0.000043110021    -0.000003646606    -0.000002508000
       8       -0.000000605558    -0.000010477301     0.000007333881
       9        0.000001564287    -0.000003541258     0.000005274956
      10       -0.000000518333    -0.000001273044     0.000003550873
      11       -0.000005206915     0.000000577788     0.000000986735
      12       -0.000011796562    -0.000003094575    -0.000004079721
      13       -0.000001341426     0.000000111267    -0.000000727445

  **** Optimization is complete! (in 5 steps) ****
    Final optimized geometry and variables:
    Molecular point group: c1

    Geometry (in Angstrom), charge = 0, multiplicity = 1:

    H           -0.129932999343     1.992532418430    -0.208461332362
    C            0.578182955728     1.263550012692     0.163864803146
    N            0.203018271939    -0.079431989538    -0.248311297175
    H            1.568048328829     1.523158823165    -0.193014768154
    H            0.576322379869     1.369595198539     1.247880639075
    C            0.411229583931    -1.051203375664     0.798034600773
    C           -1.138259440007    -0.153098297586    -0.779247576625
    H            0.222533869548    -2.048983124785     0.421971482290
    H            1.438702072108    -1.015878907380     1.139041758788
    H           -0.236539788817    -0.885818107927     1.664024869954
    H           -1.242313744883     0.517308708048    -1.622493232256
    H           -1.338524535735    -1.157980621852    -1.129773732959
    H           -1.906808020229     0.104261671382    -0.043855562206

  Mulliken Charges: (a.u.)
   Center  Symbol    Alpha    Beta     Spin     Total
       1     H     0.45838  0.45838  0.00000  0.08325
       2     C     3.08604  3.08604  0.00000 -0.17207
       3     N     3.59919  3.59919  0.00000 -0.19838
       4     H     0.45016  0.45016  0.00000  0.09968
       5     H     0.46754  0.46754  0.00000  0.06492
       6     C     3.09079  3.09079  0.00000 -0.18158
       7     C     3.09004  3.09004  0.00000 -0.18009
       8     H     0.45343  0.45343  0.00000  0.09313
       9     H     0.45195  0.45195  0.00000  0.09610
      10     H     0.47342  0.47342  0.00000  0.05316
      11     H     0.45203  0.45203  0.00000  0.09594
      12     H     0.45328  0.45328  0.00000  0.09344
      13     H     0.47375  0.47375  0.00000  0.05251

   Total alpha = 17.00000, Total beta = 17.00000, Total charge =  0.00000
