  ==> Input File <==

--------------------------------------------------------------------------
set {
	reference rhf
	basis 6-31G*
}

set_num_threads( 4 )
memory 2 gb

molecule MOL {
0 1

H	 -2.798360	 -0.862255	 -0.071053
N	 -1.863561	 -0.715187	 0.256814
C	 -1.344686	 0.554728	 -0.219830
H	 -1.300452	 -1.461917	 -0.101532
C	 0.081427	 0.741154	 0.254071
H	 -1.362155	 0.656231	 -1.305829
H	 -1.952773	 1.354456	 0.191809
O	 0.874168	 -0.245412	 -0.342030
H	 0.444037	 1.730782	 -0.023037
H	 0.121165	 0.653424	 1.337565
C	 2.081531	 -0.482762	 0.308745
H	 2.602890	 -1.256069	 -0.238867
H	 2.703083	 0.410592	 0.332714
H	 1.922633	 -0.820117	 1.330876

	symmetry c1
}
set optking {
	frozen_dihedral = ("
		11 8 5 3
	")
}

ee = optimize('scf')
oeprop('DIPOLE', 'QUADRUPOLE', 'MULLIKEN_CHARGES')
f=open( 'psi4out.xyz', 'w' )
f.write( "14  " )
f.write( str(ee) + "\n" )
f.write( MOL.save_string_xyz() )
f.close()
--------------------------------------------------------------------------

    Molecular point group: c1
  Charge       = 0
  Multiplicity = 1
  Basis Set: 6-31G*
  Basis Set:
  @DF-RHF Final Energy:  -248.12463344814401
    Total Energy =                       -248.1246334481439817
    Molecular point group: c1
  Basis Set: 6-31G*
  Basis Set:
  Basis Set: 6-31G*
  Basis Set:
  @DF-RHF Final Energy:  -248.12466238454385
    Total Energy =                       -248.1246623845439672
  Basis Set: 6-31G*
  Basis Set:
  Basis Set: 6-31G*
  Basis Set:
  @DF-RHF Final Energy:  -248.12466813826279
    Total Energy =                       -248.1246681382627912
  Basis Set: 6-31G*
  Basis Set:
  Charge       = 0
  Multiplicity = 1
  Basis Set: 6-31G*
  Basis Set:

    Orbital Energies (a.u.)
    -----------------------

    Doubly Occupied:

       1A    -20.556655     2A    -15.529009     3A    -11.265759
       4A    -11.265278     5A    -11.240723     6A     -1.380120
       7A     -1.174026     8A     -0.998943     9A     -0.906823
      10A     -0.815048    11A     -0.684560    12A     -0.672057
      13A     -0.645195    14A     -0.611934    15A     -0.603408
      16A     -0.540239    17A     -0.530062    18A     -0.497389
      19A     -0.472244    20A     -0.416906    21A     -0.380422

  @DF-RHF Final Energy:  -248.12466866001017

   => Energetics <=

    Nuclear Repulsion Energy =            195.0297804254811922
    One-Electron Energy =                -723.9352996085884797
    Two-Electron Energy =                 280.7808505230970013
    DFT Exchange-Correlation Energy =       0.0000000000000000
    Empirical Dispersion Energy =           0.0000000000000000
    PCM Polarization Energy =               0.0000000000000000
    EFP Energy =                            0.0000000000000000
    Total Energy =                       -248.1246686600103430
    Molecular point group: c1
  Basis Set: 6-31G*
  Basis Set:

  -Total Gradient:
     Atom            X                  Y                   Z
    ------   -----------------  -----------------  -----------------
       1       -0.000003171010    -0.000009882478    -0.000006823815
       2        0.000029968876     0.000011508765    -0.000008163732
       3       -0.000257250223    -0.000895432223     0.001173772733
       4        0.000000131218    -0.000036586497    -0.000011045585
       5        0.000066995422     0.000750508254    -0.001153437906
       6       -0.000004790075    -0.000006122943    -0.000003570726
       7        0.000020191014     0.000023704718    -0.000002057008
       8        0.000936454032     0.001332894876    -0.000948196866
       9        0.000001727699    -0.000013254552     0.000000820723
      10       -0.000012182999    -0.000008182754     0.000007902841
      11       -0.000754061232    -0.001160856388     0.000973918127
      12       -0.000009393667     0.000004446250    -0.000014481235
      13       -0.000015886171    -0.000000668030    -0.000010883448
      14        0.000001267113     0.000007923004     0.000002245897

  **** Optimization is complete! (in 4 steps) ****
    Final optimized geometry and variables:
    Molecular point group: c1

    Geometry (in Angstrom), charge = 0, multiplicity = 1:

    H           -2.774905280355    -0.811002917124    -0.107634167305
    N           -1.834878411157    -0.666863616367     0.206271863403
    C           -1.321998263841     0.605121713899    -0.271317427008
    H           -1.278609643861    -1.411068207745    -0.167608649952
    C            0.104222921642     0.794402198861     0.202461020930
    H           -1.343788845942     0.706135867822    -1.357393282434
    H           -1.931470310340     1.403371149796     0.141132811312
    O            0.900218494070    -0.195065772629    -0.387563912629
    H            0.472671441735     1.782515238993    -0.069625471868
    H            0.132521772706     0.704947183363     1.285598188302
    C            2.109505780319    -0.433202864020     0.260695294605
    H            2.626386194998    -1.209405172958    -0.287193343101
    H            2.735538473397     0.457098007317     0.279826336305
    H            1.951297210013    -0.766938295885     1.283611819187

  Mulliken Charges: (a.u.)
   Center  Symbol    Alpha    Beta     Spin     Total
       1     H     0.33263  0.33263  0.00000  0.33474
       2     N     3.92541  3.92541  0.00000 -0.85081
       3     C     3.06938  3.06938  0.00000 -0.13875
       4     H     0.32446  0.32446  0.00000  0.35109
       5     C     2.99001  2.99001  0.00000  0.01998
       6     H     0.42627  0.42627  0.00000  0.14747
       7     H     0.42061  0.42061  0.00000  0.15878
       8     O     4.31035  4.31035  0.00000 -0.62069
       9     H     0.42904  0.42904  0.00000  0.14192
      10     H     0.42311  0.42311  0.00000  0.15378
      11     C     3.07964  3.07964  0.00000 -0.15927
      12     H     0.41309  0.41309  0.00000  0.17381
      13     H     0.42992  0.42992  0.00000  0.14015
      14     H     0.42610  0.42610  0.00000  0.14780

   Total alpha = 21.00000, Total beta = 21.00000, Total charge = -0.00000
