  ==> Input File <==

--------------------------------------------------------------------------
set {
	reference rhf
	basis cc-pvtz
}

set_num_threads( 4 )
memory 2 gb

molecule MOL {
0 1

O	 2.362532	 2.135675	 -0.110304
C	 1.284445	 2.573553	 -0.347158
C	 0.038873	 1.710852	 -0.335778
C	 1.082952	 4.034976	 -0.678622
C	 0.288398	 0.247429	 0.000314
H	 -0.660187	 2.154555	 0.369566
H	 -0.435011	 1.807196	 -1.310026
C	 -0.993089	 -0.581367	 -0.000217
H	 0.768932	 0.182290	 0.969828
H	 0.994440	 -0.165322	 -0.711217
C	 -2.258482	 0.271340	 0.000669
H	 -1.002280	 -1.233920	 -0.870484
H	 -1.002061	 -1.235367	 0.868958
C	 -3.544441	 -0.550271	 -0.000253
H	 -2.250545	 0.925250	 -0.867923
H	 -2.250598	 0.923423	 0.870642
C	 -4.804551	 0.308747	 0.000556
H	 -3.553737	 -1.201524	 -0.870151
H	 -3.553831	 -1.203282	 0.868313
H	 -4.842050	 0.949078	 -0.874436
H	 -5.698404	 -0.304480	 -0.000254
H	 -4.842277	 0.947103	 0.876982
H	 0.403786	 4.489993	 0.033938
H	 2.031167	 4.549555	 -0.656494
H	 0.634997	 4.137167	 -1.660933

	symmetry c1
}
set optking {
	frozen_dihedral = ("
		9 5 8 12
	")
}

ee = optimize('scf')
oeprop('DIPOLE', 'QUADRUPOLE', 'MULLIKEN_CHARGES')
f=open( 'psi4out.xyz', 'w' )
f.write( "25  " )
f.write( str(ee) + "\n" )
f.write( MOL.save_string_xyz() )
f.close()
--------------------------------------------------------------------------

    Molecular point group: c1
  Charge       = 0
  Multiplicity = 1
  Basis Set: CC-PVTZ
  Basis Set:
  @DF-RHF Final Energy:  -387.26067041194227
    Total Energy =                       -387.2606704119426695
    Molecular point group: c1
  Basis Set: CC-PVTZ
  Basis Set:
  Basis Set: CC-PVTZ
  Basis Set:
  @DF-RHF Final Energy:  -387.26155854686078
    Total Energy =                       -387.2615585468610107
  Basis Set: CC-PVTZ
  Basis Set:
  Basis Set: CC-PVTZ
  Basis Set:
  @DF-RHF Final Energy:  -387.26518499113598
    Total Energy =                       -387.2651849911358113
  Basis Set: CC-PVTZ
  Basis Set:
  Basis Set: CC-PVTZ
  Basis Set:
  @DF-RHF Final Energy:  -387.26579056365659
    Total Energy =                       -387.2657905636569922
  Basis Set: CC-PVTZ
  Basis Set:
  @DF-RHF Final Energy:  -387.26581842415862
    Total Energy =                       -387.2658184241583967
  Basis Set: CC-PVTZ
  Basis Set:
  @DF-RHF Final Energy:  -387.26584503861329
    Total Energy =                       -387.2658450386134064
  Basis Set: CC-PVTZ
  Basis Set:
  Basis Set: CC-PVTZ
  Basis Set:
  @DF-RHF Final Energy:  -387.26587945731399
    Total Energy =                       -387.2658794573143268
  Basis Set: CC-PVTZ
  Basis Set:
  Basis Set: CC-PVTZ
  Basis Set:
  @DF-RHF Final Energy:  -387.26588582994685
    Total Energy =                       -387.2658858299460007
  Basis Set: CC-PVTZ
  Basis Set:
  Charge       = 0
  Multiplicity = 1
  Basis Set: CC-PVTZ
  Basis Set:

    Orbital Energies (a.u.)
    -----------------------

    Doubly Occupied:

       1A    -20.538636     2A    -11.320242     3A    -11.229811
       4A    -11.226326     5A    -11.216082     6A    -11.215516
       7A    -11.215073     8A    -11.214557     9A    -11.209308
      10A     -1.398756    11A     -1.094054    12A     -1.056905
      13A     -1.014399    14A     -0.968976    15A     -0.901192
      16A     -0.818243    17A     -0.787098    18A     -0.728611
      19A     -0.660642    20A     -0.656390    21A     -0.634031
      22A     -0.624566    23A     -0.596050    24A     -0.585117
      25A     -0.569484    26A     -0.560704    27A     -0.544797
      28A     -0.528589    29A     -0.521718    30A     -0.495304
      31A     -0.493810    32A     -0.476757    33A     -0.461775
      34A     -0.451367    35A     -0.448487    36A     -0.402855

  @DF-RHF Final Energy:  -387.26588594462919

   => Energetics <=

    Nuclear Repulsion Energy =            446.2809040626063961
    One-Electron Energy =               -1409.3611231689735632
    Two-Electron Energy =                 575.8143331617379772
    DFT Exchange-Correlation Energy =       0.0000000000000000
    Empirical Dispersion Energy =           0.0000000000000000
    PCM Polarization Energy =               0.0000000000000000
    EFP Energy =                            0.0000000000000000
    Total Energy =                       -387.2658859446291899
    Molecular point group: c1
  Basis Set: CC-PVTZ
  Basis Set:

  -Total Gradient:
     Atom            X                  Y                   Z
    ------   -----------------  -----------------  -----------------
       1       -0.000000371196    -0.000000818994    -0.000000526981
       2        0.000002776948    -0.000004005802    -0.000010321320
       3       -0.000000398294    -0.000001196952    -0.000005331414
       4       -0.000004961807     0.000006610302     0.000022431140
       5       -0.003017837336     0.004462739926     0.002753988462
       6        0.000000418325    -0.000002139609     0.000006688485
       7       -0.000003604473     0.000003035886     0.000003160082
       8       -0.002256982914     0.003808681749    -0.003964247276
       9        0.002890830541    -0.004338821343    -0.001681994184
      10       -0.000001874104     0.000003996051    -0.000001526748
      11        0.000001959142     0.000000274202     0.000002392712
      12        0.002393871515    -0.003938232804     0.002894644707
      13       -0.000006589667     0.000003403909    -0.000003394236
      14        0.000000215365    -0.000001260546     0.000003340108
      15        0.000001647136    -0.000001085938    -0.000000721525
      16        0.000000421079     0.000002787538     0.000002118874
      17       -0.000001488944    -0.000000291585    -0.000004865004
      18       -0.000001965985    -0.000000098299     0.000000795691
      19        0.000002509893     0.000000370286    -0.000000365306
      20       -0.000001312609     0.000001717670     0.000000507497
      21       -0.000001092325     0.000000471693    -0.000000871882
      22        0.000000929162    -0.000001802291    -0.000000184003
      23       -0.000004131851     0.000003282880    -0.000008584379
      24        0.000000485813    -0.000001288532    -0.000002936903
      25        0.000006546601    -0.000006329397    -0.000004196596

  **** Optimization is complete! (in 9 steps) ****
    Final optimized geometry and variables:
    Molecular point group: c1

    Geometry (in Angstrom), charge = 0, multiplicity = 1:

    O            3.173033439802     0.931170418858     0.133693847981
    C            2.152367033760     1.452355131492    -0.176733915271
    C            0.834321977447     0.704316295439    -0.220343749802
    C            2.099089681178     2.916159575523    -0.553422136577
    C            0.949921777077    -0.763203586805     0.168903959821
    H            0.141448995513     1.238164140033     0.422703783885
    H            0.437431830563     0.812469396734    -1.226605682138
    C           -0.348472437611    -1.601796925017     0.101836678037
    H            1.393615962792    -0.848228436518     1.152655248775
    H            1.682949835174    -1.219568930624    -0.485245394073
    C           -1.679390614482    -0.856158463224     0.167262010602
    H           -0.321931107761    -2.233677725927    -0.780699504021
    H           -0.323327129965    -2.303969074215     0.930164071959
    C           -2.879861958391    -1.799158409137     0.159297493892
    H           -1.769566290411    -0.168696814338    -0.668619780841
    H           -1.715381474980    -0.248698964276     1.068501867744
    C           -4.216936631712    -1.068327859879     0.221505195142
    H           -2.846572478215    -2.413248569324    -0.736438667772
    H           -2.804179275863    -2.483399443051     0.999673904111
    H           -4.339174390716    -0.401693267780    -0.625849765372
    H           -5.046448505969    -1.765977605901     0.214452994434
    H           -4.295423963083    -0.471299106328     1.124106521607
    H            1.425434610086     3.448623216469     0.108870182019
    H            3.086522400348     3.346753749451    -0.489799566166
    H            1.715989173526     3.029223303885    -1.561625177545

  Mulliken Charges: (a.u.)
   Center  Symbol    Alpha    Beta     Spin     Total
       1     O     4.17021  4.17021  0.00000 -0.34042
       2     C     2.86309  2.86309  0.00000  0.27381
       3     C     3.11757  3.11757  0.00000 -0.23513
       4     C     3.15118  3.15118  0.00000 -0.30237
       5     C     3.09081  3.09081  0.00000 -0.18162
       6     H     0.44194  0.44194  0.00000  0.11612
       7     H     0.44386  0.44386  0.00000  0.11228
       8     C     3.09836  3.09836  0.00000 -0.19673
       9     H     0.44314  0.44314  0.00000  0.11371
      10     H     0.44332  0.44332  0.00000  0.11336
      11     C     3.09205  3.09205  0.00000 -0.18409
      12     H     0.45031  0.45031  0.00000  0.09938
      13     H     0.45001  0.45001  0.00000  0.09998
      14     C     3.08459  3.08459  0.00000 -0.16918
      15     H     0.45343  0.45343  0.00000  0.09313
      16     H     0.45381  0.45381  0.00000  0.09238
      17     C     3.14997  3.14997  0.00000 -0.29994
      18     H     0.45401  0.45401  0.00000  0.09197
      19     H     0.45293  0.45293  0.00000  0.09413
      20     H     0.45586  0.45586  0.00000  0.08828
      21     H     0.44768  0.44768  0.00000  0.10464
      22     H     0.45535  0.45535  0.00000  0.08930
      23     H     0.45066  0.45066  0.00000  0.09869
      24     H     0.43509  0.43509  0.00000  0.12982
      25     H     0.45076  0.45076  0.00000  0.09849

   Total alpha = 36.00000, Total beta = 36.00000, Total charge = -0.00000
