  ==> Input File <==

--------------------------------------------------------------------------
set {
	reference rhf
	basis 6-31G*
}

set_num_threads( 4 )
memory 2 gb

molecule MOL {
0 1

H	 2.142390	 -0.844349	 -0.488223
C	 1.393809	 -1.311292	 -1.139677
C	 0.097423	 -0.554476	 -1.272167
O	 1.633566	 -2.341394	 -1.681465
C	 -0.558097	 -0.297372	 0.091132
H	 -0.558698	 -1.116301	 -1.926643
H	 0.316899	 0.398519	 -1.752232
C	 -1.850991	 0.512573	 -0.019058
H	 -0.768353	 -1.249396	 0.573021
H	 0.141478	 0.228391	 0.738455
C	 -3.096943	 -0.368295	 -0.099594
H	 -1.800724	 1.150330	 -0.898172
H	 -1.931651	 1.177355	 0.838044
H	 -3.060452	 -1.020287	 -0.967456
H	 -3.996858	 0.233488	 -0.175704
H	 -3.191959	 -0.995686	 0.782074

	symmetry c1
}
set optking {
	frozen_dihedral = ("
		9 5 8 12
	")
}

ee = optimize('scf')
oeprop('DIPOLE', 'QUADRUPOLE', 'MULLIKEN_CHARGES')
f=open( 'psi4out.xyz', 'w' )
f.write( "16  " )
f.write( str(ee) + "\n" )
f.write( MOL.save_string_xyz() )
f.close()
--------------------------------------------------------------------------

    Molecular point group: c1
  Charge       = 0
  Multiplicity = 1
  Basis Set: 6-31G*
  Basis Set:
  @DF-RHF Final Energy:  -270.01591419561225
    Total Energy =                       -270.0159141956120266
    Molecular point group: c1
  Basis Set: 6-31G*
  Basis Set:
  Basis Set: 6-31G*
  Basis Set:
  @DF-RHF Final Energy:  -270.01607666653848
    Total Energy =                       -270.0160766665383107
  Basis Set: 6-31G*
  Basis Set:
  Basis Set: 6-31G*
  Basis Set:
  @DF-RHF Final Energy:  -270.01599537894072
    Total Energy =                       -270.0159953789405449
  Basis Set: 6-31G*
  Basis Set:
  Basis Set: 6-31G*
  Basis Set:
  @DF-RHF Final Energy:  -270.01623724520914
    Total Energy =                       -270.0162372452093678
  Basis Set: 6-31G*
  Basis Set:
  Basis Set: 6-31G*
  Basis Set:
  @DF-RHF Final Energy:  -270.01624563585051
    Total Energy =                       -270.0162456358505096
  Basis Set: 6-31G*
  Basis Set:
  Basis Set: 6-31G*
  Basis Set:
  @DF-RHF Final Energy:  -270.01624770948933
    Total Energy =                       -270.0162477094894484
  Basis Set: 6-31G*
  Basis Set:
  Charge       = 0
  Multiplicity = 1
  Basis Set: 6-31G*
  Basis Set:

    Orbital Energies (a.u.)
    -----------------------

    Doubly Occupied:

       1A    -20.562516     2A    -11.326375     3A    -11.236669
       4A    -11.235205     5A    -11.229217     6A    -11.217572
       7A     -1.402200     8A     -1.095360     9A     -1.016152
      10A     -0.907862    11A     -0.810701    12A     -0.793380
      13A     -0.676516    14A     -0.647613    15A     -0.622333
      16A     -0.611698    17A     -0.581340    18A     -0.546010
      19A     -0.535372    20A     -0.507622    21A     -0.487292
      22A     -0.478154    23A     -0.475333    24A     -0.409124

  @DF-RHF Final Energy:  -270.01624770978094

   => Energetics <=

    Nuclear Repulsion Energy =            231.0741079910615952
    One-Electron Energy =                -823.3574817765952503
    Two-Electron Energy =                 322.2671260757528557
    DFT Exchange-Correlation Energy =       0.0000000000000000
    Empirical Dispersion Energy =           0.0000000000000000
    PCM Polarization Energy =               0.0000000000000000
    EFP Energy =                            0.0000000000000000
    Total Energy =                       -270.0162477097807709
    Molecular point group: c1
  Basis Set: 6-31G*
  Basis Set:

  -Total Gradient:
     Atom            X                  Y                   Z
    ------   -----------------  -----------------  -----------------
       1        0.000004326260    -0.000001449637    -0.000014136240
       2       -0.000025866155    -0.000031705563     0.000021049266
       3        0.000034088474     0.000032359689    -0.000009315953
       4        0.000039249827    -0.000011675464    -0.000027731723
       5        0.000241459098     0.001159158713     0.003300876210
       6        0.000000440522     0.000006043042     0.000018893266
       7        0.000002994546    -0.000006088917     0.000017985106
       8        0.001663177765     0.002748724677     0.001554088873
       9       -0.000616200489    -0.001401767711    -0.003132131550
      10       -0.000021434167     0.000058199515     0.000058088575
      11       -0.000001548777    -0.000018158776     0.000047716840
      12       -0.001338774199    -0.002618394433    -0.001893738979
      13       -0.000001217620     0.000056669836     0.000048529726
      14        0.000018214915     0.000030527434    -0.000013323604
      15       -0.000016702904    -0.000001483534     0.000023734464
      16        0.000017792899    -0.000000958870    -0.000000584277

  **** Optimization is complete! (in 7 steps) ****
    Final optimized geometry and variables:
    Molecular point group: c1

    Geometry (in Angstrom), charge = 0, multiplicity = 1:

    H            2.556101537025    -0.140580128738     0.185284401950
    C            1.787906241820    -0.588959483787    -0.456206107067
    C            0.512076853282     0.203221270894    -0.578729673686
    O            1.992035751127    -1.629536206408    -0.992817452250
    C           -0.125203926281     0.476830540022     0.793183972670
    H           -0.162191089866    -0.340518342499    -1.229886009544
    H            0.753561423971     1.150787933593    -1.058200832063
    C           -1.442835566162     1.265456902932     0.687600272500
    H           -0.314196175382    -0.479890000167     1.273467064406
    H            0.585745219183     1.013684060769     1.415243444969
    C           -2.672325180054     0.360907715046     0.575855307281
    H           -1.410663544101     1.906618460174    -0.189502529130
    H           -1.555451683162     1.913477718950     1.551185925731
    H           -2.600872672233    -0.302196620500    -0.281366617981
    H           -3.578700711481     0.947360566763     0.463023041684
    H           -2.784594236026    -0.256287144371     1.462233771971

  Mulliken Charges: (a.u.)
   Center  Symbol    Alpha    Beta     Spin     Total
       1     H     0.43220  0.43220  0.00000  0.13560
       2     C     2.83010  2.83010  0.00000  0.33980
       3     C     3.20966  3.20966  0.00000 -0.41933
       4     O     4.23707  4.23707  0.00000 -0.47415
       5     C     3.16715  3.16715  0.00000 -0.33429
       6     H     0.39921  0.39921  0.00000  0.20158
       7     H     0.40964  0.40964  0.00000  0.18071
       8     C     3.15446  3.15446  0.00000 -0.30891
       9     H     0.41182  0.41182  0.00000  0.17637
      10     H     0.41627  0.41627  0.00000  0.16747
      11     C     3.24156  3.24156  0.00000 -0.48313
      12     H     0.41948  0.41948  0.00000  0.16104
      13     H     0.41604  0.41604  0.00000  0.16793
      14     H     0.41899  0.41899  0.00000  0.16201
      15     H     0.41719  0.41719  0.00000  0.16562
      16     H     0.41916  0.41916  0.00000  0.16167

   Total alpha = 24.00000, Total beta = 24.00000, Total charge =  0.00000
