  ==> Input File <==

--------------------------------------------------------------------------
set {
	reference rhf
	basis cc-pvtz
}

set_num_threads( 4 )
memory 2 gb

molecule MOL {
0 1

H	 1.177717	 -1.067248	 0.715946
O	 1.324033	 -0.609620	 -0.092522
C	 0.705261	 0.638799	 -0.045630
C	 -0.793473	 0.591216	 0.050087
H	 0.988268	 1.155719	 -0.955027
H	 1.091517	 1.232273	 0.780986
C	 -1.534243	 -0.493009	 -0.013340
H	 -1.265708	 1.551104	 0.179924
H	 -1.101195	 -1.466332	 -0.144046
H	 -2.604242	 -0.437780	 0.050785

	symmetry c1
}
set optking {
	frozen_dihedral = ("
		3 4 7 9
	")
}

ee = optimize('scf')
oeprop('DIPOLE', 'QUADRUPOLE', 'MULLIKEN_CHARGES')
f=open( 'psi4out.xyz', 'w' )
f.write( "10  " )
f.write( str(ee) + "\n" )
f.write( MOL.save_string_xyz() )
f.close()
--------------------------------------------------------------------------

    Molecular point group: c1
  Charge       = 0
  Multiplicity = 1
  Basis Set: CC-PVTZ
  Basis Set:
  @DF-RHF Final Energy:  -191.99883379785604
    Total Energy =                       -191.9988337978560935
    Molecular point group: c1
  Basis Set: CC-PVTZ
  Basis Set:
  Basis Set: CC-PVTZ
  Basis Set:
  @DF-RHF Final Energy:  -191.99884539894731
    Total Energy =                       -191.9988453989473669
  Basis Set: CC-PVTZ
  Basis Set:
  Charge       = 0
  Multiplicity = 1
  Basis Set: CC-PVTZ
  Basis Set:

    Orbital Energies (a.u.)
    -----------------------

    Doubly Occupied:

       1A    -20.554513     2A    -11.278206     3A    -11.230373
       4A    -11.216650     5A     -1.374916     6A     -1.062282
       7A     -0.932300     8A     -0.771786     9A     -0.692445
      10A     -0.665444    11A     -0.620945    12A     -0.574286
      13A     -0.540688    14A     -0.496802    15A     -0.452490
      16A     -0.369101

  @DF-RHF Final Energy:  -191.99884785347297

   => Energetics <=

    Nuclear Repulsion Energy =            119.5401917677477996
    One-Electron Energy =                -497.4116240493232226
    Two-Electron Energy =                 185.8725844281023569
    DFT Exchange-Correlation Energy =       0.0000000000000000
    Empirical Dispersion Energy =           0.0000000000000000
    PCM Polarization Energy =               0.0000000000000000
    EFP Energy =                            0.0000000000000000
    Total Energy =                       -191.9988478534730802
    Molecular point group: c1
  Basis Set: CC-PVTZ
  Basis Set:

  -Total Gradient:
     Atom            X                  Y                   Z
    ------   -----------------  -----------------  -----------------
       1       -0.000002867220    -0.000004122623    -0.000002603935
       2       -0.000031670782     0.000003091511     0.000003190285
       3       -0.000018040337     0.000055989033    -0.000403773600
       4        0.000081586045    -0.000136989160     0.000928786472
       5        0.000000563102     0.000008112016    -0.000007544196
       6       -0.000011216583     0.000002370922    -0.000000840761
       7       -0.000061108046     0.000131398993    -0.001033127604
       8        0.000004216373     0.000006925052    -0.000014656708
       9        0.000042049946    -0.000065892587     0.000531351684
      10       -0.000003512499    -0.000000883156    -0.000000781636

  **** Optimization is complete! (in 3 steps) ****
    Final optimized geometry and variables:
    Molecular point group: c1

    Geometry (in Angstrom), charge = 0, multiplicity = 1:

    H            1.181451679413    -1.065969131241     0.736839320225
    O            1.324290282856    -0.611414726962    -0.073948789388
    C            0.705677009807     0.637233803831    -0.028993962668
    C           -0.793018267598     0.590069052746     0.068240895148
    H            0.986900618271     1.151880159122    -0.940205651487
    H            1.093652751240     1.232722726241     0.795371267381
    C           -1.534310491498    -0.493301757246    -0.001328014491
    H           -1.265220713239     1.550344442689     0.195203689290
    H           -1.101855121661    -1.465911294051    -0.138854568327
    H           -2.603647453319    -0.439096836517     0.073772833445

  Mulliken Charges: (a.u.)
   Center  Symbol    Alpha    Beta     Spin     Total
       1     H     0.39109  0.39109  0.00000  0.21782
       2     O     4.19928  4.19928  0.00000 -0.39855
       3     C     2.95042  2.95042  0.00000  0.09915
       4     C     3.08521  3.08521  0.00000 -0.17041
       5     H     0.45339  0.45339  0.00000  0.09322
       6     H     0.46837  0.46837  0.00000  0.06326
       7     C     3.17637  3.17637  0.00000 -0.35275
       8     H     0.42332  0.42332  0.00000  0.15337
       9     H     0.42449  0.42449  0.00000  0.15103
      10     H     0.42807  0.42807  0.00000  0.14387

   Total alpha = 16.00000, Total beta = 16.00000, Total charge =  0.00000
