                              Psi4 1.0.54 Driver

  ==> Input File <==

--------------------------------------------------------------------------
set {
	reference rhf
	basis cc-pvtz
}

set_num_threads( 4 )
memory 2 gb

molecule MOL {
0 1

H	 2.190573	 -0.629143	 -0.208718
O	 1.355408	 -0.529451	 0.208662
C	 0.700177	 0.619554	 -0.266242
C	 -0.713111	 0.588314	 0.266177
H	 0.678680	 0.627133	 -1.351786
H	 1.199747	 1.521489	 0.077736
O	 -1.421673	 -0.521378	 -0.196983
H	 -1.244794	 1.469161	 -0.069059
H	 -0.685100	 0.604721	 1.352683
H	 -1.587855	 -0.407877	 -1.116507

	symmetry c1
}
set optking {
	frozen_dihedral = ("
		10 7 4 3
	")
}

ee,wfn = optimize('scf', return_wfn=True)
oeprop( wfn, 'DIPOLE', 'QUADRUPOLE', 'MULLIKEN_CHARGES')
f=open( 'psi4out.xyz', 'w' )
f.write( "10  " )
f.write( str(ee) + "\n" )
f.write( MOL.save_string_xyz() )
f.close()
--------------------------------------------------------------------------

    Molecular point group: c1
  Charge       = 0
  Multiplicity = 1
  Basis Set: CC-PVTZ
  Basis Set:
  @DF-RHF Final Energy:  -229.02127759858723
    Total Energy =                       -229.0212775985872327
    Molecular point group: c1
  Basis Set: CC-PVTZ
  Basis Set:
  Basis Set: CC-PVTZ
  Basis Set:
  @DF-RHF Final Energy:  -229.02309293344825
    Total Energy =                       -229.0230929334483676
  Basis Set: CC-PVTZ
  Basis Set:
  Basis Set: CC-PVTZ
  Basis Set:
  @DF-RHF Final Energy:  -229.02334078157165
    Total Energy =                       -229.0233407815717328
  Basis Set: CC-PVTZ
  Basis Set:
  Basis Set: CC-PVTZ
  Basis Set:
  @DF-RHF Final Energy:  -229.02335645058943
    Total Energy =                       -229.0233564505893469
  Basis Set: CC-PVTZ
  Basis Set:
  Charge       = 0
  Multiplicity = 1
  Basis Set: CC-PVTZ
  Basis Set:

    Orbital Energies (a.u.)
    -----------------------

    Doubly Occupied:

       1A    -20.550203     2A    -20.546523     3A    -11.272924
       4A    -11.268596     5A     -1.378025     6A     -1.357865
       7A     -1.003449     8A     -0.845236     9A     -0.723419
      10A     -0.679541    11A     -0.657047    12A     -0.600373
      13A     -0.573631    14A     -0.539823    15A     -0.483509
      16A     -0.448119    17A     -0.439314

  @DF-RHF Final Energy:  -229.02335735794372

   => Energetics <=

    Nuclear Repulsion Energy =            133.3666546751277338
    One-Electron Energy =                -578.0448278853875763
    Two-Electron Energy =                 215.6548158523160907
    DFT Exchange-Correlation Energy =       0.0000000000000000
    Empirical Dispersion Energy =           0.0000000000000000
    PCM Polarization Energy =               0.0000000000000000
    EFP Energy =                            0.0000000000000000
    Total Energy =                       -229.0233573579437518
    Molecular point group: c1
  Basis Set: CC-PVTZ
  Basis Set:

  -Total Gradient:
     Atom            X                  Y                   Z
    ------   -----------------  -----------------  -----------------
       1        0.000003616043    -0.000012870117    -0.000018235137
       2        0.000007497775     0.000024345255     0.000049001332
       3        0.000006714182    -0.000162394095     0.000253160028
       4       -0.000192414015     0.000396782417    -0.000420867053
       5       -0.000009210965     0.000000624142     0.000043457840
       6        0.000003533162    -0.000047806795     0.000009309567
       7        0.000633100572    -0.000489295231    -0.000062868701
       8        0.000013114197    -0.000014694275     0.000004635192
       9        0.000030271758     0.000006766931     0.000007583219
      10       -0.000496222713     0.000298541769     0.000134823712

  **** Optimization is complete! (in 5 steps) ****
    Final optimized geometry and variables:
    Molecular point group: c1

    Geometry (in Angstrom), charge = 0, multiplicity = 1:

    H            2.263221485039    -0.616422332046     0.050803248457
    O            1.377944779936    -0.556539427243     0.358476946555
    C            0.745276748223     0.556448798929    -0.200528769347
    C           -0.707683444243     0.573204603279     0.220105339136
    H            0.809127782346     0.535588728321    -1.287899655467
    H            1.210860476740     1.479986993414     0.139051272412
    O           -1.457219247929    -0.482798391738    -0.304546155638
    H           -1.138251777881     1.533173352807    -0.056828271112
    H           -0.761861740395     0.482727630928     1.296194080508
    H           -1.572569920877    -0.370598489368    -1.230336325951

  Mulliken Charges: (a.u.)
   Center  Symbol    Alpha    Beta     Spin     Total
       1     H     0.39600  0.39600  0.00000  0.20799
       2     O     4.19091  4.19091  0.00000 -0.38181
       3     C     2.96309  2.96309  0.00000  0.07382
       4     C     2.96867  2.96867  0.00000  0.06266
       5     H     0.48258  0.48258  0.00000  0.03484
       6     H     0.47654  0.47654  0.00000  0.04691
       7     O     4.19635  4.19635  0.00000 -0.39270
       8     H     0.47344  0.47344  0.00000  0.05312
       9     H     0.45524  0.45524  0.00000  0.08952
      10     H     0.39718  0.39718  0.00000  0.20564

   Total alpha = 17.00000, Total beta = 17.00000, Total charge =  0.00000

*** Psi4 exiting successfully. Buy a developer a beer!
