                              Psi4 1.0.54 Driver

  ==> Input File <==

--------------------------------------------------------------------------
set {
	reference rhf
	basis cc-pvtz
}

set_num_threads( 4 )
memory 2 gb

molecule MOL {
0 1

O	 -2.422455	 0.574735	 -0.988416
C	 -1.922978	 0.063265	 -0.045005
C	 -2.657731	 -0.769216	 0.967697
O	 -0.637375	 0.157174	 0.243149
H	 -2.551718	 -0.325011	 1.949105
H	 -3.699598	 -0.829386	 0.698383
H	 -2.224523	 -1.760351	 1.007091
C	 0.162530	 -1.009518	 0.097799
C	 1.587210	 -0.664190	 0.477086
H	 0.096803	 -1.356267	 -0.924704
H	 -0.233803	 -1.785900	 0.736810
C	 2.256770	 0.342732	 -0.454344
H	 2.154716	 -1.590834	 0.479041
H	 1.598751	 -0.289614	 1.496104
C	 3.698146	 0.643205	 -0.057145
H	 2.235038	 -0.042575	 -1.470299
H	 1.683491	 1.262594	 -0.461300
H	 4.150202	 1.356548	 -0.736242
H	 4.305463	 -0.255904	 -0.069842
H	 3.749130	 1.061068	 0.942759

	symmetry c1
}
set optking {
	frozen_dihedral = ("
		1 2 4 8
	")
}

ee,wfn = optimize('scf', return_wfn=True)
oeprop( wfn, 'DIPOLE', 'QUADRUPOLE', 'MULLIKEN_CHARGES')
f=open( 'psi4out.xyz', 'w' )
f.write( "20  " )
f.write( str(ee) + "\n" )
f.write( MOL.save_string_xyz() )
f.close()
--------------------------------------------------------------------------

    Molecular point group: c1
  Charge       = 0
  Multiplicity = 1
  Basis Set: CC-PVTZ
  Basis Set:
  @DF-RHF Final Energy:  -384.06540604555249
    Total Energy =                       -384.0654060455522085
    Molecular point group: c1
  Basis Set: CC-PVTZ
  Basis Set:
  Basis Set: CC-PVTZ
  Basis Set:
  @DF-RHF Final Energy:  -383.23520007489645
    Total Energy =                       -383.2352000748962837
  Basis Set: CC-PVTZ
  Basis Set:
  Basis Set: CC-PVTZ
  Basis Set:
  @DF-RHF Final Energy:  -383.43922360168148
    Total Energy =                       -383.4392236016814195
  Basis Set: CC-PVTZ
  Basis Set:
  Basis Set: CC-PVTZ
  Basis Set:
  @DF-RHF Final Energy:  -383.60102987574334
    Total Energy =                       -383.6010298757436203
  Basis Set: CC-PVTZ
  Basis Set:
  @DF-RHF Final Energy:  -383.89858482904799
    Total Energy =                       -383.8985848290481044
  @DF-RHF Final Energy:  -384.03135802373566
    Total Energy =                       -384.0313580237356064
  @DF-RHF Final Energy:  -384.06274296839189
    Total Energy =                       -384.0627429683921719
  @DF-RHF Final Energy:  -384.06374263986436
    Total Energy =                       -384.0637426398645857
  @DF-RHF Final Energy:  -384.06811606678491
    Total Energy =                       -384.0681160667850236
  @DF-RHF Final Energy:  -384.06731325443616
    Total Energy =                       -384.0673132544358168
  Basis Set: CC-PVTZ
  Basis Set:
  @DF-RHF Final Energy:  -384.06830316630897
    Total Energy =                       -384.0683031663087377
  Basis Set: CC-PVTZ
  Basis Set:
  Basis Set: CC-PVTZ
  Basis Set:
  @DF-RHF Final Energy:  -384.06832058064361
    Total Energy =                       -384.0683205806437854
  Basis Set: CC-PVTZ
  Basis Set:
  Basis Set: CC-PVTZ
  Basis Set:
  @DF-RHF Final Energy:  -384.06832162614722
    Total Energy =                       -384.0683216261471671
  Basis Set: CC-PVTZ
  Basis Set:
  Charge       = 0
  Multiplicity = 1
  Basis Set: CC-PVTZ
  Basis Set:

    Orbital Energies (a.u.)
    -----------------------

    Doubly Occupied:

       1A    -20.577558     2A    -20.542818     3A    -11.369768
       4A    -11.292734     5A    -11.237091     6A    -11.226001
       7A    -11.215724     8A    -11.209470     9A     -1.460964
      10A     -1.369660    11A     -1.084507    12A     -1.020753
      13A     -0.992550    14A     -0.883930    15A     -0.809543
      16A     -0.779796    17A     -0.698800    18A     -0.686430
      19A     -0.654235    20A     -0.637010    21A     -0.616784
      22A     -0.591100    23A     -0.581637    24A     -0.565797
      25A     -0.542956    26A     -0.526083    27A     -0.501520
      28A     -0.484653    29A     -0.481398    30A     -0.473649
      31A     -0.449986    32A     -0.439291

  @DF-RHF Final Energy:  -384.06832178430869

   => Energetics <=

    Nuclear Repulsion Energy =            385.0990454009959763
    One-Electron Energy =               -1286.3263474611803758
    Two-Electron Energy =                 517.1589802758759333
    DFT Exchange-Correlation Energy =       0.0000000000000000
    Empirical Dispersion Energy =           0.0000000000000000
    PCM Polarization Energy =               0.0000000000000000
    EFP Energy =                            0.0000000000000000
    Total Energy =                       -384.0683217843085231
    Molecular point group: c1
  Basis Set: CC-PVTZ
  Basis Set:

  -Total Gradient:
     Atom            X                  Y                   Z
    ------   -----------------  -----------------  -----------------
       1       -0.000472342369    -0.001261720676    -0.000095279657
       2        0.000507531990     0.001741195258    -0.000366366218
       3       -0.000040749778    -0.000031273423    -0.000049875516
       4        0.000315088656    -0.000211983874     0.001519723582
       5        0.000011588478     0.000013438954     0.000005341161
       6        0.000005247529     0.000001767534     0.000010000802
       7        0.000017668416     0.000007916355     0.000006972759
       8       -0.000340572130    -0.000251635127    -0.001029770103
       9        0.000002688582     0.000006664639    -0.000016542540
      10       -0.000012571648    -0.000019813081    -0.000004133081
      11       -0.000001385434     0.000007847615     0.000004085678
      12        0.000002082790     0.000007340297     0.000017788391
      13       -0.000000812148    -0.000005402358     0.000006114757
      14        0.000007486045     0.000007393221     0.000004797978
      15       -0.000009541068    -0.000009331891    -0.000010113103
      16       -0.000004258398    -0.000006752353    -0.000006680794
      17       -0.000000911536     0.000003489406    -0.000000006694
      18        0.000001579991    -0.000000499295     0.000000372524
      19        0.000005742975    -0.000007010106     0.000000271437
      20        0.000006439050     0.000008368908     0.000003298636

  **** Optimization is complete! (in 14 steps) ****
    Final optimized geometry and variables:
    Molecular point group: c1

    Geometry (in Angstrom), charge = 0, multiplicity = 1:

    O           -2.239350798090     1.286451174045    -0.094539112327
    C           -1.461827109894     0.986953699331     0.735428969540
    C           -1.734701743013     1.081658476678     2.213122278593
    O           -0.223498307163     0.574993421255     0.408760701077
    H           -0.975291107400     1.695141669597     2.681277687503
    H           -2.711577728343     1.507374911306     2.374527203446
    H           -1.691044414493     0.100208999117     2.668915898431
    C            0.119338108177    -0.785427867590     0.611188848628
    C            1.444680182990    -1.057494947092    -0.069934987475
    H           -0.660032986583    -1.415581489560     0.194539776590
    H            0.197111413921    -0.991842264135     1.672844416838
    C            1.399288994895    -0.926933813962    -1.589543069539
    H            1.752437415322    -2.063263644759     0.203871375572
    H            2.187139857305    -0.379517214567     0.339345323800
    C            2.750583745276    -1.199807378902    -2.241123333792
    H            0.661126081440    -1.619694573629    -1.984641765671
    H            1.059742115220     0.066968091925    -1.852679730587
    H            2.689069600635    -1.105583954274    -3.318797307232
    H            3.102801122263    -2.201446077024    -2.016386501236
    H            3.501920983257    -0.499742521514    -1.891163982803

  Mulliken Charges: (a.u.)
   Center  Symbol    Alpha    Beta     Spin     Total
       1     O     4.16861  4.16861  0.00000 -0.33723
       2     C     2.81042  2.81042  0.00000  0.37915
       3     C     3.15196  3.15196  0.00000 -0.30393
       4     O     4.16456  4.16456  0.00000 -0.32911
       5     H     0.44251  0.44251  0.00000  0.11497
       6     H     0.43326  0.43326  0.00000  0.13348
       7     H     0.44991  0.44991  0.00000  0.10017
       8     C     2.99318  2.99318  0.00000  0.01364
       9     C     3.08469  3.08469  0.00000 -0.16938
      10     H     0.45706  0.45706  0.00000  0.08588
      11     H     0.45091  0.45091  0.00000  0.09818
      12     C     3.08501  3.08501  0.00000 -0.17002
      13     H     0.45314  0.45314  0.00000  0.09372
      14     H     0.45041  0.45041  0.00000  0.09917
      15     C     3.15078  3.15078  0.00000 -0.30156
      16     H     0.45555  0.45555  0.00000  0.08891
      17     H     0.44017  0.44017  0.00000  0.11966
      18     H     0.44643  0.44643  0.00000  0.10714
      19     H     0.45707  0.45707  0.00000  0.08586
      20     H     0.45436  0.45436  0.00000  0.09128

   Total alpha = 32.00000, Total beta = 32.00000, Total charge = -0.00000

*** Psi4 exiting successfully. Buy a developer a beer!
