  ==> Input File <==

--------------------------------------------------------------------------
set {
	reference rhf
	basis 6-31G*
}

set_num_threads( 1 )
memory 2 gb

molecule MOL {
0 1

H	 -3.892951	 0.981613	 -0.358725
C	 -3.196921	 0.361773	 0.172313
C	 -2.076860	 -0.007332	 -0.404944
H	 -3.439953	 0.057760	 1.173024
O	 -1.861770	 -1.287494	 -0.807166
H	 -1.275239	 0.679853	 -0.610799
C	 -0.592965	 -1.633858	 -1.245361
C	 0.302341	 -2.044463	 -0.098136
H	 -0.106780	 -0.825854	 -1.780571
H	 -0.692968	 -2.481535	 -1.907122
F	 1.488249	 -2.400441	 -0.570055
F	 0.491467	 -1.052380	 0.756167
F	 -0.190214	 -3.064607	 0.573493

	symmetry c1
}
set optking {
	frozen_dihedral = ("
		11 8 7 9,
		3 5 7 9,
		6 3 5 7
	")
}

ee = energy('scf')
oeprop('DIPOLE', 'QUADRUPOLE', 'MULLIKEN_CHARGES')
f=open( 'psi4out.xyz', 'w' )
f.write( "13  " )
f.write( str(ee) + "\n" )
f.write( MOL.save_string_xyz() )
f.close()
--------------------------------------------------------------------------

    Molecular point group: c1

    Geometry (in Angstrom), charge = 0, multiplicity = 1:

       Center              X                  Y                   Z               Mass
    ------------   -----------------  -----------------  -----------------  -----------------
           H         -3.321373052919     2.456677185223    -0.192856662406     1.007825032070
           C         -2.625343052919     1.836837185223     0.338181337594    12.000000000000
           C         -1.505282052919     1.467732185223    -0.239075662406    12.000000000000
           H         -2.868375052919     1.532824185223     1.338892337594     1.007825032070
           O         -1.290192052919     0.187570185223    -0.641297662406    15.994914619560
           H         -0.703661052919     2.154917185223    -0.444930662406     1.007825032070
           C         -0.021387052919    -0.158793814777    -1.079492662406    12.000000000000
           C          0.873918947081    -0.569398814777     0.067732337594    12.000000000000
           H          0.464797947081     0.649210185223    -1.614702662406     1.007825032070
           H         -0.121390052919    -1.006470814777    -1.741253662406     1.007825032070
           F          2.059826947081    -0.925376814777    -0.404186662406    18.998403224000
           F          1.063044947081     0.422684185223     0.922035337594    18.998403224000
           F          0.381363947081    -1.589542814777     0.739361337594    18.998403224000

  Charge       = 0
  Multiplicity = 1
  Basis Set: 6-31G*
  Basis Set:

    Orbital Energies (a.u.)
    -----------------------

    Doubly Occupied:

       1A    -26.351807     2A    -26.349270     3A    -26.346101
       4A    -20.628945     5A    -11.509667     6A    -11.327771
       7A    -11.323094     8A    -11.190620     9A     -1.747823
      10A     -1.646262    11A     -1.643918    12A     -1.453663
      13A     -1.090315    14A     -1.018844    15A     -0.931081
      16A     -0.842737    17A     -0.837190    18A     -0.826663
      19A     -0.798452    20A     -0.727769    21A     -0.716626
      22A     -0.700796    23A     -0.678953    24A     -0.665420
      25A     -0.659646    26A     -0.649016    27A     -0.644126
      28A     -0.585424    29A     -0.580294    30A     -0.533087
      31A     -0.508631    32A     -0.288438

  @DF-RHF Final Energy:  -527.43365090298448

   => Energetics <=

    Nuclear Repulsion Energy =            413.5063831876223048
    One-Electron Energy =               -1550.2753401787103940
    Two-Electron Energy =                 609.3353060881024703
    DFT Exchange-Correlation Energy =       0.0000000000000000
    Empirical Dispersion Energy =           0.0000000000000000
    PCM Polarization Energy =               0.0000000000000000
    EFP Energy =                            0.0000000000000000
    Total Energy =                       -527.4336509029856188

  Mulliken Charges: (a.u.)
   Center  Symbol    Alpha    Beta     Spin     Total
       1     H     0.40158  0.40158  0.00000  0.19684
       2     C     3.28805  3.28805  0.00000 -0.57611
       3     C     2.87730  2.87730  0.00000  0.24540
       4     H     0.40222  0.40222  0.00000  0.19557
       5     O     4.27302  4.27302  0.00000 -0.54604
       6     H     0.40585  0.40585  0.00000  0.18830
       7     C     3.07040  3.07040  0.00000 -0.14079
       8     C     2.45613  2.45613  0.00000  1.08775
       9     H     0.40296  0.40296  0.00000  0.19408
      10     H     0.38699  0.38699  0.00000  0.22602
      11     F     4.68201  4.68201  0.00000 -0.36401
      12     F     4.67991  4.67991  0.00000 -0.35983
      13     F     4.67359  4.67359  0.00000 -0.34717

   Total alpha = 32.00000, Total beta = 32.00000, Total charge = -0.00000
