  ==> Input File <==

--------------------------------------------------------------------------
set {
	reference rhf
	basis 6-31G*
}

set_num_threads( 4 )
memory 2 gb

molecule MOL {
0 1

O	 -2.821601	 1.309235	 -0.001213
C	 -2.668563	 0.129746	 -0.000350
C	 -3.801572	 -0.864014	 -0.000442
O	 -1.481751	 -0.454642	 0.000584
H	 -4.417280	 -0.689587	 -0.874708
H	 -3.443784	 -1.883046	 -0.000565
H	 -4.417179	 -0.689832	 0.873954
C	 -0.334255	 0.388708	 0.000906
C	 0.891947	 -0.504646	 0.000751
H	 -0.365390	 1.025305	 -0.873475
H	 -0.365484	 1.024911	 0.875569
C	 1.524329	 -0.614401	 -1.387959
H	 0.608395	 -1.490186	 0.359568
H	 1.614832	 -0.108881	 0.708754
C	 2.762855	 -1.512130	 -1.409507
H	 0.790015	 -1.000910	 -2.092572
H	 1.795594	 0.378068	 -1.743631
C	 3.393655	 -1.622791	 -2.796846
H	 2.493492	 -2.504419	 -1.054710
H	 3.498635	 -1.126035	 -0.707632
H	 2.692083	 -2.038031	 -3.514750
H	 4.268460	 -2.265184	 -2.780014
H	 3.705082	 -0.649370	 -3.164915

	symmetry c1
}
set optking {
	frozen_dihedral = ("
		13 9 8 10
	")
}

ee = optimize('scf')
oeprop('DIPOLE', 'QUADRUPOLE', 'MULLIKEN_CHARGES')
f=open( 'psi4out.xyz', 'w' )
f.write( "23  " )
f.write( str(ee) + "\n" )
f.write( MOL.save_string_xyz() )
f.close()
--------------------------------------------------------------------------

    Molecular point group: c1
  Charge       = 0
  Multiplicity = 1
  Basis Set: 6-31G*
  Basis Set:
  @DF-RHF Final Energy:  -422.97482490083706
    Total Energy =                       -422.9748249008373477
    Molecular point group: c1
  Basis Set: 6-31G*
  Basis Set:
  Basis Set: 6-31G*
  Basis Set:
  @DF-RHF Final Energy:  -422.97518991948442
    Total Energy =                       -422.9751899194842508
  Basis Set: 6-31G*
  Basis Set:
  Basis Set: 6-31G*
  Basis Set:
  @DF-RHF Final Energy:  -422.97526127507348
    Total Energy =                       -422.9752612750737626
  Basis Set: 6-31G*
  Basis Set:
  Basis Set: 6-31G*
  Basis Set:
  @DF-RHF Final Energy:  -422.97532573697026
    Total Energy =                       -422.9753257369707171
  Basis Set: 6-31G*
  Basis Set:
  Basis Set: 6-31G*
  Basis Set:
  @DF-RHF Final Energy:  -422.97533834835747
    Total Energy =                       -422.9753383483567859
  Basis Set: 6-31G*
  Basis Set:
  Charge       = 0
  Multiplicity = 1
  Basis Set: 6-31G*
  Basis Set:

    Orbital Energies (a.u.)
    -----------------------

    Doubly Occupied:

       1A    -20.602450     2A    -20.540144     3A    -11.373582
       4A    -11.282295     5A    -11.232326     6A    -11.224534
       7A    -11.221034     8A    -11.220045     9A    -11.212151
      10A     -1.467019    11A     -1.359881    12A     -1.091770
      13A     -1.040829    14A     -1.002238    15A     -0.930430
      16A     -0.842461    17A     -0.799252    18A     -0.779848
      19A     -0.687632    20A     -0.681123    21A     -0.665944
      22A     -0.644612    23A     -0.607932    24A     -0.582866
      25A     -0.578395    26A     -0.574781    27A     -0.558310
      28A     -0.533663    29A     -0.526659    30A     -0.503386
      31A     -0.499715    32A     -0.473171    33A     -0.470891
      34A     -0.463450    35A     -0.445063    36A     -0.435630

  @DF-RHF Final Energy:  -422.97533843729059

   => Energetics <=

    Nuclear Repulsion Energy =            454.3474697639185251
    One-Electron Energy =               -1476.3345878729924152
    Two-Electron Energy =                 599.0117796717834153
    DFT Exchange-Correlation Energy =       0.0000000000000000
    Empirical Dispersion Energy =           0.0000000000000000
    PCM Polarization Energy =               0.0000000000000000
    EFP Energy =                            0.0000000000000000
    Total Energy =                       -422.9753384372904748
    Molecular point group: c1
  Basis Set: 6-31G*
  Basis Set:

  -Total Gradient:
     Atom            X                  Y                   Z
    ------   -----------------  -----------------  -----------------
       1       -0.000017088781    -0.000012192716     0.000051236092
       2       -0.000017509828     0.000028359521    -0.000053496754
       3        0.000008465680     0.000003054898     0.000018195595
       4        0.000033184221    -0.000004447908     0.000077055764
       5       -0.000022270619    -0.000018808582    -0.000017604573
       6        0.000001983829     0.000000268008    -0.000004908188
       7        0.000025082501     0.000020576451    -0.000015741205
       8        0.002550735760     0.003757266018     0.001802724738
       9        0.000608248418     0.000661691664     0.004329550157
      10       -0.002219477905    -0.003155858386    -0.002171373828
      11       -0.000052001639    -0.000019417545     0.000035305877
      12        0.000034560093    -0.000080850134     0.000010365450
      13       -0.000938828007    -0.001207741270    -0.004084597434
      14        0.000027549685     0.000017930867    -0.000009287551
      15       -0.000001351017    -0.000008245598    -0.000010460568
      16       -0.000008300260     0.000008067650    -0.000003263495
      17       -0.000006088117     0.000000019106     0.000034865555
      18       -0.000006204608     0.000003772887     0.000002277314
      19       -0.000005454646     0.000000927414     0.000010796529
      20        0.000010558879     0.000004008405    -0.000003808297
      21       -0.000001918305    -0.000002396013    -0.000001602707
      22       -0.000005381002     0.000001240427     0.000007148892
      23        0.000001505678     0.000002774834    -0.000003377363

  **** Optimization is complete! (in 6 steps) ****
    Final optimized geometry and variables:
    Molecular point group: c1

    Geometry (in Angstrom), charge = 0, multiplicity = 1:

    O           -2.536915006655     1.704279878339     0.623386069648
    C           -2.359400058018     0.527954170639     0.610904244418
    C           -3.472547885717    -0.487333789225     0.567430353880
    O           -1.162284651559    -0.032893539472     0.635616159222
    H           -4.070512867298    -0.310886179818    -0.318700487179
    H           -3.095189003556    -1.499291929158     0.560358507384
    H           -4.112185572175    -0.338947041100     1.429218341946
    C           -0.028400301824     0.837489850281     0.674281828893
    C            1.223906882714    -0.038100610336     0.648840598458
    H           -0.087959684199     1.480079900545    -0.193126953516
    H           -0.093654061836     1.447275573447     1.563743512834
    C            1.828070280741    -0.179596061278    -0.751616155044
    H            0.950550067188    -1.025084031386     1.006213278147
    H            1.967442723571     0.366660846107     1.329119384362
    C            3.039878495434    -1.111068536528    -0.790586109476
    H            1.063711592461    -0.551550105910    -1.431347502008
    H            2.117176239787     0.802363255341    -1.122239332089
    C            3.642711674775    -1.247136556930    -2.188230761287
    H            2.749673667830    -2.093773070249    -0.425199630263
    H            3.799584911822    -0.742679239856    -0.104185042751
    H            2.916565906456    -1.645653789055    -2.891009433225
    H            4.498936785079    -1.914321150321    -2.183464536511
    H            3.975179348609    -0.284994203041    -2.567452424454

  Mulliken Charges: (a.u.)
   Center  Symbol    Alpha    Beta     Spin     Total
       1     O     4.28461  4.28461  0.00000 -0.56923
       2     C     2.61510  2.61510  0.00000  0.76980
       3     C     3.28747  3.28747  0.00000 -0.57494
       4     O     4.31218  4.31218  0.00000 -0.62436
       5     H     0.39763  0.39763  0.00000  0.20474
       6     H     0.40036  0.40036  0.00000  0.19927
       7     H     0.39750  0.39750  0.00000  0.20500
       8     C     3.00441  3.00441  0.00000 -0.00883
       9     C     3.16837  3.16837  0.00000 -0.33675
      10     H     0.40745  0.40745  0.00000  0.18510
      11     H     0.40719  0.40719  0.00000  0.18563
      12     C     3.15701  3.15701  0.00000 -0.31402
      13     H     0.40678  0.40678  0.00000  0.18645
      14     H     0.41647  0.41647  0.00000  0.16707
      15     C     3.15267  3.15267  0.00000 -0.30533
      16     H     0.41841  0.41841  0.00000  0.16318
      17     H     0.42231  0.42231  0.00000  0.15537
      18     C     3.23952  3.23952  0.00000 -0.47904
      19     H     0.42159  0.42159  0.00000  0.15681
      20     H     0.42256  0.42256  0.00000  0.15488
      21     H     0.42090  0.42090  0.00000  0.15820
      22     H     0.41840  0.41840  0.00000  0.16320
      23     H     0.42110  0.42110  0.00000  0.15780

   Total alpha = 36.00000, Total beta = 36.00000, Total charge =  0.00000
