  ==> Input File <==

--------------------------------------------------------------------------
set {
	reference rhf
	basis 6-31G*
}

set_num_threads( 1 )
memory 2 gb

molecule MOL {
0 1

H	 2.861780	 0.246187	 -0.074175
C	 1.951159	 -0.223429	 0.317018
C	 0.692068	 0.589600	 0.160137
O	 2.003183	 -1.298622	 0.820390
C	 -0.558097	 -0.297372	 0.091132
H	 0.791645	 1.202255	 -0.728243
H	 0.616171	 1.253469	 1.020572
C	 -1.850991	 0.512573	 -0.019058
H	 -0.476753	 -0.965681	 -0.762987
H	 -0.604799	 -0.930658	 0.975228
C	 -3.096943	 -0.368295	 -0.099594
H	 -1.800724	 1.150330	 -0.898172
H	 -1.931651	 1.177355	 0.838044
H	 -3.060452	 -1.020287	 -0.967456
H	 -3.996858	 0.233488	 -0.175704
H	 -3.191959	 -0.995686	 0.782074

	symmetry c1
}
set optking {
	frozen_dihedral = ("
		9 5 8 12,
		6 3 5 9
	")
}

ee = energy('scf')
oeprop('DIPOLE', 'QUADRUPOLE', 'MULLIKEN_CHARGES')
f=open( 'psi4out.xyz', 'w' )
f.write( "16  " )
f.write( str(ee) + "\n" )
f.write( MOL.save_string_xyz() )
f.close()
--------------------------------------------------------------------------

    Molecular point group: c1

    Geometry (in Angstrom), charge = 0, multiplicity = 1:

       Center              X                  Y                   Z               Mass
    ------------   -----------------  -----------------  -----------------  -----------------
           H          3.015032958956     0.441986494425    -0.289421422729     1.007825032070
           C          2.104411958956    -0.027629505575     0.101771577271    12.000000000000
           C          0.845320958956     0.785399494425    -0.055109422729    12.000000000000
           O          2.156435958956    -1.102822505575     0.605143577271    15.994914619560
           C         -0.404844041044    -0.101572505575    -0.124114422729    12.000000000000
           H          0.944897958956     1.398054494425    -0.943489422729     1.007825032070
           H          0.769423958956     1.449268494425     0.805325577271     1.007825032070
           C         -1.697738041044     0.708372494425    -0.234304422729    12.000000000000
           H         -0.323500041044    -0.769881505575    -0.978233422729     1.007825032070
           H         -0.451546041044    -0.734858505575     0.759981577271     1.007825032070
           C         -2.943690041044    -0.172495505575    -0.314840422729    12.000000000000
           H         -1.647471041044     1.346129494425    -1.113418422729     1.007825032070
           H         -1.778398041044     1.373154494425     0.622797577271     1.007825032070
           H         -2.907199041044    -0.824487505575    -1.182702422729     1.007825032070
           H         -3.843605041044     0.429287494425    -0.390950422729     1.007825032070
           H         -3.038706041044    -0.799886505575     0.566827577271     1.007825032070

  Charge       = 0
  Multiplicity = 1
  Basis Set: 6-31G*
  Basis Set:

    Orbital Energies (a.u.)
    -----------------------

    Doubly Occupied:

       1A    -20.563783     2A    -11.328124     3A    -11.236736
       4A    -11.223633     5A    -11.221959     6A    -11.212506
       7A     -1.404213     8A     -1.088316     9A     -1.015125
      10A     -0.907144    11A     -0.812821    12A     -0.772926
      13A     -0.677678    14A     -0.653134    15A     -0.628997
      16A     -0.599212    17A     -0.582788    18A     -0.537871
      19A     -0.527068    20A     -0.500753    21A     -0.480647
      22A     -0.477283    23A     -0.471671    24A     -0.410116

  @DF-RHF Final Energy:  -270.01981726665730

   => Energetics <=

    Nuclear Repulsion Energy =            231.9475699181878667
    One-Electron Energy =                -825.2658252598454283
    Two-Electron Energy =                 323.2984380750001492
    DFT Exchange-Correlation Energy =       0.0000000000000000
    Empirical Dispersion Energy =           0.0000000000000000
    PCM Polarization Energy =               0.0000000000000000
    EFP Energy =                            0.0000000000000000
    Total Energy =                       -270.0198172666573555

  Mulliken Charges: (a.u.)
   Center  Symbol    Alpha    Beta     Spin     Total
       1     H     0.42729  0.42729  0.00000  0.14541
       2     C     2.83814  2.83814  0.00000  0.32372
       3     C     3.21080  3.21080  0.00000 -0.42159
       4     O     4.23701  4.23701  0.00000 -0.47403
       5     C     3.15203  3.15203  0.00000 -0.30406
       6     H     0.41181  0.41181  0.00000  0.17638
       7     H     0.40245  0.40245  0.00000  0.19510
       8     C     3.15285  3.15285  0.00000 -0.30570
       9     H     0.41739  0.41739  0.00000  0.16522
      10     H     0.40596  0.40596  0.00000  0.18809
      11     C     3.23970  3.23970  0.00000 -0.47940
      12     H     0.42370  0.42370  0.00000  0.15260
      13     H     0.42284  0.42284  0.00000  0.15432
      14     H     0.42030  0.42030  0.00000  0.15939
      15     H     0.41844  0.41844  0.00000  0.16312
      16     H     0.41929  0.41929  0.00000  0.16142

   Total alpha = 24.00000, Total beta = 24.00000, Total charge = -0.00000
