  ==> Input File <==

--------------------------------------------------------------------------
set {
	reference rhf
	basis cc-pvtz
}

set_num_threads( 4 )
memory 2 gb

molecule MOL {
0 1

H	 2.955835	 1.524441	 1.419624
N	 2.127094	 0.970395	 1.376739
C	 1.860978	 0.530248	 0.016256
H	 1.378127	 1.533621	 1.721955
C	 0.644130	 -0.381765	 -0.031064
H	 2.731268	 -0.016244	 -0.331378
H	 1.714882	 1.359670	 -0.677047
C	 -0.678115	 0.376691	 0.025731
H	 0.693998	 -0.977147	 -0.936845
H	 0.693309	 -1.082142	 0.800523
C	 -1.900706	 -0.535531	 -0.022488
H	 -0.725296	 1.079516	 -0.802982
H	 -0.715474	 0.974884	 0.933278
C	 -3.220513	 0.226854	 0.028039
H	 -1.865036	 -1.134397	 -0.928236
H	 -1.857948	 -1.236381	 0.806820
H	 -3.309098	 0.911849	 -0.808725
H	 -4.066838	 -0.449485	 -0.008086
H	 -3.301685	 0.809374	 0.939860

	symmetry c1
}
set optking {
	frozen_dihedral = ("
		6 3 5 9
	")
}

ee = optimize('scf')
oeprop('DIPOLE', 'QUADRUPOLE', 'MULLIKEN_CHARGES')
f=open( 'psi4out.xyz', 'w' )
f.write( "19  " )
f.write( str(ee) + "\n" )
f.write( MOL.save_string_xyz() )
f.close()
--------------------------------------------------------------------------

    Molecular point group: c1
  Charge       = 0
  Multiplicity = 1
  Basis Set: CC-PVTZ
  Basis Set:
  @DF-RHF Final Energy:  -251.44611630575423
    Total Energy =                       -251.4461163057543445
    Molecular point group: c1
  Basis Set: CC-PVTZ
  Basis Set:
  Basis Set: CC-PVTZ
  Basis Set:
  @DF-RHF Final Energy:  -251.44633688458762
    Total Energy =                       -251.4463368845878222
  Basis Set: CC-PVTZ
  Basis Set:
  Basis Set: CC-PVTZ
  Basis Set:
  @DF-RHF Final Energy:  -251.44638027895255
    Total Energy =                       -251.4463802789525175
  Basis Set: CC-PVTZ
  Basis Set:
  Basis Set: CC-PVTZ
  Basis Set:
  @DF-RHF Final Energy:  -251.44638268370807
    Total Energy =                       -251.4463826837080660
  Basis Set: CC-PVTZ
  Basis Set:
  Charge       = 0
  Multiplicity = 1
  Basis Set: CC-PVTZ
  Basis Set:

    Orbital Energies (a.u.)
    -----------------------

    Doubly Occupied:

       1A    -15.526589     2A    -11.238152     3A    -11.212131
       4A    -11.211127     5A    -11.207101     6A    -11.205886
       7A     -1.178237     8A     -1.073245     9A     -0.998714
      10A     -0.906458    11A     -0.814560    12A     -0.783631
      13A     -0.666686    14A     -0.648757    15A     -0.614744
      16A     -0.588649    17A     -0.560242    18A     -0.550375
      19A     -0.533851    20A     -0.501332    21A     -0.486917
      22A     -0.464350    23A     -0.462012    24A     -0.445402
      25A     -0.383454

  @DF-RHF Final Energy:  -251.44638335135812

   => Energetics <=

    Nuclear Repulsion Energy =            248.8363019111257586
    One-Electron Energy =                -832.0401658898716732
    Two-Electron Energy =                 331.7574806273877357
    DFT Exchange-Correlation Energy =       0.0000000000000000
    Empirical Dispersion Energy =           0.0000000000000000
    PCM Polarization Energy =               0.0000000000000000
    EFP Energy =                            0.0000000000000000
    Total Energy =                       -251.4463833513581221
    Molecular point group: c1
  Basis Set: CC-PVTZ
  Basis Set:

  -Total Gradient:
     Atom            X                  Y                   Z
    ------   -----------------  -----------------  -----------------
       1        0.000049300537     0.000040909012     0.000052579916
       2        0.000038251923    -0.000054412605    -0.000081350752
       3        0.000878681124    -0.001612924649     0.003735373781
       4       -0.000053082796     0.000024282521    -0.000004102416
       5       -0.001908272803     0.002849140414    -0.002429193022
       6       -0.000495095834     0.000860722997    -0.002730952535
       7        0.000002792021     0.000045583473    -0.000014829932
       8        0.000100094445    -0.000036904091     0.000010237624
       9        0.001427574806    -0.002098572972     0.001411511919
      10       -0.000008576670    -0.000012717272     0.000031463833
      11        0.000002074872    -0.000020009802     0.000013584701
      12        0.000003170685     0.000005529486     0.000012856183
      13       -0.000002349526    -0.000000872461     0.000000772971
      14       -0.000030181137    -0.000007130296    -0.000020078984
      15        0.000002077389     0.000007661944     0.000013247026
      16        0.000009709218     0.000008225513     0.000003014133
      17       -0.000001476246     0.000002534554     0.000003857574
      18       -0.000017846054     0.000006135887    -0.000004707751
      19        0.000003154046    -0.000007181656    -0.000003284269

  **** Optimization is complete! (in 5 steps) ****
    Final optimized geometry and variables:
    Molecular point group: c1

    Geometry (in Angstrom), charge = 0, multiplicity = 1:

    H            3.184594798629     1.262322687526     1.168947862974
    N            2.321990865796     0.761865301129     1.132443369108
    C            2.049985172486     0.297139005606    -0.219426539034
    H            1.611240261748     1.386855583059     1.449060867634
    C            0.814108704982    -0.595017266729    -0.279586766363
    H            2.908750660798    -0.267466578020    -0.562968188376
    H            1.929340359350     1.117356437020    -0.930054321179
    C           -0.512537817125     0.156875087721    -0.218896523726
    H            0.857564364358    -1.190076514697    -1.187723800443
    H            0.870446969013    -1.299648063438     0.544602378451
    C           -1.728316013973    -0.763707115380    -0.280820462944
    H           -0.560536311691     0.869111802336    -1.039613711845
    H           -0.563700145314     0.741344710828     0.696641448064
    C           -3.054522937736    -0.012766933888    -0.226166417175
    H           -1.684934468638    -1.351761465305    -1.193522026446
    H           -1.681528204283    -1.473141953540     0.540504300528
    H           -3.145674471285     0.682091110944    -1.054543190508
    H           -3.895133497426    -0.695501246237    -0.274061516431
    H           -3.144115855416     0.557134249871     0.692800340304

  Mulliken Charges: (a.u.)
   Center  Symbol    Alpha    Beta     Spin     Total
       1     H     0.42933  0.42933  0.00000  0.14134
       2     N     3.68778  3.68778  0.00000 -0.37556
       3     C     3.03734  3.03734  0.00000 -0.07468
       4     H     0.43084  0.43084  0.00000  0.13832
       5     C     3.09011  3.09011  0.00000 -0.18022
       6     H     0.45168  0.45168  0.00000  0.09664
       7     H     0.46694  0.46694  0.00000  0.06613
       8     C     3.08710  3.08710  0.00000 -0.17420
       9     H     0.45299  0.45299  0.00000  0.09403
      10     H     0.45068  0.45068  0.00000  0.09864
      11     C     3.08392  3.08392  0.00000 -0.16785
      12     H     0.45586  0.45586  0.00000  0.08827
      13     H     0.45847  0.45847  0.00000  0.08305
      14     C     3.14989  3.14989  0.00000 -0.29978
      15     H     0.45463  0.45463  0.00000  0.09074
      16     H     0.45292  0.45292  0.00000  0.09417
      17     H     0.45563  0.45563  0.00000  0.08874
      18     H     0.44837  0.44837  0.00000  0.10325
      19     H     0.45552  0.45552  0.00000  0.08896

   Total alpha = 25.00000, Total beta = 25.00000, Total charge = -0.00000
