  ==> Input File <==

--------------------------------------------------------------------------
set {
	reference rhf
	basis cc-pvtz
}

set_num_threads( 4 )
memory 2 gb

molecule MOL {
0 1

H	 1.721971	 -1.628841	 1.019849
C	 0.856761	 -1.022167	 1.227673
O	 0.462329	 -0.453336	 -0.000137
H	 1.123582	 -0.255907	 1.944521
H	 0.073666	 -1.647871	 1.636934
C	 -0.590565	 0.341382	 0.000062
O	 -1.693898	 -0.053880	 0.000252
H	 -0.340426	 1.403822	 0.000200

	symmetry c1
}
set optking {
	frozen_dihedral = ("
		2 3 6 7
	")
}

ee = optimize('scf')
oeprop('DIPOLE', 'QUADRUPOLE', 'MULLIKEN_CHARGES')
f=open( 'psi4out.xyz', 'w' )
f.write( "8  " )
f.write( str(ee) + "\n" )
f.write( MOL.save_string_xyz() )
f.close()
--------------------------------------------------------------------------

    Molecular point group: c1
  Charge       = 0
  Multiplicity = 1
  Basis Set: CC-PVTZ
  Basis Set:
  @DF-RHF Final Energy:  -227.85941660343764
    Total Energy =                       -227.8594166034378077
    Molecular point group: c1
  Basis Set: CC-PVTZ
  Basis Set:
  Basis Set: CC-PVTZ
  Basis Set:
  @DF-RHF Final Energy:  -227.85687237462542
    Total Energy =                       -227.8568723746255955
  Basis Set: CC-PVTZ
  Basis Set:
  Basis Set: CC-PVTZ
  Basis Set:
  @DF-RHF Final Energy:  -227.85982588443596
    Total Energy =                       -227.8598258844360203
  Basis Set: CC-PVTZ
  Basis Set:
  Basis Set: CC-PVTZ
  Basis Set:
  @DF-RHF Final Energy:  -227.86005337173975
    Total Energy =                       -227.8600533717397809
  Basis Set: CC-PVTZ
  Basis Set:
  Basis Set: CC-PVTZ
  Basis Set:
  @DF-RHF Final Energy:  -227.86005833716479
    Total Energy =                       -227.8600583371647303
  Basis Set: CC-PVTZ
  Basis Set:
  Charge       = 0
  Multiplicity = 1
  Basis Set: CC-PVTZ
  Basis Set:

    Orbital Energies (a.u.)
    -----------------------

    Doubly Occupied:

       1A    -20.589840     2A    -20.562628     3A    -11.376132
       4A    -11.295482     5A     -1.472932     6A     -1.383795
       7A     -0.987639     8A     -0.831889     9A     -0.741148
      10A     -0.690218    11A     -0.668259    12A     -0.627321
      13A     -0.563339    14A     -0.516069    15A     -0.475322
      16A     -0.460023

  @DF-RHF Final Energy:  -227.86005881575915

   => Energetics <=

    Nuclear Repulsion Energy =            122.2100109561791186
    One-Electron Energy =                -553.6560687629503263
    Two-Electron Energy =                 203.5859989910120191
    DFT Exchange-Correlation Energy =       0.0000000000000000
    Empirical Dispersion Energy =           0.0000000000000000
    PCM Polarization Energy =               0.0000000000000000
    EFP Energy =                            0.0000000000000000
    Total Energy =                       -227.8600588157591744
    Molecular point group: c1
  Basis Set: CC-PVTZ
  Basis Set:

  -Total Gradient:
     Atom            X                  Y                   Z
    ------   -----------------  -----------------  -----------------
       1       -0.000013296795     0.000009657973    -0.000012373693
       2        0.001704027236     0.002361124055     0.000617780626
       3       -0.002535813532    -0.003407410471    -0.002810665179
       4        0.000007108371    -0.000001915169    -0.000008147128
       5        0.000010423636    -0.000015240051     0.000011879991
       6        0.000795697329     0.000947876364     0.006102295196
       7        0.000036507872     0.000121079400    -0.003900582604
       8       -0.000004654120    -0.000015172102    -0.000000187208

  **** Optimization is complete! (in 6 steps) ****
    Final optimized geometry and variables:
    Molecular point group: c1

    Geometry (in Angstrom), charge = 0, multiplicity = 1:

    H            1.954152787032    -1.336458842757     0.699755191309
    C            1.093532539962    -0.721892550912     0.904856832640
    O            0.712353682537    -0.137379143372    -0.325537375020
    H            1.362831083480     0.042252779474     1.625080849882
    H            0.293771062214    -1.332837668324     1.300475814853
    C           -0.371280705698     0.646332527336    -0.310602286350
    O           -1.474045626108     0.252136325791    -0.327333066361
    H           -0.121879899086     1.705444225451    -0.339471252112

  Mulliken Charges: (a.u.)
   Center  Symbol    Alpha    Beta     Spin     Total
       1     H     0.44469  0.44469  0.00000  0.11061
       2     C     3.02244  3.02244  0.00000 -0.04488
       3     O     4.15641  4.15641  0.00000 -0.31283
       4     H     0.46550  0.46550  0.00000  0.06901
       5     H     0.45298  0.45298  0.00000  0.09405
       6     C     2.83029  2.83029  0.00000  0.33943
       7     O     4.16464  4.16464  0.00000 -0.32927
       8     H     0.46306  0.46306  0.00000  0.07388

   Total alpha = 16.00000, Total beta = 16.00000, Total charge = -0.00000
