  ==> Input File <==

--------------------------------------------------------------------------
set {
	reference rhf
	basis cc-pvtz
}

set_num_threads( 4 )
memory 2 gb

molecule MOL {
0 1

H	 2.454258	 0.709580	 0.569777
O	 1.558639	 0.823898	 0.827541
C	 0.700177	 0.619554	 -0.266242
C	 -0.713111	 0.588314	 0.266177
H	 0.923489	 -0.322547	 -0.757670
H	 0.798779	 1.422229	 -0.992443
O	 -1.421673	 -0.521378	 -0.196983
H	 -1.244794	 1.469161	 -0.069059
H	 -0.685100	 0.604721	 1.352683
H	 -0.933408	 -1.297830	 0.014544

	symmetry c1
}
set optking {
	frozen_dihedral = ("
		5 3 4 7
	")
}

ee = optimize('scf')
oeprop('DIPOLE', 'QUADRUPOLE', 'MULLIKEN_CHARGES')
f=open( 'psi4out.xyz', 'w' )
f.write( "10  " )
f.write( str(ee) + "\n" )
f.write( MOL.save_string_xyz() )
f.close()
--------------------------------------------------------------------------

    Molecular point group: c1
  Charge       = 0
  Multiplicity = 1
  Basis Set: CC-PVTZ
  Basis Set:
  @DF-RHF Final Energy:  -229.01871918255580
    Total Energy =                       -229.0187191825557989
    Molecular point group: c1
  Basis Set: CC-PVTZ
  Basis Set:
  Basis Set: CC-PVTZ
  Basis Set:
  @DF-RHF Final Energy:  -229.01994759294143
    Total Energy =                       -229.0199475929415769
  Basis Set: CC-PVTZ
  Basis Set:
  Basis Set: CC-PVTZ
  Basis Set:
  @DF-RHF Final Energy:  -229.02041861131977
    Total Energy =                       -229.0204186113199114
  Basis Set: CC-PVTZ
  Basis Set:
  Basis Set: CC-PVTZ
  Basis Set:
  @DF-RHF Final Energy:  -229.02046796654577
    Total Energy =                       -229.0204679665457945
  Basis Set: CC-PVTZ
  Basis Set:
  Basis Set: CC-PVTZ
  Basis Set:
  @DF-RHF Final Energy:  -229.02046910846926
    Total Energy =                       -229.0204691084691717
  Basis Set: CC-PVTZ
  Basis Set:
  Charge       = 0
  Multiplicity = 1
  Basis Set: CC-PVTZ
  Basis Set:

    Orbital Energies (a.u.)
    -----------------------

    Doubly Occupied:

       1A    -20.555427     2A    -20.549794     3A    -11.271562
       4A    -11.267492     5A     -1.377817     6A     -1.363362
       7A     -0.996784     8A     -0.848513     9A     -0.729534
      10A     -0.669862    11A     -0.657817    12A     -0.611053
      13A     -0.576370    14A     -0.529000    15A     -0.495675
      16A     -0.448512    17A     -0.437254

  @DF-RHF Final Energy:  -229.02046922458729

   => Energetics <=

    Nuclear Repulsion Energy =            131.3637073466936442
    One-Electron Energy =                -573.9966994273646606
    Two-Electron Energy =                 213.6125228560836717
    DFT Exchange-Correlation Energy =       0.0000000000000000
    Empirical Dispersion Energy =           0.0000000000000000
    PCM Polarization Energy =               0.0000000000000000
    EFP Energy =                            0.0000000000000000
    Total Energy =                       -229.0204692245873161
    Molecular point group: c1
  Basis Set: CC-PVTZ
  Basis Set:

  -Total Gradient:
     Atom            X                  Y                   Z
    ------   -----------------  -----------------  -----------------
       1       -0.000024600099     0.000000413741     0.000000040819
       2        0.000002204885    -0.000002782328    -0.000015871596
       3        0.000824238337    -0.001127965808     0.002161566922
       4       -0.000643680928     0.001176093255    -0.001738919893
       5       -0.000523727733     0.000704042541    -0.001449276195
       6       -0.000001425571    -0.000006334144    -0.000004361800
       7        0.000380062755    -0.000747128551     0.001043333656
       8       -0.000006038542    -0.000003201234     0.000000902695
       9       -0.000008792026     0.000006051406     0.000003218179
      10        0.000001758923     0.000000811120    -0.000000632788

  **** Optimization is complete! (in 6 steps) ****
    Final optimized geometry and variables:
    Molecular point group: c1

    Geometry (in Angstrom), charge = 0, multiplicity = 1:

    H            2.412237485562     0.562798766878     0.395028363903
    O            1.529527465966     0.436981268174     0.690651648792
    C            0.672065824731     0.265939329077    -0.406492379436
    C           -0.772416597952     0.227223187762     0.100403362350
    H            0.881510088671    -0.660370354909    -0.933239090923
    H            0.803131545523     1.075956409983    -1.117884268811
    O           -1.507652309616    -0.847412280827    -0.416476468071
    H           -1.305340604793     1.120502701778    -0.190841657491
    H           -0.744247968346     0.196314665535     1.183737264867
    H           -1.199605687278    -1.653365777238    -0.043610205207

  Mulliken Charges: (a.u.)
   Center  Symbol    Alpha    Beta     Spin     Total
       1     H     0.39285  0.39285  0.00000  0.21429
       2     O     4.19898  4.19898  0.00000 -0.39797
       3     C     2.96934  2.96934  0.00000  0.06133
       4     C     2.97281  2.97281  0.00000  0.05438
       5     H     0.47553  0.47553  0.00000  0.04893
       6     H     0.47426  0.47426  0.00000  0.05148
       7     O     4.20335  4.20335  0.00000 -0.40669
       8     H     0.45763  0.45763  0.00000  0.08473
       9     H     0.46274  0.46274  0.00000  0.07452
      10     H     0.39250  0.39250  0.00000  0.21500

   Total alpha = 17.00000, Total beta = 17.00000, Total charge = -0.00000
