  ==> Input File <==

--------------------------------------------------------------------------
set {
	reference rhf
	basis 6-31G*
}

set_num_threads( 4 )
memory 2 gb

molecule MOL {
0 1

O	 0.894480	 1.815667	 0.471540
C	 0.173472	 1.628867	 1.397981
C	 -1.099897	 0.819134	 1.370455
O	 0.402932	 2.122660	 2.608143
C	 -1.412532	 0.227344	 -0.000452
H	 -1.006108	 0.040968	 2.123060
H	 -1.903340	 1.465753	 1.712681
C	 -2.706999	 -0.587347	 -0.000541
H	 -0.584027	 -0.398030	 -0.318243
H	 -1.482070	 1.028825	 -0.729353
C	 -3.956778	 0.291888	 0.000910
H	 -2.726114	 -1.239230	 -0.871609
H	 -2.725217	 -1.240844	 0.869333
H	 -3.985213	 0.933254	 -0.875158
H	 -4.860123	 -0.309979	 0.000519
H	 -3.984618	 0.931166	 0.878514
C	 1.571453	 2.905543	 2.771829
H	 2.453396	 2.323891	 2.545231
H	 1.580067	 3.210070	 3.806787
H	 1.541907	 3.771866	 2.126757

	symmetry c1
}
set optking {
	frozen_dihedral = ("
		9 5 8 12
	")
}

ee = optimize('scf')
oeprop('DIPOLE', 'QUADRUPOLE', 'MULLIKEN_CHARGES')
f=open( 'psi4out.xyz', 'w' )
f.write( "20  " )
f.write( str(ee) + "\n" )
f.write( MOL.save_string_xyz() )
f.close()
--------------------------------------------------------------------------

    Molecular point group: c1
  Charge       = 0
  Multiplicity = 1
  Basis Set: 6-31G*
  Basis Set:
  @DF-RHF Final Energy:  -383.93941939175886
    Total Energy =                       -383.9394193917589746
    Molecular point group: c1
  Basis Set: 6-31G*
  Basis Set:
  Basis Set: 6-31G*
  Basis Set:
  @DF-RHF Final Energy:  -383.93965573815575
    Total Energy =                       -383.9396557381556931
  Basis Set: 6-31G*
  Basis Set:
  Basis Set: 6-31G*
  Basis Set:
  @DF-RHF Final Energy:  -383.93942877648720
    Total Energy =                       -383.9394287764873752
  Basis Set: 6-31G*
  Basis Set:
  Basis Set: 6-31G*
  Basis Set:
  @DF-RHF Final Energy:  -383.93969534706298
    Total Energy =                       -383.9396953470628659
  Basis Set: 6-31G*
  Basis Set:
  Basis Set: 6-31G*
  Basis Set:
  @DF-RHF Final Energy:  -383.93969780809675
    Total Energy =                       -383.9396978080968665
  Basis Set: 6-31G*
  Basis Set:
  Charge       = 0
  Multiplicity = 1
  Basis Set: 6-31G*
  Basis Set:

    Orbital Energies (a.u.)
    -----------------------

    Doubly Occupied:

       1A    -20.603733     2A    -20.545568     3A    -11.372439
       4A    -11.280922     5A    -11.235557     6A    -11.220414
       7A    -11.219354     8A    -11.212626     9A     -1.469442
      10A     -1.362902    11A     -1.088489    12A     -1.022885
      13A     -0.968113    14A     -0.893450    15A     -0.800828
      16A     -0.765357    17A     -0.701352    18A     -0.682768
      19A     -0.672333    20A     -0.632463    21A     -0.611858
      22A     -0.595131    23A     -0.570640    24A     -0.548114
      25A     -0.531840    26A     -0.523164    27A     -0.510367
      28A     -0.473728    29A     -0.472549    30A     -0.467162
      31A     -0.455719    32A     -0.437587

  @DF-RHF Final Energy:  -383.93969792046323

   => Energetics <=

    Nuclear Repulsion Energy =            384.3328488756405932
    One-Electron Energy =               -1284.6473883149244557
    Two-Electron Energy =                 516.3748415188205172
    DFT Exchange-Correlation Energy =       0.0000000000000000
    Empirical Dispersion Energy =           0.0000000000000000
    PCM Polarization Energy =               0.0000000000000000
    EFP Energy =                            0.0000000000000000
    Total Energy =                       -383.9396979204633453
    Molecular point group: c1
  Basis Set: 6-31G*
  Basis Set:

  -Total Gradient:
     Atom            X                  Y                   Z
    ------   -----------------  -----------------  -----------------
       1        0.000001555882     0.000002046271    -0.000001983033
       2       -0.000002884696     0.000012550748    -0.000002844921
       3        0.000000436155    -0.000015452782    -0.000008027416
       4        0.000007073739    -0.000008177185     0.000000320113
       5        0.000565183099    -0.000987282850     0.002543737838
       6       -0.000007809013     0.000002720386    -0.000002798171
       7       -0.000016132616     0.000010322527    -0.000005849184
       8       -0.001135828664     0.001862068103    -0.001724790641
       9       -0.000300359480     0.000517093440    -0.001830093462
      10       -0.000003602468    -0.000005180176    -0.000004380089
      11        0.000019895259    -0.000003604272     0.000018857353
      12        0.000862274710    -0.001376925329     0.001002981087
      13        0.000001998419    -0.000006155755     0.000001098124
      14       -0.000002155494    -0.000007115172    -0.000007026736
      15        0.000005185719    -0.000012185513     0.000014097802
      16        0.000006112984     0.000011575076     0.000006401590
      17       -0.000000598065     0.000005291032     0.000000126850
      18       -0.000000951210    -0.000000957706    -0.000000223803
      19       -0.000000088171    -0.000000545840     0.000000065349
      20        0.000000693907    -0.000000085005     0.000000331350

  **** Optimization is complete! (in 6 steps) ****
    Final optimized geometry and variables:
    Molecular point group: c1

    Geometry (in Angstrom), charge = 0, multiplicity = 1:

    O            1.650071897457     0.616896258514    -0.618437731248
    C            0.922756225103     0.451438428634     0.307109798087
    C           -0.362712687525    -0.339440273417     0.284769982147
    O            1.155555325700     0.955044672737     1.512702856860
    C           -0.674487117052    -0.942911123981    -1.082051261600
    H           -0.280155762222    -1.112716660955     1.043825790060
    H           -1.152549801644     0.324076157982     0.622961317847
    C           -1.972580226930    -1.759623237768    -1.106016310311
    H            0.155036847729    -1.568172154974    -1.394084658850
    H           -0.731226217100    -0.147425360576    -1.819228383978
    C           -3.247537375942    -0.915412463346    -1.105442380166
    H           -1.964598971511    -2.397132455288    -1.985770547511
    H           -1.988614390621    -2.437887652254    -0.254611228389
    H           -3.276195573508    -0.253860106019    -1.966508475386
    H           -4.129980867890    -1.546406489563    -1.143616210307
    H           -3.327114226483    -0.300685712165    -0.213970617528
    C            2.335586351960     1.721335995362     1.672129307199
    H            3.209119939387     1.123597741911     1.454967097976
    H            2.345419872197     2.036839325238     2.703789311883
    H            2.321798658777     2.581007440508     1.017700533537

  Mulliken Charges: (a.u.)
   Center  Symbol    Alpha    Beta     Spin     Total
       1     O     4.28582  4.28582  0.00000 -0.57164
       2     C     2.60527  2.60527  0.00000  0.78947
       3     C     3.20858  3.20858  0.00000 -0.41716
       4     O     4.30731  4.30731  0.00000 -0.61461
       5     C     3.15398  3.15398  0.00000 -0.30796
       6     H     0.40078  0.40078  0.00000  0.19845
       7     H     0.39956  0.39956  0.00000  0.20087
       8     C     3.15688  3.15688  0.00000 -0.31377
       9     H     0.40959  0.40959  0.00000  0.18081
      10     H     0.41226  0.41226  0.00000  0.17549
      11     C     3.24107  3.24107  0.00000 -0.48214
      12     H     0.41684  0.41684  0.00000  0.16633
      13     H     0.42362  0.42362  0.00000  0.15277
      14     H     0.41957  0.41957  0.00000  0.16085
      15     H     0.41769  0.41769  0.00000  0.16461
      16     H     0.42221  0.42221  0.00000  0.15557
      17     C     3.09244  3.09244  0.00000 -0.18487
      18     H     0.40906  0.40906  0.00000  0.18189
      19     H     0.40844  0.40844  0.00000  0.18312
      20     H     0.40904  0.40904  0.00000  0.18191

   Total alpha = 32.00000, Total beta = 32.00000, Total charge =  0.00000
