  ==> Input File <==

--------------------------------------------------------------------------
set {
	reference rhf
	basis 6-31G*
}

set_num_threads( 4 )
memory 2 gb

molecule MOL {
0 1

H	 -2.956959	 -0.948747	 0.862814
C	 -3.100504	 -0.513455	 -0.133949
C	 -2.660244	 0.921717	 -0.272021
O	 -3.573066	 -1.165180	 -1.007842
C	 -1.220012	 1.144545	 0.209990
H	 -2.784926	 1.219773	 -1.306587
H	 -3.337442	 1.523602	 0.332787
C	 -0.252658	 0.041456	 -0.226725
H	 -0.873521	 2.100229	 -0.171974
H	 -1.211708	 1.231594	 1.295398
C	 1.180775	 0.282413	 0.250794
H	 -0.266029	 -0.034465	 -1.312038
H	 -0.597733	 -0.921000	 0.146291
C	 2.148627	 -0.814315	 -0.201312
H	 1.516199	 1.249228	 -0.115937
H	 1.192670	 0.346017	 1.338083
C	 3.580890	 -0.659131	 0.322722
H	 2.166869	 -0.852443	 -1.289387
H	 1.762857	 -1.776509	 0.128956
C	 4.324889	 0.564933	 -0.213704
H	 4.142010	 -1.551473	 0.056605
H	 3.564836	 -0.624694	 1.410140
H	 4.342616	 0.565491	 -1.300421
H	 3.866655	 1.493402	 0.110242
H	 5.353900	 0.572371	 0.132816

	symmetry c1
}
set optking {
	frozen_dihedral = ("
		6 3 5 8
	")
}

ee = optimize('scf')
oeprop('DIPOLE', 'QUADRUPOLE', 'MULLIKEN_CHARGES')
f=open( 'psi4out.xyz', 'w' )
f.write( "25  " )
f.write( str(ee) + "\n" )
f.write( MOL.save_string_xyz() )
f.close()
--------------------------------------------------------------------------

    Molecular point group: c1
  Charge       = 0
  Multiplicity = 1
  Basis Set: 6-31G*
  Basis Set:
  @DF-RHF Final Energy:  -387.11918850443851
    Total Energy =                       -387.1191885044393075
    Molecular point group: c1
  Basis Set: 6-31G*
  Basis Set:
  Basis Set: 6-31G*
  Basis Set:
  @DF-RHF Final Energy:  -387.11857191978766
    Total Energy =                       -387.1185719197879962
  Basis Set: 6-31G*
  Basis Set:
  Basis Set: 6-31G*
  Basis Set:
  @DF-RHF Final Energy:  -387.11690847725907
    Total Energy =                       -387.1169084772594715
  Basis Set: 6-31G*
  Basis Set:
  Basis Set: 6-31G*
  Basis Set:
  @DF-RHF Final Energy:  -387.11962806905632
    Total Energy =                       -387.1196280690566027
  Basis Set: 6-31G*
  Basis Set:
  Basis Set: 6-31G*
  Basis Set:
  @DF-RHF Final Energy:  -387.11969752420993
    Total Energy =                       -387.1196975242097551
  Basis Set: 6-31G*
  Basis Set:
  Basis Set: 6-31G*
  Basis Set:
  @DF-RHF Final Energy:  -387.11975671488557
    Total Energy =                       -387.1197567148852841
  Basis Set: 6-31G*
  Basis Set:
  Basis Set: 6-31G*
  Basis Set:
  @DF-RHF Final Energy:  -387.11976204238840
    Total Energy =                       -387.1197620423886292
  Basis Set: 6-31G*
  Basis Set:
  Charge       = 0
  Multiplicity = 1
  Basis Set: 6-31G*
  Basis Set:

    Orbital Energies (a.u.)
    -----------------------

    Doubly Occupied:

       1A    -20.561402     2A    -11.326293     3A    -11.235451
       4A    -11.234565     5A    -11.224893     6A    -11.220415
       7A    -11.218325     8A    -11.217337     9A    -11.210817
      10A     -1.401401    11A     -1.103690    12A     -1.069182
      13A     -1.013323    14A     -0.942688    15A     -0.876376
      16A     -0.826136    17A     -0.782618    18A     -0.781400
      19A     -0.667917    20A     -0.657577    21A     -0.633178
      22A     -0.626277    23A     -0.601606    24A     -0.596031
      25A     -0.575531    26A     -0.546893    27A     -0.541933
      28A     -0.523817    29A     -0.503532    30A     -0.496006
      31A     -0.494991    32A     -0.476201    33A     -0.464794
      34A     -0.459510    35A     -0.441656    36A     -0.409319

  @DF-RHF Final Energy:  -387.11976287813030

   => Energetics <=

    Nuclear Repulsion Energy =            439.9511566182425781
    One-Electron Energy =               -1396.2156743794228078
    Two-Electron Energy =                 569.1447548830500409
    DFT Exchange-Correlation Energy =       0.0000000000000000
    Empirical Dispersion Energy =           0.0000000000000000
    PCM Polarization Energy =               0.0000000000000000
    EFP Energy =                            0.0000000000000000
    Total Energy =                       -387.1197628781302456
    Molecular point group: c1
  Basis Set: 6-31G*
  Basis Set:

  -Total Gradient:
     Atom            X                  Y                   Z
    ------   -----------------  -----------------  -----------------
       1       -0.000040559595    -0.000009697987     0.000005583981
       2        0.000051665671    -0.000044982102     0.000002647032
       3        0.001109801842    -0.006915103502    -0.000896399898
       4       -0.000011585913    -0.000005813291     0.000014987049
       5        0.000940048573     0.004180942963    -0.003944310817
       6       -0.001219254901     0.004838559884     0.001732449207
       7        0.000031944606     0.000018559109    -0.000022834062
       8       -0.000863139778    -0.002061540486     0.003090882188
       9        0.000005695434     0.000029475508     0.000030783798
      10        0.000003672161    -0.000026800459    -0.000025432628
      11       -0.000013417414    -0.000002073968     0.000019380228
      12        0.000000325600    -0.000002025566    -0.000005146097
      13        0.000007767735    -0.000004534800     0.000007040918
      14        0.000012841414     0.000011393967    -0.000029244482
      15       -0.000024568692    -0.000020921580     0.000005252217
      16       -0.000005664122     0.000002133090     0.000015808099
      17       -0.000016386709     0.000026272523     0.000017250132
      18       -0.000005864794     0.000016203927    -0.000006160390
      19        0.000023833124    -0.000010817463    -0.000008599733
      20        0.000016344738    -0.000011580153    -0.000010731994
      21       -0.000010267840    -0.000010932322     0.000013220653
      22       -0.000011339449     0.000021604323     0.000001277907
      23       -0.000006735145     0.000007781344    -0.000007879225
      24        0.000022358408    -0.000015402000     0.000008461859
      25        0.000002485048    -0.000010700956    -0.000008285937

  **** Optimization is complete! (in 8 steps) ****
    Final optimized geometry and variables:
    Molecular point group: c1

    Geometry (in Angstrom), charge = 0, multiplicity = 1:

    H           -3.163069658803    -0.899443135140     0.995256074819
    C           -3.226609033431    -0.463633085796    -0.009059980831
    C           -2.700196288123     0.941609314226    -0.130361128366
    O           -3.702779752654    -1.087729589488    -0.901195850462
    C           -1.262265089815     1.122931382073     0.390850475532
    H           -2.799192954140     1.281403598373    -1.154650637139
    H           -3.360981394207     1.573361537124     0.463512391536
    C           -0.283995934559     0.032145618646    -0.057137092179
    H           -0.905719312181     2.096597911558     0.069647727259
    H           -1.277261740021     1.149587980611     1.478404967572
    C            1.150189442393     0.298077737075     0.404922514600
    H           -0.305531976465    -0.051938119720    -1.142075609123
    H           -0.607545529364    -0.932867438664     0.326862005941
    C            2.127250851315    -0.796793879900    -0.031668029674
    H            1.471918843530     1.261140168119     0.017154635620
    H            1.168375980118     0.383191131429     1.490637682812
    C            3.560613645038    -0.616394117141     0.481109341615
    H            2.140122409813    -0.854850942924    -1.118765605515
    H            1.753885094453    -1.756909867592     0.318366477672
    C            4.290380105392     0.602479545451    -0.086399629871
    H            4.128703182113    -1.509338020206     0.232623082502
    H            3.549172917840    -0.557541337540     1.567635697300
    H            4.304724801161     0.577715128418    -1.172745656073
    H            3.824097070002     1.533894548485     0.217336042881
    H            5.320267023322     0.628375853670     0.256009902571

  Mulliken Charges: (a.u.)
   Center  Symbol    Alpha    Beta     Spin     Total
       1     H     0.43198  0.43198  0.00000  0.13604
       2     C     2.83089  2.83089  0.00000  0.33821
       3     C     3.20942  3.20942  0.00000 -0.41884
       4     O     4.23826  4.23826  0.00000 -0.47653
       5     C     3.16196  3.16196  0.00000 -0.32391
       6     H     0.39961  0.39961  0.00000  0.20077
       7     H     0.40786  0.40786  0.00000  0.18428
       8     C     3.15917  3.15917  0.00000 -0.31834
       9     H     0.41209  0.41209  0.00000  0.17582
      10     H     0.41937  0.41937  0.00000  0.16126
      11     C     3.15403  3.15403  0.00000 -0.30807
      12     H     0.41553  0.41553  0.00000  0.16895
      13     H     0.42065  0.42065  0.00000  0.15870
      14     C     3.15307  3.15307  0.00000 -0.30615
      15     H     0.42029  0.42029  0.00000  0.15941
      16     H     0.42383  0.42383  0.00000  0.15233
      17     C     3.15280  3.15280  0.00000 -0.30560
      18     H     0.42241  0.42241  0.00000  0.15518
      19     H     0.42116  0.42116  0.00000  0.15768
      20     C     3.24138  3.24138  0.00000 -0.48277
      21     H     0.41989  0.41989  0.00000  0.16022
      22     H     0.42338  0.42338  0.00000  0.15325
      23     H     0.42165  0.42165  0.00000  0.15669
      24     H     0.42067  0.42067  0.00000  0.15866
      25     H     0.41862  0.41862  0.00000  0.16276

   Total alpha = 36.00000, Total beta = 36.00000, Total charge =  0.00000
