  ==> Input File <==

--------------------------------------------------------------------------
set {
	reference rhf
	basis 6-31G*
}

set_num_threads( 4 )
memory 2 gb

molecule MOL {
0 1

H	 2.652209	 0.763231	 0.000000
O	 2.263154	 -0.100023	 0.000000
C	 0.912879	 -0.015685	 0.000000
C	 0.225185	 -0.766644	 -0.944308
C	 0.217939	 0.780641	 0.895550
H	 0.783096	 -1.377501	 -1.629434
C	 -1.154541	 -0.713625	 -0.983748
H	 0.752111	 1.362891	 1.627783
C	 -1.167705	 0.824394	 0.844648
H	 -1.682496	 -1.297059	 -1.716928
C	 -1.862540	 0.080883	 -0.091330
H	 -1.699622	 1.445167	 1.543501
H	 -2.935903	 0.117022	 -0.128087

	symmetry c1
}
set optking {
	frozen_dihedral = ("
		4 3 2 1
	")
}

ee = optimize('scf')
oeprop('DIPOLE', 'QUADRUPOLE', 'MULLIKEN_CHARGES')
f=open( 'psi4out.xyz', 'w' )
f.write( "13  " )
f.write( str(ee) + "\n" )
f.write( MOL.save_string_xyz() )
f.close()
--------------------------------------------------------------------------

    Molecular point group: c1
  Charge       = 0
  Multiplicity = 1
  Basis Set: 6-31G*
  Basis Set:
  @DF-RHF Final Energy:  -305.55470357351163
    Total Energy =                       -305.5547035735119152
    Molecular point group: c1
  Basis Set: 6-31G*
  Basis Set:
  Basis Set: 6-31G*
  Basis Set:
  @DF-RHF Final Energy:  -305.55491987026465
    Total Energy =                       -305.5549198702648823
  Basis Set: 6-31G*
  Basis Set:
  Basis Set: 6-31G*
  Basis Set:
  @DF-RHF Final Energy:  -305.55494792030640
    Total Energy =                       -305.5549479203064038
  Basis Set: 6-31G*
  Basis Set:
  Charge       = 0
  Multiplicity = 1
  Basis Set: 6-31G*
  Basis Set:

    Orbital Energies (a.u.)
    -----------------------

    Doubly Occupied:

       1A    -20.581733     2A    -11.292357     3A    -11.235898
       4A    -11.234451     5A    -11.227926     6A    -11.225458
       7A    -11.224067     8A     -1.398095     9A     -1.147537
      10A     -1.018266    11A     -1.003748    12A     -0.839641
      13A     -0.822570    14A     -0.733661    15A     -0.681615
      16A     -0.646984    17A     -0.621379    18A     -0.592644
      19A     -0.588517    20A     -0.533104    21A     -0.513573
      22A     -0.491488    23A     -0.472204    24A     -0.337222
      25A     -0.317860

  @DF-RHF Final Energy:  -305.55495073793344

   => Energetics <=

    Nuclear Repulsion Energy =            272.8382612056122412
    One-Electron Energy =                -955.2224262034412732
    Two-Electron Energy =                 376.8292142598956502
    DFT Exchange-Correlation Energy =       0.0000000000000000
    Empirical Dispersion Energy =           0.0000000000000000
    PCM Polarization Energy =               0.0000000000000000
    EFP Energy =                            0.0000000000000000
    Total Energy =                       -305.5549507379333249
    Molecular point group: c1
  Basis Set: 6-31G*
  Basis Set:

  -Total Gradient:
     Atom            X                  Y                   Z
    ------   -----------------  -----------------  -----------------
       1       -0.000065142023    -0.000002587770    -0.002407698848
       2        0.000197131414     0.000534513100     0.002410864563
       3       -0.000401621485    -0.001743772652     0.001163177634
       4       -0.000050334514     0.001342960297    -0.001168251659
       5        0.000231765669    -0.000178333430    -0.000029534372
       6        0.000041038311    -0.000020386471    -0.000031335992
       7        0.000277482738    -0.000204516322    -0.000059246167
       8       -0.000006984520     0.000010616789     0.000003325947
       9       -0.000324759765    -0.000033640631    -0.000128762794
      10        0.000022759990     0.000032779013     0.000019694170
      11        0.000079165035     0.000277441205     0.000232274030
      12        0.000018891321     0.000000716219    -0.000003625004
      13       -0.000019392169    -0.000015789345    -0.000000881507

  **** Optimization is complete! (in 4 steps) ****
    Final optimized geometry and variables:
    Molecular point group: c1

    Geometry (in Angstrom), charge = 0, multiplicity = 1:

    H            2.651027434121     0.751105246304     0.057134564544
    O            2.269820655235    -0.115926516147     0.055547649824
    C            0.908091001626    -0.033890609837     0.029968211114
    C            0.221122877838    -0.782219022725    -0.911897229462
    C            0.217223129492     0.763276752814     0.928357552852
    H            0.778265703335    -1.389441482159    -1.601016637664
    C           -1.162166177434    -0.739211643104    -0.942961101102
    H            0.760336655293     1.331583571531     1.663226345742
    C           -1.166962933640     0.811440452282     0.879701914679
    H           -1.693425519315    -1.324446042932    -1.672205138525
    C           -1.863029848227     0.059849551490    -0.052216246822
    H           -1.699459276082     1.432673490484     1.577639864201
    H           -2.936922220017     0.094800788555    -0.084230916483

  Mulliken Charges: (a.u.)
   Center  Symbol    Alpha    Beta     Spin     Total
       1     H     0.27209  0.27209  0.00000  0.45582
       2     O     4.38483  4.38483  0.00000 -0.76966
       3     C     2.80827  2.80827  0.00000  0.38347
       4     C     3.11921  3.11921  0.00000 -0.23841
       5     C     3.13089  3.13089  0.00000 -0.26178
       6     H     0.39208  0.39208  0.00000  0.21583
       7     C     3.09458  3.09458  0.00000 -0.18916
       8     H     0.39941  0.39941  0.00000  0.20119
       9     C     3.09409  3.09409  0.00000 -0.18818
      10     H     0.39797  0.39797  0.00000  0.20405
      11     C     3.10846  3.10846  0.00000 -0.21692
      12     H     0.39820  0.39820  0.00000  0.20361
      13     H     0.39992  0.39992  0.00000  0.20016

   Total alpha = 25.00000, Total beta = 25.00000, Total charge =  0.00000
