                              Psi4 1.0.54 Driver

  ==> Input File <==

--------------------------------------------------------------------------
set {
	reference rhf
	basis cc-pvtz
}

set_num_threads( 4 )
memory 2 gb

molecule MOL {
0 1

O	 -0.819961	 2.102334	 -3.001681
C	 -1.121426	 1.503544	 -2.020865
C	 -0.415138	 0.216723	 -1.642318
C	 -2.205134	 1.998379	 -1.092704
C	 0.886461	 0.505642	 -0.883892
H	 -0.191447	 -0.315873	 -2.557968
H	 -1.065206	 -0.404968	 -1.035872
C	 1.630207	 -0.772146	 -0.501001
H	 1.509599	 1.135259	 -1.506394
H	 0.667430	 1.074177	 0.016715
C	 2.907848	 -0.545876	 0.309149
H	 1.871497	 -1.328327	 -1.403454
H	 0.962162	 -1.405012	 0.076754
C	 3.373802	 0.906639	 0.372125
H	 3.699140	 -1.146831	 -0.127906
H	 2.764321	 -0.923458	 1.318191
H	 3.519798	 1.311927	 -0.623875
H	 4.316899	 0.983758	 0.900700
H	 2.661122	 1.540651	 0.885346
H	 -3.050089	 1.318569	 -1.136383
H	 -2.522930	 2.987209	 -1.385605
H	 -1.855211	 2.008615	 -0.066527

	symmetry c1
}
set optking {
	frozen_dihedral = ("
		12 8 11 15
	")
}

ee,wfn = optimize('scf', return_wfn=True)
oeprop( wfn, 'DIPOLE', 'QUADRUPOLE', 'MULLIKEN_CHARGES')
f=open( 'psi4out.xyz', 'w' )
f.write( "22  " )
f.write( str(ee) + "\n" )
f.write( MOL.save_string_xyz() )
f.close()
--------------------------------------------------------------------------

    Molecular point group: c1
  Charge       = 0
  Multiplicity = 1
  Basis Set: CC-PVTZ
  Basis Set:
  @DF-RHF Final Energy:  -348.21393859933409
    Total Energy =                       -348.2139385993345400
    Molecular point group: c1
  Basis Set: CC-PVTZ
  Basis Set:
  Basis Set: CC-PVTZ
  Basis Set:
  @DF-RHF Final Energy:  -348.20025595426750
    Total Energy =                       -348.2002559542676181
  Basis Set: CC-PVTZ
  Basis Set:
  Basis Set: CC-PVTZ
  Basis Set:
  @DF-RHF Final Energy:  -348.21518639000942
    Total Energy =                       -348.2151863900090802
  Basis Set: CC-PVTZ
  Basis Set:
  Basis Set: CC-PVTZ
  Basis Set:
  @DF-RHF Final Energy:  -348.21573175245175
    Total Energy =                       -348.2157317524518021
  Basis Set: CC-PVTZ
  Basis Set:
  @DF-RHF Final Energy:  -348.21568496876768
    Total Energy =                       -348.2156849687679596
  @DF-RHF Final Energy:  -348.21552432113094
    Total Energy =                       -348.2155243211312268
  @DF-RHF Final Energy:  -348.21575155464865
    Total Energy =                       -348.2157515546487616
  Basis Set: CC-PVTZ
  Basis Set:
  @DF-RHF Final Energy:  -348.21570532755572
    Total Energy =                       -348.2157053275555540
  Basis Set: CC-PVTZ
  Basis Set:
  Basis Set: CC-PVTZ
  Basis Set:
  @DF-RHF Final Energy:  -348.21576293665311
    Total Energy =                       -348.2157629366531637
  Basis Set: CC-PVTZ
  Basis Set:
  Basis Set: CC-PVTZ
  Basis Set:
  @DF-RHF Final Energy:  -348.21576558156960
    Total Energy =                       -348.2157655815693715
  Basis Set: CC-PVTZ
  Basis Set:
  Charge       = 0
  Multiplicity = 1
  Basis Set: CC-PVTZ
  Basis Set:

    Orbital Energies (a.u.)
    -----------------------

    Doubly Occupied:

       1A    -20.536648     2A    -11.319139     3A    -11.228063
       4A    -11.227297     5A    -11.226837     6A    -11.220719
       7A    -11.219357     8A    -11.209899     9A     -1.396754
      10A     -1.095196    11A     -1.043532    12A     -0.999979
      13A     -0.938470    14A     -0.864393    15A     -0.779743
      16A     -0.734434    17A     -0.666029    18A     -0.648112
      19A     -0.631615    20A     -0.616939    21A     -0.593206
      22A     -0.589611    23A     -0.560947    24A     -0.540441
      25A     -0.533493    26A     -0.527018    27A     -0.502110
      28A     -0.490246    29A     -0.469338    30A     -0.463997
      31A     -0.454469    32A     -0.398472

  @DF-RHF Final Energy:  -348.21576607685768

   => Energetics <=

    Nuclear Repulsion Energy =            374.5892471924339588
    One-Electron Energy =               -1214.1570219256193468
    Two-Electron Energy =                 491.3520086563277118
    DFT Exchange-Correlation Energy =       0.0000000000000000
    Empirical Dispersion Energy =           0.0000000000000000
    PCM Polarization Energy =               0.0000000000000000
    EFP Energy =                            0.0000000000000000
    Total Energy =                       -348.2157660768576761
    Molecular point group: c1
  Basis Set: CC-PVTZ
  Basis Set:

  -Total Gradient:
     Atom            X                  Y                   Z
    ------   -----------------  -----------------  -----------------
       1        0.000000317017     0.000001708761     0.000011766800
       2       -0.000002253910     0.000009955533     0.000003589291
       3        0.000000896503    -0.000004017305    -0.000000351621
       4       -0.000014057206    -0.000012063670    -0.000021916034
       5       -0.000006198581     0.000004024329     0.000009104829
       6       -0.000003106778    -0.000000594141    -0.000001318228
       7        0.000006606250     0.000000046388    -0.000001449508
       8        0.001053343987     0.003947687334    -0.004169205308
       9        0.000006855061    -0.000003524715     0.000003901023
      10       -0.000006616386    -0.000005052916    -0.000005657515
      11       -0.001332726435    -0.003403096850     0.004513039073
      12       -0.000686103034    -0.002804235338     0.002825746843
      13        0.000003983572     0.000006671126    -0.000003228034
      14       -0.000007261597    -0.000004765248     0.000000400625
      15        0.000969330119     0.002273603249    -0.003169860240
      16       -0.000002169119    -0.000001947631    -0.000000748349
      17       -0.000005735399     0.000002419522     0.000003962638
      18       -0.000005171681    -0.000002540328    -0.000004106404
      19        0.000013337834    -0.000008181265    -0.000000315065
      20        0.000006461758     0.000005452092     0.000004294304
      21        0.000002635418    -0.000002353639     0.000001485669
      22        0.000007632609     0.000000804713     0.000000865207

  **** Optimization is complete! (in 11 steps) ****
    Final optimized geometry and variables:
    Molecular point group: c1

    Geometry (in Angstrom), charge = 0, multiplicity = 1:

    O           -1.518616732580     0.901068822986    -2.111318841110
    C           -1.748866170176     0.549172871663    -1.000245872304
    C           -1.009049933834    -0.619931789507    -0.380994434042
    C           -2.773148428801     1.254052918506    -0.143102354436
    C            0.333720434007    -0.170533911781     0.209327834170
    H           -0.837019542764    -1.349512857417    -1.162020885793
    H           -1.615447679891    -1.082309715093     0.390630730052
    C            1.098603005906    -1.340191892100     0.824727753098
    H            0.912812658471     0.294661960885    -0.577977062316
    H            0.160344755133     0.591979961192     0.962959936703
    C            2.473634312528    -1.027801311205     1.468530878455
    H            1.221748386574    -2.119324775246     0.079378105553
    H            0.465039837005    -1.789086451245     1.584477924071
    C            3.095527121007     0.329484878139     1.134872156206
    H            3.180299769677    -1.783189724777     1.143982894867
    H            2.395364048596    -1.113923401527     2.546052924181
    H            3.257281141418     0.446717625317     0.069567027504
    H            4.059513538342     0.421262431375     1.621966254391
    H            2.482262088053     1.157014491616     1.470085728276
    H           -3.614839864958     0.589747145723     0.024877899786
    H           -3.115477386253     2.151486866670    -0.634994478885
    H           -2.358375259338     1.497268854252     0.828665418197

  Mulliken Charges: (a.u.)
   Center  Symbol    Alpha    Beta     Spin     Total
       1     O     4.17842  4.17842  0.00000 -0.35685
       2     C     2.85821  2.85821  0.00000  0.28358
       3     C     3.09746  3.09746  0.00000 -0.19493
       4     C     3.15520  3.15520  0.00000 -0.31041
       5     C     3.10329  3.10329  0.00000 -0.20659
       6     H     0.43902  0.43902  0.00000  0.12197
       7     H     0.44901  0.44901  0.00000  0.10199
       8     C     3.10039  3.10039  0.00000 -0.20077
       9     H     0.43751  0.43751  0.00000  0.12498
      10     H     0.45096  0.45096  0.00000  0.09808
      11     C     3.08812  3.08812  0.00000 -0.17624
      12     H     0.44844  0.44844  0.00000  0.10313
      13     H     0.45176  0.45176  0.00000  0.09647
      14     C     3.15705  3.15705  0.00000 -0.31409
      15     H     0.45012  0.45012  0.00000  0.09977
      16     H     0.45089  0.45089  0.00000  0.09822
      17     H     0.45109  0.45109  0.00000  0.09783
      18     H     0.44407  0.44407  0.00000  0.11186
      19     H     0.45379  0.45379  0.00000  0.09242
      20     H     0.44836  0.44836  0.00000  0.10328
      21     H     0.43604  0.43604  0.00000  0.12793
      22     H     0.45082  0.45082  0.00000  0.09836

   Total alpha = 32.00000, Total beta = 32.00000, Total charge =  0.00000

*** Psi4 exiting successfully. Buy a developer a beer!
