  ==> Input File <==

--------------------------------------------------------------------------
set {
	reference rhf
	basis 6-31G*
}

set_num_threads( 4 )
memory 2 gb

molecule MOL {
0 1

O	 -2.821601	 1.309235	 -0.001213
C	 -2.668563	 0.129746	 -0.000350
C	 -3.801572	 -0.864014	 -0.000442
O	 -1.481751	 -0.454642	 0.000584
H	 -4.417280	 -0.689587	 -0.874708
H	 -3.443784	 -1.883046	 -0.000565
H	 -4.417179	 -0.689832	 0.873954
C	 -0.334255	 0.388708	 0.000906
C	 0.891947	 -0.504646	 0.000751
H	 -0.365390	 1.025305	 -0.873475
H	 -0.365484	 1.024911	 0.875569
C	 0.838286	 -1.556101	 -1.109219
H	 0.972990	 -0.989855	 0.969484
H	 1.777328	 0.114301	 -0.115286
C	 2.066380	 -2.468149	 -1.125975
H	 -0.057155	 -2.163911	 -0.991577
H	 0.746717	 -1.061544	 -2.074677
C	 2.012105	 -3.519181	 -2.233789
H	 2.159189	 -2.963432	 -0.162048
H	 2.961939	 -1.862600	 -1.245782
H	 1.144243	 -4.162811	 -2.121673
H	 2.895411	 -4.149905	 -2.219882
H	 1.953372	 -3.053728	 -3.213541

	symmetry c1
}
set optking {
	frozen_dihedral = ("
		13 9 8 10
	")
}

ee = optimize('scf')
oeprop('DIPOLE', 'QUADRUPOLE', 'MULLIKEN_CHARGES')
f=open( 'psi4out.xyz', 'w' )
f.write( "23  " )
f.write( str(ee) + "\n" )
f.write( MOL.save_string_xyz() )
f.close()
--------------------------------------------------------------------------

    Molecular point group: c1
  Charge       = 0
  Multiplicity = 1
  Basis Set: 6-31G*
  Basis Set:
  @DF-RHF Final Energy:  -422.97826585723499
    Total Energy =                       -422.9782658572349874
    Molecular point group: c1
  Basis Set: 6-31G*
  Basis Set:
  Basis Set: 6-31G*
  Basis Set:
  @DF-RHF Final Energy:  -422.97879970557511
    Total Energy =                       -422.9787997055750566
  Basis Set: 6-31G*
  Basis Set:
  Basis Set: 6-31G*
  Basis Set:
  @DF-RHF Final Energy:  -422.97901336673817
    Total Energy =                       -422.9790133667382861
  Basis Set: 6-31G*
  Basis Set:
  Basis Set: 6-31G*
  Basis Set:
  @DF-RHF Final Energy:  -422.97879935009991
    Total Energy =                       -422.9787993501003029
  Basis Set: 6-31G*
  Basis Set:
  Basis Set: 6-31G*
  Basis Set:
  @DF-RHF Final Energy:  -422.97903391929526
    Total Energy =                       -422.9790339192952615
  Basis Set: 6-31G*
  Basis Set:
  Basis Set: 6-31G*
  Basis Set:
  @DF-RHF Final Energy:  -422.97903554042597
    Total Energy =                       -422.9790355404265938
  Basis Set: 6-31G*
  Basis Set:
  Charge       = 0
  Multiplicity = 1
  Basis Set: 6-31G*
  Basis Set:

    Orbital Energies (a.u.)
    -----------------------

    Doubly Occupied:

       1A    -20.604036     2A    -20.541443     3A    -11.375028
       4A    -11.282188     5A    -11.233191     6A    -11.225533
       7A    -11.219119     8A    -11.217815     9A    -11.211245
      10A     -1.468959    11A     -1.361761    12A     -1.091380
      13A     -1.041388    14A     -1.003007    15A     -0.931012
      16A     -0.843143    17A     -0.803561    18A     -0.772757
      19A     -0.688598    20A     -0.684617    21A     -0.667010
      22A     -0.643279    23A     -0.606970    24A     -0.586268
      25A     -0.579183    26A     -0.570290    27A     -0.559555
      28A     -0.531346    29A     -0.529105    30A     -0.510963
      31A     -0.492814    32A     -0.474070    33A     -0.467450
      34A     -0.459452    35A     -0.447519    36A     -0.437941

  @DF-RHF Final Energy:  -422.97903621024710

   => Energetics <=

    Nuclear Repulsion Energy =            458.7375277180995568
    One-Electron Energy =               -1485.1071386033518138
    Two-Electron Energy =                 603.3905746750056096
    DFT Exchange-Correlation Energy =       0.0000000000000000
    Empirical Dispersion Energy =           0.0000000000000000
    PCM Polarization Energy =               0.0000000000000000
    EFP Energy =                            0.0000000000000000
    Total Energy =                       -422.9790362102467043
    Molecular point group: c1
  Basis Set: 6-31G*
  Basis Set:

  -Total Gradient:
     Atom            X                  Y                   Z
    ------   -----------------  -----------------  -----------------
       1       -0.000005077633     0.000000988897    -0.000003182615
       2        0.000017863766    -0.000003804606    -0.000006884881
       3        0.000005300537     0.000001089894    -0.000002329792
       4       -0.000025036967    -0.000030055959    -0.000005163846
       5        0.000002741300     0.000005121767     0.000003260251
       6        0.000000224240    -0.000001210905     0.000000925440
       7        0.000001931904    -0.000002389237     0.000003916450
       8       -0.001477097618    -0.001934902891    -0.001467814358
       9       -0.001556372754    -0.002041450107    -0.000739665945
      10        0.001475337547     0.001935875874     0.001356255202
      11        0.000007119087     0.000008490873    -0.000006729610
      12        0.000012258659     0.000011146435    -0.000023793382
      13        0.001557898169     0.002059345777     0.000906764650
      14       -0.000019887122     0.000001007086    -0.000004886607
      15       -0.000002436006    -0.000014367565    -0.000000606656
      16        0.000005433393     0.000009480077    -0.000007541644
      17       -0.000000220791    -0.000001271525    -0.000009082677
      18       -0.000000256952    -0.000002420052     0.000005825882
      19        0.000003810573     0.000002806282     0.000005586678
      20       -0.000001016771    -0.000002906725    -0.000008771353
      21       -0.000000543892    -0.000002917357     0.000000522860
      22       -0.000000908417     0.000000770284     0.000001299083
      23       -0.000001064244     0.000001573681     0.000002096871

  **** Optimization is complete! (in 7 steps) ****
    Final optimized geometry and variables:
    Molecular point group: c1

    Geometry (in Angstrom), charge = 0, multiplicity = 1:

    O           -2.199279346209     2.194568026291     0.484031192999
    C           -2.095081743422     1.010438381640     0.518311207707
    C           -3.268007149577     0.065389599887     0.565914604625
    O           -0.933160203781     0.377329089608     0.519339096320
    H           -3.889177221872     0.237882162715    -0.304849900588
    H           -2.953061612882    -0.967347964030     0.593433548523
    H           -3.862438730251     0.292560607999     1.442769073776
    C            0.247118068433     1.171445432480     0.476813160078
    C            1.455745596120     0.252638618962     0.484972905291
    H            0.230572902961     1.799664623252    -0.404215953879
    H            0.255710820694     1.827295964455     1.337371554447
    C            1.469545156713    -0.786231681904    -0.636635009072
    H            1.533717784278    -0.229291025296     1.456069571914
    H            2.333066605057     0.891323152871     0.398291374039
    C            2.741928796607    -1.635470652041    -0.641132220415
    H            0.602988192373    -1.432640614031    -0.540959291860
    H            1.371772368721    -0.279377057055    -1.595576824441
    C            2.754742082477    -2.680932527789    -1.755640019319
    H            2.845642010191    -2.133040440325     0.320823204484
    H            3.609866607538    -0.987569422232    -0.744520075479
    H            1.917934534843    -3.366797659363    -1.658948736646
    H            3.667705655814    -3.267808031345    -1.733751497928
    H            2.685922723256    -2.212553073435    -2.733403138909

  Mulliken Charges: (a.u.)
   Center  Symbol    Alpha    Beta     Spin     Total
       1     O     4.28352  4.28352  0.00000 -0.56704
       2     C     2.61440  2.61440  0.00000  0.77120
       3     C     3.28770  3.28770  0.00000 -0.57539
       4     O     4.30955  4.30955  0.00000 -0.61910
       5     H     0.39727  0.39727  0.00000  0.20546
       6     H     0.40024  0.40024  0.00000  0.19953
       7     H     0.39728  0.39728  0.00000  0.20544
       8     C     3.00306  3.00306  0.00000 -0.00612
       9     C     3.16772  3.16772  0.00000 -0.33544
      10     H     0.41026  0.41026  0.00000  0.17947
      11     H     0.40836  0.40836  0.00000  0.18328
      12     C     3.15288  3.15288  0.00000 -0.30575
      13     H     0.41517  0.41517  0.00000  0.16966
      14     H     0.41833  0.41833  0.00000  0.16335
      15     C     3.15258  3.15258  0.00000 -0.30516
      16     H     0.41200  0.41200  0.00000  0.17599
      17     H     0.42379  0.42379  0.00000  0.15243
      18     C     3.23928  3.23928  0.00000 -0.47856
      19     H     0.42221  0.42221  0.00000  0.15559
      20     H     0.42318  0.42318  0.00000  0.15364
      21     H     0.42118  0.42118  0.00000  0.15764
      22     H     0.41875  0.41875  0.00000  0.16249
      23     H     0.42130  0.42130  0.00000  0.15739

   Total alpha = 36.00000, Total beta = 36.00000, Total charge = -0.00000
