                              Psi4 1.0.54 Driver

  ==> Input File <==

--------------------------------------------------------------------------
set {
	reference rhf
	basis cc-pvtz
}

set_num_threads( 4 )
memory 2 gb

molecule MOL {
0 1

H	 -3.941973	 0.934228	 -0.390224
C	 -3.240162	 0.342701	 0.161016
C	 -2.105997	 -0.000418	 -0.398703
H	 -3.485368	 0.047206	 1.162193
O	 -1.189946	 -0.765863	 0.237511
H	 -1.846458	 0.297311	 -1.398265
C	 0.026572	 -0.995256	 -0.379403
C	 1.057223	 0.049888	 -0.004615
H	 -0.054361	 -1.010670	 -1.459674
H	 0.397526	 -1.952058	 -0.044198
F	 1.338167	 -0.051379	 1.279089
F	 2.180091	 -0.106066	 -0.672712
F	 0.627473	 1.268095	 -0.227648

	symmetry c1
}
set optking {
	frozen_dihedral = ("
		11 8 7 9
	")
}

ee,wfn = optimize('scf', return_wfn=True)
oeprop( wfn, 'DIPOLE', 'QUADRUPOLE', 'MULLIKEN_CHARGES')
f=open( 'psi4out.xyz', 'w' )
f.write( "13  " )
f.write( str(ee) + "\n" )
f.write( MOL.save_string_xyz() )
f.close()
--------------------------------------------------------------------------

    Molecular point group: c1
  Charge       = 0
  Multiplicity = 1
  Basis Set: CC-PVTZ
  Basis Set:
  @DF-RHF Final Energy:  -527.74130423189547
    Total Energy =                       -527.7413042318954695
    Molecular point group: c1
  Basis Set: CC-PVTZ
  Basis Set:
  Basis Set: CC-PVTZ
  Basis Set:
  @DF-RHF Final Energy:  -527.74176666354560
    Total Energy =                       -527.7417666635457181
  Basis Set: CC-PVTZ
  Basis Set:
  Basis Set: CC-PVTZ
  Basis Set:
  @DF-RHF Final Energy:  -527.74186763729335
    Total Energy =                       -527.7418676372932396
  Basis Set: CC-PVTZ
  Basis Set:
  Basis Set: CC-PVTZ
  Basis Set:
  @DF-RHF Final Energy:  -527.74187789097925
    Total Energy =                       -527.7418778909793673
  Basis Set: CC-PVTZ
  Basis Set:
  Basis Set: CC-PVTZ
  Basis Set:
  @DF-RHF Final Energy:  -527.74187919533347
    Total Energy =                       -527.7418791953334676
  Basis Set: CC-PVTZ
  Basis Set:
  Charge       = 0
  Multiplicity = 1
  Basis Set: CC-PVTZ
  Basis Set:

    Orbital Energies (a.u.)
    -----------------------

    Doubly Occupied:

       1A    -26.341304     2A    -26.341245     3A    -26.338117
       4A    -20.604385     5A    -11.497969     6A    -11.320070
       7A    -11.298785     8A    -11.213893     9A     -1.750556
      10A     -1.647119    11A     -1.645366    12A     -1.444985
      13A     -1.088258    14A     -1.020706    15A     -0.932417
      16A     -0.844117    17A     -0.839727    18A     -0.827369
      19A     -0.797705    20A     -0.729774    21A     -0.719680
      22A     -0.703749    23A     -0.681804    24A     -0.667964
      25A     -0.661783    26A     -0.651006    27A     -0.640518
      28A     -0.587973    29A     -0.566238    30A     -0.529394
      31A     -0.518417    32A     -0.356729

  @DF-RHF Final Energy:  -527.74187973554695

   => Energetics <=

    Nuclear Repulsion Energy =            413.3745970819748550
    One-Electron Energy =               -1550.6147120939799606
    Two-Electron Energy =                 609.4982352764581037
    DFT Exchange-Correlation Energy =       0.0000000000000000
    Empirical Dispersion Energy =           0.0000000000000000
    PCM Polarization Energy =               0.0000000000000000
    EFP Energy =                            0.0000000000000000
    Total Energy =                       -527.7418797355470588
    Molecular point group: c1
  Basis Set: CC-PVTZ
  Basis Set:

  -Total Gradient:
     Atom            X                  Y                   Z
    ------   -----------------  -----------------  -----------------
       1       -0.000011750125    -0.000015939363    -0.000007556539
       2        0.000002627451     0.000007409218     0.000001621384
       3        0.000028187040     0.000104527998     0.000012700621
       4        0.000000498904     0.000004651474     0.000002720935
       5        0.000076276550    -0.000105137769    -0.000048941046
       6       -0.000016131606    -0.000019111914    -0.000000742789
       7       -0.001170068941     0.001148414825     0.000033126965
       8       -0.001167743762     0.000937575440     0.000563301874
       9        0.001194729377    -0.001186085092    -0.000087573299
      10       -0.000009563088     0.000022032946     0.000025859824
      11        0.001012984036    -0.000946736024    -0.000454370214
      12        0.000124602722    -0.000038355534    -0.000035710422
      13       -0.000064648553     0.000086753798    -0.000004437292

  **** Optimization is complete! (in 6 steps) ****
    Final optimized geometry and variables:
    Molecular point group: c1

    Geometry (in Angstrom), charge = 0, multiplicity = 1:

    H           -3.950927824789     0.919885404320    -0.409677736263
    C           -3.251671827267     0.328268611974     0.144718393806
    C           -2.107141613958     0.000855005832    -0.403193433699
    H           -3.507660125308     0.020344869736     1.139446764577
    O           -1.192475213046    -0.762271913821     0.237910020853
    H           -1.837174523186     0.310906431218    -1.396168530911
    C            0.025396769140    -0.991570000386    -0.374395706796
    C            1.057778854376     0.053219699017    -0.001061395237
    H           -0.045633975327    -1.021593401968    -1.455089075757
    H            0.397569236059    -1.945494275637    -0.031634317227
    F            1.361042447518     0.011186972684     1.274345831142
    F            2.166214538839    -0.165822643310    -0.681301963970
    F            0.651778748507     1.272233422109    -0.278711851301

  Mulliken Charges: (a.u.)
   Center  Symbol    Alpha    Beta     Spin     Total
       1     H     0.42517  0.42517  0.00000  0.14967
       2     C     3.19742  3.19742  0.00000 -0.39484
       3     C     2.95797  2.95797  0.00000  0.08406
       4     H     0.42483  0.42483  0.00000  0.15034
       5     O     4.14450  4.14450  0.00000 -0.28901
       6     H     0.43455  0.43455  0.00000  0.13091
       7     C     3.02061  3.02061  0.00000 -0.04123
       8     C     2.67469  2.67469  0.00000  0.65062
       9     H     0.45518  0.45518  0.00000  0.08965
      10     H     0.43551  0.43551  0.00000  0.12897
      11     F     4.60731  4.60731  0.00000 -0.21462
      12     F     4.61316  4.61316  0.00000 -0.22631
      13     F     4.60910  4.60910  0.00000 -0.21821

   Total alpha = 32.00000, Total beta = 32.00000, Total charge =  0.00000

*** Psi4 exiting successfully. Buy a developer a beer!
