  ==> Input File <==

--------------------------------------------------------------------------
set {
	reference rhf
	basis 6-31G*
}

set_num_threads( 4 )
memory 2 gb

molecule MOL {
0 1

O	 0.391030	 1.298905	 0.000133
C	 0.503002	 0.111612	 0.000005
C	 -0.702327	 -0.811998	 -0.000075
C	 1.863306	 -0.554493	 0.000030
C	 -1.381894	 -0.928878	 -1.359001
H	 -0.375240	 -1.787863	 0.354146
H	 -1.400819	 -0.449513	 0.751908
H	 -0.695998	 -1.312994	 -2.104132
H	 -2.233180	 -1.598958	 -1.299318
H	 -1.730671	 0.037221	 -1.702843
H	 1.974395	 -1.189404	 -0.874166
H	 2.638695	 0.198920	 -0.000196
H	 1.974487	 -1.188655	 0.874727

	symmetry c1
}
set optking {
	frozen_dihedral = ("
		6 3 2 1
	")
}

ee = optimize('scf')
oeprop('DIPOLE', 'QUADRUPOLE', 'MULLIKEN_CHARGES')
f=open( 'psi4out.xyz', 'w' )
f.write( "13  " )
f.write( str(ee) + "\n" )
f.write( MOL.save_string_xyz() )
f.close()
--------------------------------------------------------------------------

    Molecular point group: c1
  Charge       = 0
  Multiplicity = 1
  Basis Set: 6-31G*
  Basis Set:
  @DF-RHF Final Energy:  -230.99450459188810
    Total Energy =                       -230.9945045918883011
    Molecular point group: c1
  Basis Set: 6-31G*
  Basis Set:
  Basis Set: 6-31G*
  Basis Set:
  @DF-RHF Final Energy:  -230.99511765924549
    Total Energy =                       -230.9951176592454090
  Basis Set: 6-31G*
  Basis Set:
  Basis Set: 6-31G*
  Basis Set:
  @DF-RHF Final Energy:  -230.99532445894479
    Total Energy =                       -230.9953244589448218
  Basis Set: 6-31G*
  Basis Set:
  Basis Set: 6-31G*
  Basis Set:
  @DF-RHF Final Energy:  -230.99539062161773
    Total Energy =                       -230.9953906216178723
  Basis Set: 6-31G*
  Basis Set:
  Basis Set: 6-31G*
  Basis Set:
  @DF-RHF Final Energy:  -230.99540778885310
    Total Energy =                       -230.9954077888531856
  Basis Set: 6-31G*
  Basis Set:
  Basis Set: 6-31G*
  Basis Set:
  @DF-RHF Final Energy:  -230.99541294763327
    Total Energy =                       -230.9954129476332128
  Basis Set: 6-31G*
  Basis Set:
  Charge       = 0
  Multiplicity = 1
  Basis Set: 6-31G*
  Basis Set:

    Orbital Energies (a.u.)
    -----------------------

    Doubly Occupied:

       1A    -20.548718     2A    -11.325829     3A    -11.232984
       4A    -11.229379     5A    -11.227139     6A     -1.394612
       7A     -1.064691     8A     -0.998473     9A     -0.882119
      10A     -0.733640    11A     -0.655451    12A     -0.646214
      13A     -0.608260    14A     -0.591077    15A     -0.568183
      16A     -0.538779    17A     -0.527059    18A     -0.502577
      19A     -0.479657    20A     -0.399754

  @DF-RHF Final Energy:  -230.99541332634405

   => Energetics <=

    Nuclear Repulsion Energy =            176.9672201883320497
    One-Electron Energy =                -663.6160776916777877
    Two-Electron Energy =                 255.6534441770016883
    DFT Exchange-Correlation Energy =       0.0000000000000000
    Empirical Dispersion Energy =           0.0000000000000000
    PCM Polarization Energy =               0.0000000000000000
    EFP Energy =                            0.0000000000000000
    Total Energy =                       -230.9954133263440781
    Molecular point group: c1
  Basis Set: 6-31G*
  Basis Set:

  -Total Gradient:
     Atom            X                  Y                   Z
    ------   -----------------  -----------------  -----------------
       1        0.000032423067     0.000027341156    -0.000058394849
       2       -0.000022501822     0.000009972820     0.000062583950
       3        0.000013842954    -0.000028633057     0.000025119896
       4       -0.000004636485     0.000014226449     0.000032466061
       5       -0.000028708315     0.000007373797     0.000019125417
       6        0.000000985763    -0.000052005461    -0.000043341157
       7        0.000009834160     0.000012897302    -0.000016707787
       8        0.000004612703     0.000002141712     0.000013100552
       9        0.000005334974     0.000003064285    -0.000008026605
      10       -0.000005416460     0.000002664446    -0.000001555457
      11        0.000000349902    -0.000008116038    -0.000009872489
      12        0.000002841268    -0.000000016537    -0.000002074596
      13       -0.000008961709     0.000009089128    -0.000012422938

  **** Optimization is complete! (in 7 steps) ****
    Final optimized geometry and variables:
    Molecular point group: c1

    Geometry (in Angstrom), charge = 0, multiplicity = 1:

    O            0.218385959761     1.459097396008     0.314844454323
    C            0.361791969285     0.274693791299     0.297036748569
    C           -0.840954620702    -0.654199284140     0.300772315857
    C            1.733389087823    -0.359930793885     0.243407610859
    C           -1.475843148006    -0.725374181987    -1.094521697051
    H           -0.555846104432    -1.648198436023     0.631115545842
    H           -1.560539726250    -0.256497121067     1.007228463107
    H           -0.781938452170    -1.124669142081    -1.828307100079
    H           -2.349180860315    -1.367938939427    -1.081419189526
    H           -1.782159915554     0.261382836122    -1.420415949972
    H            1.793916428368    -1.074131490059    -0.572848300649
    H            2.489597366233     0.402813100639     0.120829320615
    H            1.918959822392    -0.908448018595     1.163066742466

  Mulliken Charges: (a.u.)
   Center  Symbol    Alpha    Beta     Spin     Total
       1     O     4.26146  4.26146  0.00000 -0.52293
       2     C     2.73805  2.73805  0.00000  0.52390
       3     C     3.19916  3.19916  0.00000 -0.39831
       4     C     3.28955  3.28955  0.00000 -0.57909
       5     C     3.24739  3.24739  0.00000 -0.49478
       6     H     0.41627  0.41627  0.00000  0.16745
       7     H     0.40011  0.40011  0.00000  0.19978
       8     H     0.41866  0.41866  0.00000  0.16268
       9     H     0.41237  0.41237  0.00000  0.17525
      10     H     0.40383  0.40383  0.00000  0.19234
      11     H     0.40963  0.40963  0.00000  0.18074
      12     H     0.39677  0.39677  0.00000  0.20645
      13     H     0.40674  0.40674  0.00000  0.18652

   Total alpha = 20.00000, Total beta = 20.00000, Total charge =  0.00000
