                              Psi4 1.0.54 Driver

  ==> Input File <==

--------------------------------------------------------------------------
set {
	reference rhf
	basis cc-pvtz
}

set_num_threads( 4 )
memory 2 gb

molecule MOL {
0 1

O	 0.074770	 1.259872	 0.000487
C	 0.029490	 0.077183	 0.000078
C	 -1.232113	 -0.748027	 0.000015
O	 1.106773	 -0.690081	 -0.000204
C	 -2.501422	 0.088592	 -0.000052
H	 -1.188777	 -1.400384	 -0.865133
H	 -1.188857	 -1.400312	 0.865225
H	 -2.548170	 0.725504	 -0.873205
H	 -3.371613	 -0.556398	 -0.000040
H	 -2.548215	 0.725571	 0.873047
C	 1.508949	 -1.244399	 1.236173
H	 1.737235	 -0.464452	 1.947373
H	 2.390876	 -1.828106	 1.028046
H	 0.731725	 -1.874864	 1.641983

	symmetry c1
}
set optking {
	frozen_dihedral = ("
		11 4 2 3
	")
}

ee,wfn = optimize('scf', return_wfn=True)
oeprop( wfn, 'DIPOLE', 'QUADRUPOLE', 'MULLIKEN_CHARGES')
f=open( 'psi4out.xyz', 'w' )
f.write( "14  " )
f.write( str(ee) + "\n" )
f.write( MOL.save_string_xyz() )
f.close()
--------------------------------------------------------------------------

    Molecular point group: c1
  Charge       = 0
  Multiplicity = 1
  Basis Set: CC-PVTZ
  Basis Set:
  @DF-RHF Final Energy:  -305.96548211448800
    Total Energy =                       -305.9654821144882817
    Molecular point group: c1
  Basis Set: CC-PVTZ
  Basis Set:
  Basis Set: CC-PVTZ
  Basis Set:
  @DF-RHF Final Energy:  -305.96658749343743
    Total Energy =                       -305.9665874934374870
  Basis Set: CC-PVTZ
  Basis Set:
  Basis Set: CC-PVTZ
  Basis Set:
  @DF-RHF Final Energy:  -305.96734062820462
    Total Energy =                       -305.9673406282044539
  Basis Set: CC-PVTZ
  Basis Set:
  Basis Set: CC-PVTZ
  Basis Set:
  @DF-RHF Final Energy:  -305.96742243724248
    Total Energy =                       -305.9674224372422486
  Basis Set: CC-PVTZ
  Basis Set:
  Basis Set: CC-PVTZ
  Basis Set:
  @DF-RHF Final Energy:  -305.96742047389114
    Total Energy =                       -305.9674204738910817
  Basis Set: CC-PVTZ
  Basis Set:
  Basis Set: CC-PVTZ
  Basis Set:
  @DF-RHF Final Energy:  -305.96743695153862
    Total Energy =                       -305.9674369515385024
  Basis Set: CC-PVTZ
  Basis Set:
  Charge       = 0
  Multiplicity = 1
  Basis Set: CC-PVTZ
  Basis Set:

    Orbital Energies (a.u.)
    -----------------------

    Doubly Occupied:

       1A    -20.579529     2A    -20.545762     3A    -11.368485
       4A    -11.290961     5A    -11.242671     6A    -11.218495
       7A     -1.462309     8A     -1.371110     9A     -1.063851
      10A     -0.977843    11A     -0.894925    12A     -0.767883
      13A     -0.703229    14A     -0.680685    15A     -0.675482
      16A     -0.628128    17A     -0.614673    18A     -0.558010
      19A     -0.547658    20A     -0.526537    21A     -0.511899
      22A     -0.492832    23A     -0.460303    24A     -0.440025

  @DF-RHF Final Energy:  -305.96743713897524

   => Energetics <=

    Nuclear Repulsion Energy =            247.0901548000105379
    One-Electron Energy =                -906.8686120153763568
    Two-Electron Energy =                 353.8110200763906050
    DFT Exchange-Correlation Energy =       0.0000000000000000
    Empirical Dispersion Energy =           0.0000000000000000
    PCM Polarization Energy =               0.0000000000000000
    EFP Energy =                            0.0000000000000000
    Total Energy =                       -305.9674371389752423
    Molecular point group: c1
  Basis Set: CC-PVTZ
  Basis Set:

  -Total Gradient:
     Atom            X                  Y                   Z
    ------   -----------------  -----------------  -----------------
       1       -0.000010996446     0.000010917720     0.000018135090
       2       -0.000167280190    -0.000280679049    -0.000990779216
       3        0.000009366925     0.000000685166     0.000579965258
       4        0.000557463563     0.000833431966     0.000498493588
       5       -0.000007168135     0.000002138132     0.000016025472
       6       -0.000003484999    -0.000002733739     0.000013921189
       7        0.000004234360     0.000003295444     0.000021565743
       8       -0.000000735730     0.000002369634    -0.000005268792
       9       -0.000000489656     0.000000192994    -0.000002760795
      10        0.000002673694    -0.000002634644    -0.000003876844
      11       -0.000387122189    -0.000560911848    -0.000154724360
      12       -0.000003362270     0.000005822955    -0.000004345749
      13        0.000011557775    -0.000006455647     0.000006829746
      14       -0.000004656701    -0.000005439080     0.000006819669

  **** Optimization is complete! (in 7 steps) ****
    Final optimized geometry and variables:
    Molecular point group: c1

    Geometry (in Angstrom), charge = 0, multiplicity = 1:

    O            0.233008320753     1.443754288447    -0.261591572372
    C            0.167052339740     0.271285061812    -0.206374071158
    C           -1.121132304074    -0.514544620625    -0.213977119179
    O            1.282922672372    -0.488290078846    -0.194917835990
    C           -2.367391129302     0.355858629990    -0.243298792867
    H           -1.077462537423    -1.171789293313    -1.076313302738
    H           -1.125779225249    -1.167126604570     0.652282923562
    H           -2.377220909408     0.988741765908    -1.120091394386
    H           -3.255377429456    -0.264258468157    -0.257578707621
    H           -2.413691121862     0.998936103108     0.625590410011
    C            1.701292837947    -1.036339469629     1.032851012411
    H            1.867819954889    -0.254424102498     1.763674117787
    H            2.631365254419    -1.546360888671     0.841732135669
    H            0.982605996712    -1.748810208894     1.419826004508

  Mulliken Charges: (a.u.)
   Center  Symbol    Alpha    Beta     Spin     Total
       1     O     4.16676  4.16676  0.00000 -0.33353
       2     C     2.79156  2.79156  0.00000  0.41689
       3     C     3.10908  3.10908  0.00000 -0.21815
       4     O     4.16382  4.16382  0.00000 -0.32764
       5     C     3.13887  3.13887  0.00000 -0.27773
       6     H     0.43898  0.43898  0.00000  0.12205
       7     H     0.44670  0.44670  0.00000  0.10659
       8     H     0.44520  0.44520  0.00000  0.10960
       9     H     0.45067  0.45067  0.00000  0.09865
      10     H     0.44901  0.44901  0.00000  0.10198
      11     C     3.03634  3.03634  0.00000 -0.07267
      12     H     0.45729  0.45729  0.00000  0.08542
      13     H     0.44067  0.44067  0.00000  0.11867
      14     H     0.46506  0.46506  0.00000  0.06987

   Total alpha = 24.00000, Total beta = 24.00000, Total charge = -0.00000

*** Psi4 exiting successfully. Buy a developer a beer!
