                              Psi4 1.0.54 Driver

  ==> Input File <==

--------------------------------------------------------------------------
set {
	reference rhf
	basis cc-pvtz
}

set_num_threads( 4 )
memory 2 gb

molecule MOL {
0 1

O	 1.805595	 1.367427	 0.277104
C	 1.582179	 0.331199	 0.803750
C	 0.261490	 -0.394741	 0.783018
O	 2.488279	 -0.339560	 1.496197
C	 -0.824290	 0.329213	 -0.000115
H	 0.445622	 -1.384053	 0.377053
H	 -0.035437	 -0.549996	 1.815090
C	 -2.146151	 -0.432825	 -0.000068
H	 -0.487760	 0.482736	 -1.019159
H	 -0.969194	 1.317879	 0.420399
C	 -3.366283	 0.483552	 0.000557
H	 -2.189286	 -1.084450	 -0.869996
H	 -2.188867	 -1.085083	 0.869399
C	 -4.687436	 -0.278003	 0.000108
H	 -3.325150	 1.134819	 -0.867957
H	 -3.325087	 1.133730	 0.869885
H	 -4.773783	 -0.912098	 -0.876078
H	 -5.531922	 0.401392	 0.000363
H	 -4.773901	 -0.912898	 0.875703
C	 3.778363	 0.228429	 1.598165
H	 4.222078	 0.344867	 0.620529
H	 4.359895	 -0.458412	 2.191390
H	 3.733180	 1.192962	 2.081745

	symmetry c1
}
set optking {
	frozen_dihedral = ("
		9 5 8 12
	")
}

ee,wfn = optimize('scf', return_wfn=True)
oeprop( wfn, 'DIPOLE', 'QUADRUPOLE', 'MULLIKEN_CHARGES')
f=open( 'psi4out.xyz', 'w' )
f.write( "23  " )
f.write( str(ee) + "\n" )
f.write( MOL.save_string_xyz() )
f.close()
--------------------------------------------------------------------------

    Molecular point group: c1
  Charge       = 0
  Multiplicity = 1
  Basis Set: CC-PVTZ
  Basis Set:
  @DF-RHF Final Energy:  -423.12763687441026
    Total Energy =                       -423.1276368744103138
    Molecular point group: c1
  Basis Set: CC-PVTZ
  Basis Set:
  Basis Set: CC-PVTZ
  Basis Set:
  @DF-RHF Final Energy:  -423.12789118724385
    Total Energy =                       -423.1278911872436765
  Basis Set: CC-PVTZ
  Basis Set:
  Basis Set: CC-PVTZ
  Basis Set:
  @DF-RHF Final Energy:  -423.12771500139286
    Total Energy =                       -423.1277150013921755
  Basis Set: CC-PVTZ
  Basis Set:
  Basis Set: CC-PVTZ
  Basis Set:
  @DF-RHF Final Energy:  -423.12799215893102
    Total Energy =                       -423.1279921589308515
  Basis Set: CC-PVTZ
  Basis Set:
  Basis Set: CC-PVTZ
  Basis Set:
  @DF-RHF Final Energy:  -423.12799356487358
    Total Energy =                       -423.1279935648735773
  Basis Set: CC-PVTZ
  Basis Set:
  Charge       = 0
  Multiplicity = 1
  Basis Set: CC-PVTZ
  Basis Set:

    Orbital Energies (a.u.)
    -----------------------

    Doubly Occupied:

       1A    -20.596181     2A    -20.534061     3A    -11.364282
       4A    -11.278403     5A    -11.233739     6A    -11.217244
       7A    -11.215793     8A    -11.214709     9A    -11.207688
      10A     -1.472046    11A     -1.365633    12A     -1.093354
      13A     -1.044608    14A     -0.987513    15A     -0.932212
      16A     -0.844544    17A     -0.795374    18A     -0.769179
      19A     -0.700342    20A     -0.686200    21A     -0.675561
      22A     -0.648656    23A     -0.613411    24A     -0.600640
      25A     -0.572820    26A     -0.560475    27A     -0.556571
      28A     -0.527307    29A     -0.523049    30A     -0.504716
      31A     -0.488022    32A     -0.470383    33A     -0.465997
      34A     -0.462215    35A     -0.457249    36A     -0.437761

  @DF-RHF Final Energy:  -423.12799403941034

   => Energetics <=

    Nuclear Repulsion Energy =            452.9849888872003589
    One-Electron Energy =               -1473.9900886873397212
    Two-Electron Energy =                 597.8771057607287958
    DFT Exchange-Correlation Energy =       0.0000000000000000
    Empirical Dispersion Energy =           0.0000000000000000
    PCM Polarization Energy =               0.0000000000000000
    EFP Energy =                            0.0000000000000000
    Total Energy =                       -423.1279940394105097
    Molecular point group: c1
  Basis Set: CC-PVTZ
  Basis Set:

  -Total Gradient:
     Atom            X                  Y                   Z
    ------   -----------------  -----------------  -----------------
       1       -0.000007135424     0.000013376640    -0.000005375368
       2        0.000017953588     0.000006392592     0.000012828694
       3        0.000007167008     0.000011858700    -0.000034338045
       4       -0.000003198669    -0.000020927197     0.000001886594
       5       -0.003172426220     0.005342501318    -0.000715584020
       6       -0.000006075145    -0.000003461824     0.000006569343
       7       -0.000004350387     0.000003772184     0.000005249194
       8        0.002823660732    -0.004747826616     0.002865530513
       9        0.002219618071    -0.003725877752     0.000170408307
      10        0.000004487581    -0.000008841731     0.000001982144
      11        0.000018129627    -0.000016980626    -0.000020145523
      12       -0.001869014708     0.003139950371    -0.002290949440
      13        0.000000564784     0.000004947226    -0.000006471584
      14       -0.000042818149    -0.000005788230     0.000008802763
      15        0.000006994530     0.000005545453    -0.000007220939
      16        0.000015695590     0.000007990689     0.000002554447
      17       -0.000002764255    -0.000001929955    -0.000002409473
      18       -0.000012704212    -0.000005098602     0.000003533562
      19       -0.000007286137    -0.000006570329     0.000000790783
      20        0.000010465197     0.000008559485     0.000001534887
      21        0.000001360106     0.000001096990     0.000000310614
      22       -0.000000223661    -0.000002362320     0.000001373567
      23        0.000001900150    -0.000000326464    -0.000000861021

  **** Optimization is complete! (in 6 steps) ****
    Final optimized geometry and variables:
    Molecular point group: c1

    Geometry (in Angstrom), charge = 0, multiplicity = 1:

    O            1.894117431291     1.217526988880    -0.302587820268
    C            1.676642276133     0.186848283166     0.237518655240
    C            0.348072831375    -0.524458867463     0.263640618488
    O            2.597269677986    -0.488987855269     0.905606111216
    C           -0.757811045763     0.209536381107    -0.485674573633
    H            0.506946302510    -1.516888750847    -0.146117360250
    H            0.084696624568    -0.674379661941     1.305410393660
    C           -2.075257113352    -0.577409087616    -0.490187911046
    H           -0.419670727427     0.366676905830    -1.502248258388
    H           -0.898476869537     1.187476454936    -0.042543058642
    C           -3.306263586596     0.326215591201    -0.548284461509
    H           -2.101692112637    -1.228889923430    -1.358996016920
    H           -2.143429353825    -1.211836047276     0.388858723901
    C           -4.616805298688    -0.449179038983    -0.625487618355
    H           -3.224880610681     0.985213160676    -1.408478071649
    H           -3.318254248315     0.970045972279     0.326748793837
    H           -4.652491981445    -1.071241630001    -1.513724606847
    H           -5.468296984582     0.220733734515    -0.657315441942
    H           -4.739073778073    -1.098166680029     0.235591648640
    C            3.895507853633     0.066297302876     0.963621980729
    H            4.309721742566     0.172227895853    -0.028073555857
    H            4.488412066402    -0.622833034908     1.542812915719
    H            3.875317705366     1.034199628511     1.442167054469

  Mulliken Charges: (a.u.)
   Center  Symbol    Alpha    Beta     Spin     Total
       1     O     4.19693  4.19693  0.00000 -0.39386
       2     C     2.80804  2.80804  0.00000  0.38391
       3     C     3.10081  3.10081  0.00000 -0.20162
       4     O     4.14674  4.14674  0.00000 -0.29347
       5     C     3.08592  3.08592  0.00000 -0.17184
       6     H     0.43900  0.43900  0.00000  0.12200
       7     H     0.44041  0.44041  0.00000  0.11918
       8     C     3.09064  3.09064  0.00000 -0.18128
       9     H     0.44480  0.44480  0.00000  0.11040
      10     H     0.44626  0.44626  0.00000  0.10748
      11     C     3.08415  3.08415  0.00000 -0.16829
      12     H     0.45325  0.45325  0.00000  0.09350
      13     H     0.45589  0.45589  0.00000  0.08823
      14     C     3.15036  3.15036  0.00000 -0.30071
      15     H     0.45198  0.45198  0.00000  0.09603
      16     H     0.45453  0.45453  0.00000  0.09094
      17     H     0.45508  0.45508  0.00000  0.08983
      18     H     0.44787  0.44787  0.00000  0.10426
      19     H     0.45552  0.45552  0.00000  0.08896
      20     C     3.03778  3.03778  0.00000 -0.07557
      21     H     0.45435  0.45435  0.00000  0.09131
      22     H     0.44532  0.44532  0.00000  0.10936
      23     H     0.45438  0.45438  0.00000  0.09124

   Total alpha = 36.00000, Total beta = 36.00000, Total charge =  0.00000

*** Psi4 exiting successfully. Buy a developer a beer!
