  ==> Input File <==

--------------------------------------------------------------------------
set {
	reference rhf
	basis 6-31G*
}

set_num_threads( 4 )
memory 2 gb

molecule MOL {
0 1

H	 -2.597945	 1.814216	 1.663995
O	 -1.907501	 1.227140	 1.390987
C	 -2.306886	 0.532354	 0.237577
C	 -1.177863	 -0.397191	 -0.171080
H	 -3.211749	 -0.042341	 0.430592
H	 -2.528509	 1.227612	 -0.571027
C	 0.198102	 0.111031	 0.262842
H	 -1.208843	 -0.518759	 -1.250427
H	 -1.368741	 -1.376554	 0.258909
C	 1.331804	 -0.827780	 -0.158768
H	 0.361943	 1.100838	 -0.156218
H	 0.217265	 0.229072	 1.345532
C	 2.723619	 -0.410569	 0.329459
H	 1.342964	 -0.912588	 -1.244120
H	 1.116806	 -1.824343	 0.220779
C	 3.243875	 0.895854	 -0.272975
H	 3.424222	 -1.207124	 0.091250
H	 2.714788	 -0.329854	 1.414619
H	 3.251977	 0.848779	 -1.358681
H	 2.637085	 1.747371	 0.016682
H	 4.259473	 1.094070	 0.055697

	symmetry c1
}
set optking {
	frozen_dihedral = ("
		2 3 4 8
	")
}

ee = optimize('scf')
oeprop('DIPOLE', 'QUADRUPOLE', 'MULLIKEN_CHARGES')
f=open( 'psi4out.xyz', 'w' )
f.write( "21  " )
f.write( str(ee) + "\n" )
f.write( MOL.save_string_xyz() )
f.close()
--------------------------------------------------------------------------

    Molecular point group: c1
  Charge       = 0
  Multiplicity = 1
  Basis Set: 6-31G*
  Basis Set:
  @DF-RHF Final Energy:  -310.20682509117427
    Total Energy =                       -310.2068250911742098
    Molecular point group: c1
  Basis Set: 6-31G*
  Basis Set:
  Basis Set: 6-31G*
  Basis Set:
  @DF-RHF Final Energy:  -310.20747315395175
    Total Energy =                       -310.2074731539516961
  Basis Set: 6-31G*
  Basis Set:
  Basis Set: 6-31G*
  Basis Set:
  @DF-RHF Final Energy:  -310.20820189921858
    Total Energy =                       -310.2082018992186931
  Basis Set: 6-31G*
  Basis Set:
  Basis Set: 6-31G*
  Basis Set:
  @DF-RHF Final Energy:  -310.20822497484261
    Total Energy =                       -310.2082249748426079
  Basis Set: 6-31G*
  Basis Set:
  Basis Set: 6-31G*
  Basis Set:
  @DF-RHF Final Energy:  -310.20823206372904
    Total Energy =                       -310.2082320637290422
  Basis Set: 6-31G*
  Basis Set:
  Basis Set: 6-31G*
  Basis Set:
  @DF-RHF Final Energy:  -310.20823423073335
    Total Energy =                       -310.2082342307338649
  Basis Set: 6-31G*
  Basis Set:
  Charge       = 0
  Multiplicity = 1
  Basis Set: 6-31G*
  Basis Set:

    Orbital Energies (a.u.)
    -----------------------

    Doubly Occupied:

       1A    -20.552856     2A    -11.268729     3A    -11.212799
       4A    -11.209351     5A    -11.206964     6A    -11.202832
       7A    -11.202715     8A     -1.359804     9A     -1.078386
      10A     -1.026981    11A     -0.951225    12A     -0.874721
      13A     -0.799708    14A     -0.771162    15A     -0.697796
      16A     -0.654390    17A     -0.615878    18A     -0.603191
      19A     -0.583334    20A     -0.564978    21A     -0.530609
      22A     -0.523430    23A     -0.497921    24A     -0.491080
      25A     -0.478340    26A     -0.454573    27A     -0.450077
      28A     -0.434656    29A     -0.427474

  @DF-RHF Final Energy:  -310.20823429829414

   => Energetics <=

    Nuclear Repulsion Energy =            318.2164326784033506
    One-Electron Energy =               -1051.3974127904662055
    Two-Electron Energy =                 422.9727458137682561
    DFT Exchange-Correlation Energy =       0.0000000000000000
    Empirical Dispersion Energy =           0.0000000000000000
    PCM Polarization Energy =               0.0000000000000000
    EFP Energy =                            0.0000000000000000
    Total Energy =                       -310.2082342982945420
    Molecular point group: c1
  Basis Set: 6-31G*
  Basis Set:

  -Total Gradient:
     Atom            X                  Y                   Z
    ------   -----------------  -----------------  -----------------
       1        0.000002764036    -0.000006131913    -0.000010904115
       2        0.002154252864     0.003592442328    -0.002780569105
       3       -0.001987262519    -0.003636134215     0.003585186916
       4       -0.004157971190    -0.004909812036    -0.000229669048
       5        0.000000128424    -0.000009598092    -0.000014551625
       6        0.000000386258    -0.000009139138    -0.000009079240
       7        0.000004874462    -0.000011942063     0.000010492754
       8        0.003981805074     0.004982168574    -0.000529312799
       9       -0.000005834414    -0.000008239825    -0.000001565120
      10       -0.000002646319     0.000017853162    -0.000025384685
      11        0.000000747739    -0.000014693857    -0.000001297060
      12        0.000003323780     0.000004016071    -0.000003909129
      13       -0.000006768646     0.000006658005     0.000017106521
      14        0.000001948589    -0.000004064795    -0.000009344499
      15       -0.000007783005     0.000008003769     0.000001202397
      16        0.000006164252    -0.000000437356    -0.000001903931
      17       -0.000003311365     0.000001084911     0.000001987204
      18        0.000005568330     0.000001356532     0.000005106402
      19        0.000000534698     0.000002207740    -0.000002181991
      20        0.000009609892    -0.000004723512    -0.000000378542
      21       -0.000000530948    -0.000000874295    -0.000001031305

  **** Optimization is complete! (in 7 steps) ****
    Final optimized geometry and variables:
    Molecular point group: c1

    Geometry (in Angstrom), charge = 0, multiplicity = 1:

    H           -2.980261668552     1.633122299514     1.355066934334
    O           -2.252709395003     1.067828199175     1.138469548091
    C           -2.559799066230     0.341086655925    -0.024709340272
    C           -1.413748655086    -0.614800423401    -0.370218966004
    H           -3.485421612011    -0.216390113223     0.100398249743
    H           -2.709142869953     1.033719163686    -0.851495230969
    C           -0.029674971647    -0.097793362191     0.039363910115
    H           -1.403025274814    -0.739352039479    -1.450500578611
    H           -1.584045614058    -1.589009888032     0.078185143550
    C            1.089831552891    -1.031371138564    -0.429360964141
    H            0.113016372919     0.896410168784    -0.374343157664
    H            0.013021824899     0.011994399471     1.116977090226
    C            2.492617812825    -0.628832456093     0.040183815096
    H            1.082081962763    -1.094487943865    -1.516966942769
    H            0.882219685679    -2.036722835626    -0.067253630094
    C            3.000893362511     0.692665134213    -0.539046747658
    H            3.187988128580    -1.419331717375    -0.232246646197
    H            2.505058910299    -0.574839940941     1.126762362548
    H            2.986858903879     0.673398062794    -1.625743385581
    H            2.399503714170     1.535239039672    -0.214897289903
    H            4.023233142562     0.882829360998    -0.226433544540

  Mulliken Charges: (a.u.)
   Center  Symbol    Alpha    Beta     Spin     Total
       1     H     0.28049  0.28049  0.00000  0.43901
       2     O     4.37019  4.37019  0.00000 -0.74039
       3     C     2.99320  2.99320  0.00000  0.01361
       4     C     3.16898  3.16898  0.00000 -0.33797
       5     H     0.42919  0.42919  0.00000  0.14161
       6     H     0.43205  0.43205  0.00000  0.13589
       7     C     3.14949  3.14949  0.00000 -0.29899
       8     H     0.42234  0.42234  0.00000  0.15533
       9     H     0.41868  0.41868  0.00000  0.16263
      10     C     3.15377  3.15377  0.00000 -0.30754
      11     H     0.42092  0.42092  0.00000  0.15816
      12     H     0.40907  0.40907  0.00000  0.18185
      13     C     3.15142  3.15142  0.00000 -0.30283
      14     H     0.42708  0.42708  0.00000  0.14583
      15     H     0.42397  0.42397  0.00000  0.15207
      16     C     3.24122  3.24122  0.00000 -0.48243
      17     H     0.42270  0.42270  0.00000  0.15460
      18     H     0.42271  0.42271  0.00000  0.15458
      19     H     0.42370  0.42370  0.00000  0.15260
      20     H     0.41836  0.41836  0.00000  0.16329
      21     H     0.42045  0.42045  0.00000  0.15910

   Total alpha = 29.00000, Total beta = 29.00000, Total charge =  0.00000
