  ==> Input File <==

--------------------------------------------------------------------------
set {
	reference rhf
	basis cc-pvtz
}

set_num_threads( 4 )
memory 2 gb

molecule MOL {
0 1

H	 3.273419	 0.176595	 -0.102789
N	 2.433987	 -0.362316	 -0.080024
C	 1.263552	 0.494993	 0.021953
H	 2.497638	 -0.973615	 0.707122
C	 -0.016533	 -0.325589	 -0.026925
H	 1.280915	 1.180773	 -0.818522
H	 1.263064	 1.106893	 0.925038
C	 -1.280353	 0.525521	 0.047747
H	 -0.016686	 -0.912532	 -0.939714
H	 -0.014099	 -1.037598	 0.796369
C	 -1.837552	 0.888017	 -1.324885
H	 -1.067174	 1.436760	 0.600163
H	 -2.041123	 -0.003335	 0.615563
H	 -1.112111	 1.447622	 -1.905665
H	 -2.731468	 1.494970	 -1.238440
H	 -2.095318	 -0.001712	 -1.889792

	symmetry c1
}
set optking {
	frozen_dihedral = ("
		12 8 5 9
	")
}

ee = optimize('scf')
oeprop('DIPOLE', 'QUADRUPOLE', 'MULLIKEN_CHARGES')
f=open( 'psi4out.xyz', 'w' )
f.write( "16  " )
f.write( str(ee) + "\n" )
f.write( MOL.save_string_xyz() )
f.close()
--------------------------------------------------------------------------

    Molecular point group: c1
  Charge       = 0
  Multiplicity = 1
  Basis Set: CC-PVTZ
  Basis Set:
  @DF-RHF Final Energy:  -212.39662653548490
    Total Energy =                       -212.3966265354847565
    Molecular point group: c1
  Basis Set: CC-PVTZ
  Basis Set:
  Basis Set: CC-PVTZ
  Basis Set:
  @DF-RHF Final Energy:  -212.39688218632176
    Total Energy =                       -212.3968821863217613
  Basis Set: CC-PVTZ
  Basis Set:
  Basis Set: CC-PVTZ
  Basis Set:
  @DF-RHF Final Energy:  -212.39693193945308
    Total Energy =                       -212.3969319394532249
  Basis Set: CC-PVTZ
  Basis Set:
  Charge       = 0
  Multiplicity = 1
  Basis Set: CC-PVTZ
  Basis Set:

    Orbital Energies (a.u.)
    -----------------------

    Doubly Occupied:

       1A    -15.526597     2A    -11.238234     3A    -11.212976
       4A    -11.207923     5A    -11.205313     6A     -1.178465
       7A     -1.059071     8A     -0.956912     9A     -0.851194
      10A     -0.786987    11A     -0.663773    12A     -0.626273
      13A     -0.619545    14A     -0.589613    15A     -0.548907
      16A     -0.523952    17A     -0.511075    18A     -0.469355
      19A     -0.464830    20A     -0.455556    21A     -0.384241

  @DF-RHF Final Energy:  -212.39693268021480

   => Energetics <=

    Nuclear Repulsion Energy =            188.2208019989074330
    One-Electron Energy =                -659.0738865812033964
    Two-Electron Energy =                 258.4561519020811602
    DFT Exchange-Correlation Energy =       0.0000000000000000
    Empirical Dispersion Energy =           0.0000000000000000
    PCM Polarization Energy =               0.0000000000000000
    EFP Energy =                            0.0000000000000000
    Total Energy =                       -212.3969326802148316
    Molecular point group: c1
  Basis Set: CC-PVTZ
  Basis Set:

  -Total Gradient:
     Atom            X                  Y                   Z
    ------   -----------------  -----------------  -----------------
       1        0.000027375059    -0.000016109024    -0.000001294959
       2        0.000072913912     0.000005722190     0.000002557666
       3       -0.000058718064    -0.000072696103    -0.000021937509
       4        0.000006105807     0.000009835468    -0.000003238418
       5       -0.001557777332    -0.002378081461     0.001171454272
       6        0.000006739834     0.000002489588     0.000010495330
       7       -0.000014613361     0.000018792079    -0.000004827333
       8       -0.000705460626    -0.001120662316     0.002722930778
       9        0.001414807123     0.002178603790    -0.001399485712
      10        0.000018476463     0.000011280306    -0.000008621310
      11        0.000001586585     0.000007287271     0.000040317852
      12        0.000794274173     0.001316246033    -0.002486492706
      13       -0.000006111709     0.000024237817    -0.000010895560
      14        0.000001378296    -0.000002817452    -0.000003610475
      15       -0.000015869595     0.000010579176    -0.000011567823
      16        0.000014893434     0.000005292640     0.000004215908

  **** Optimization is complete! (in 4 steps) ****
    Final optimized geometry and variables:
    Molecular point group: c1

    Geometry (in Angstrom), charge = 0, multiplicity = 1:

    H            3.117959077718    -0.048164568761     0.126600448762
    N            2.282483642460    -0.593146482098     0.152265114103
    C            1.109136939827     0.251305079470     0.307383013582
    H            2.368398745111    -1.228030009352     0.918453011179
    C           -0.167469550649    -0.581011302598     0.279153155919
    H            1.099223743544     0.957776220048    -0.515743993540
    H            1.128190268654     0.840644205025     1.224987965800
    C           -1.442305875630     0.273423904502     0.322929825274
    H           -0.147881677571    -1.177229821138    -0.626534405807
    H           -0.149980404730    -1.271598908234     1.117359591170
    C           -1.965499232485     0.644975582483    -1.063630059606
    H           -1.243588176046     1.190971911073     0.869741617334
    H           -2.221929720852    -0.250032925732     0.864543832637
    H           -1.214982664858     1.172411990263    -1.642547691121
    H           -2.837318560435     1.285902015503    -0.994651249379
    H           -2.247838510840    -0.240734965977    -1.622228846900

  Mulliken Charges: (a.u.)
   Center  Symbol    Alpha    Beta     Spin     Total
       1     H     0.43016  0.43016  0.00000  0.13967
       2     N     3.68946  3.68946  0.00000 -0.37893
       3     C     3.02445  3.02445  0.00000 -0.04890
       4     H     0.43095  0.43095  0.00000  0.13810
       5     C     3.08806  3.08806  0.00000 -0.17613
       6     H     0.45701  0.45701  0.00000  0.08598
       7     H     0.46856  0.46856  0.00000  0.06288
       8     C     3.09478  3.09478  0.00000 -0.18957
       9     H     0.45099  0.45099  0.00000  0.09801
      10     H     0.45402  0.45402  0.00000  0.09196
      11     C     3.14697  3.14697  0.00000 -0.29393
      12     H     0.45744  0.45744  0.00000  0.08512
      13     H     0.44810  0.44810  0.00000  0.10379
      14     H     0.45518  0.45518  0.00000  0.08964
      15     H     0.44960  0.44960  0.00000  0.10081
      16     H     0.45426  0.45426  0.00000  0.09149

   Total alpha = 21.00000, Total beta = 21.00000, Total charge = -0.00000
