                              Psi4 1.0.54 Driver

  ==> Input File <==

--------------------------------------------------------------------------
set {
	reference rhf
	basis cc-pvtz
}

set_num_threads( 4 )
memory 2 gb

molecule MOL {
0 1

O	 -1.995610	 -0.469973	 0.563433
C	 -1.081510	 0.147522	 0.122720
C	 0.327029	 -0.064006	 0.641890
C	 -1.273462	 1.183911	 -0.958631
C	 1.349460	 -0.017068	 -0.500215
H	 0.399029	 -1.014606	 1.159950
H	 0.538021	 0.726928	 1.350471
C	 2.779782	 -0.209014	 -0.009215
H	 1.115007	 -0.782959	 -1.233891
H	 1.259071	 0.936707	 -1.006644
H	 3.481860	 -0.160270	 -0.833072
H	 2.903471	 -1.171535	 0.475559
H	 3.052569	 0.559584	 0.705428
H	 -0.795860	 2.117549	 -0.682999
H	 -2.325518	 1.344834	 -1.136901
H	 -0.799479	 0.839060	 -1.872015

	symmetry c1
}
set optking {
	frozen_dihedral = ("
		4 2 3 5
	")
}

ee,wfn = optimize('scf', return_wfn=True)
oeprop( wfn, 'DIPOLE', 'QUADRUPOLE', 'MULLIKEN_CHARGES')
f=open( 'psi4out.xyz', 'w' )
f.write( "16  " )
f.write( str(ee) + "\n" )
f.write( MOL.save_string_xyz() )
f.close()
--------------------------------------------------------------------------

    Molecular point group: c1
  Charge       = 0
  Multiplicity = 1
  Basis Set: CC-PVTZ
  Basis Set:
  @DF-RHF Final Energy:  -270.12626341710609
    Total Energy =                       -270.1262634171061450
    Molecular point group: c1
  Basis Set: CC-PVTZ
  Basis Set:
  Basis Set: CC-PVTZ
  Basis Set:
  @DF-RHF Final Energy:  -270.12773148151513
    Total Energy =                       -270.1277314815154114
  Basis Set: CC-PVTZ
  Basis Set:
  Basis Set: CC-PVTZ
  Basis Set:
  @DF-RHF Final Energy:  -270.12832547596440
    Total Energy =                       -270.1283254759645160
  Basis Set: CC-PVTZ
  Basis Set:
  Basis Set: CC-PVTZ
  Basis Set:
  @DF-RHF Final Energy:  -270.12834447201624
    Total Energy =                       -270.1283444720162379
  Basis Set: CC-PVTZ
  Basis Set:
  Basis Set: CC-PVTZ
  Basis Set:
  @DF-RHF Final Energy:  -270.12840964997031
    Total Energy =                       -270.1284096499704219
  Basis Set: CC-PVTZ
  Basis Set:
  Basis Set: CC-PVTZ
  Basis Set:
  @DF-RHF Final Energy:  -270.12842191939342
    Total Energy =                       -270.1284219193931335
  Basis Set: CC-PVTZ
  Basis Set:
  Basis Set: CC-PVTZ
  Basis Set:
  @DF-RHF Final Energy:  -270.12842425540447
    Total Energy =                       -270.1284242554043544
  Basis Set: CC-PVTZ
  Basis Set:
  Charge       = 0
  Multiplicity = 1
  Basis Set: CC-PVTZ
  Basis Set:

    Orbital Energies (a.u.)
    -----------------------

    Doubly Occupied:

       1A    -20.536855     2A    -11.320302     3A    -11.233046
       4A    -11.229565     5A    -11.226826     6A    -11.219485
       7A     -1.397137     8A     -1.086785     9A     -1.010979
      10A     -0.952762    11A     -0.835030    12A     -0.735232
      13A     -0.659231    14A     -0.653702    15A     -0.624593
      16A     -0.603775    17A     -0.578496    18A     -0.552520
      19A     -0.538420    20A     -0.522197    21A     -0.506563
      22A     -0.489045    23A     -0.476047    24A     -0.400784

  @DF-RHF Final Energy:  -270.12842444967629

   => Energetics <=

    Nuclear Repulsion Energy =            237.3241221881728507
    One-Electron Energy =                -836.1263371039874528
    Two-Electron Energy =                 328.6737904661383709
    DFT Exchange-Correlation Energy =       0.0000000000000000
    Empirical Dispersion Energy =           0.0000000000000000
    PCM Polarization Energy =               0.0000000000000000
    EFP Energy =                            0.0000000000000000
    Total Energy =                       -270.1284244496762312
    Molecular point group: c1
  Basis Set: CC-PVTZ
  Basis Set:

  -Total Gradient:
     Atom            X                  Y                   Z
    ------   -----------------  -----------------  -----------------
       1        0.000018393302     0.000016677005     0.000005603729
       2       -0.000190218596     0.001507891866     0.001110326595
       3       -0.000067769429    -0.001822105701    -0.000510137966
       4        0.000156024831    -0.000693412759    -0.000704504154
       5        0.000082564907     0.001050864565     0.000126954049
       6        0.000022221768    -0.000013778584    -0.000001994406
       7        0.000001084963     0.000004506453    -0.000010175371
       8       -0.000004300738    -0.000017370960     0.000000374638
       9        0.000000669110    -0.000001304130     0.000004951295
      10       -0.000007942768    -0.000003264235     0.000003968694
      11       -0.000005673595    -0.000003570218    -0.000002971268
      12        0.000001937748    -0.000004268331     0.000007555364
      13       -0.000001398320     0.000004933890    -0.000001941881
      14       -0.000003107454    -0.000005339442    -0.000011796351
      15       -0.000001329625    -0.000004717785    -0.000004935997
      16       -0.000001156102    -0.000015741634    -0.000011276967

  **** Optimization is complete! (in 8 steps) ****
    Final optimized geometry and variables:
    Molecular point group: c1

    Geometry (in Angstrom), charge = 0, multiplicity = 1:

    O           -1.995413873511    -0.593493684801     0.621710679651
    C           -1.120377475234     0.047558244752     0.136945268800
    C            0.313166199686    -0.124349347995     0.603809976182
    C           -1.409596679690     1.064676263504    -0.943343926911
    C            1.388215254991    -0.079423561194    -0.482414427413
    H            0.355952567162    -1.056143231727     1.151685498113
    H            0.498887031462     0.673187252387     1.321503373939
    C            2.783255204436    -0.322585832419     0.083769045354
    H            1.173015485864    -0.829696978692    -1.237737261519
    H            1.370782237930     0.880292683835    -0.986484914595
    H            3.531699010947    -0.289882625532    -0.698913621839
    H            2.846618830634    -1.292633135928     0.563947691094
    H            3.041645000881     0.429088021855     0.821990788230
    H           -0.936785516486     2.014455235735    -0.720313370257
    H           -2.476745819974     1.195845115796    -1.033879035367
    H           -1.010234191448     0.718740744426    -1.890007799487

  Mulliken Charges: (a.u.)
   Center  Symbol    Alpha    Beta     Spin     Total
       1     O     4.17237  4.17237  0.00000 -0.34474
       2     C     2.85895  2.85895  0.00000  0.28209
       3     C     3.09644  3.09644  0.00000 -0.19287
       4     C     3.16455  3.16455  0.00000 -0.32909
       5     C     3.09672  3.09672  0.00000 -0.19344
       6     H     0.43771  0.43771  0.00000  0.12458
       7     H     0.44733  0.44733  0.00000  0.10534
       8     C     3.14935  3.14935  0.00000 -0.29870
       9     H     0.44728  0.44728  0.00000  0.10544
      10     H     0.45065  0.45065  0.00000  0.09870
      11     H     0.44609  0.44609  0.00000  0.10782
      12     H     0.45099  0.45099  0.00000  0.09801
      13     H     0.45417  0.45417  0.00000  0.09167
      14     H     0.44850  0.44850  0.00000  0.10301
      15     H     0.43201  0.43201  0.00000  0.13598
      16     H     0.44690  0.44690  0.00000  0.10619

   Total alpha = 24.00000, Total beta = 24.00000, Total charge =  0.00000

*** Psi4 exiting successfully. Buy a developer a beer!
