  ==> Input File <==

--------------------------------------------------------------------------
set {
	reference rhf
	basis 6-31G*
}

set_num_threads( 1 )
memory 2 gb

molecule MOL {
0 1

H	 -0.000158	 1.970498	 0.756846
O	 -0.000074	 1.880206	 -0.189275
C	 -0.000015	 0.544847	 -0.545111
C	 -1.278788	 -0.123820	 -0.051541
C	 1.278802	 -0.123718	 -0.051505
H	 -0.000001	 0.490777	 -1.623619
F	 -0.974232	 -1.141916	 0.724520
F	 -2.038934	 0.700635	 0.637525
F	 -1.988825	 -0.588470	 -1.067190
F	 2.323327	 0.466644	 -0.591854
F	 1.326242	 -1.401483	 -0.363667
F	 1.388946	 -0.015632	 1.262939

	symmetry c1
}
set optking {
	frozen_dihedral = ("
		6 3 2 1
	")
}

ee = energy('scf')
oeprop('DIPOLE', 'QUADRUPOLE', 'MULLIKEN_CHARGES')
f=open( 'psi4out.xyz', 'w' )
f.write( "12  " )
f.write( str(ee) + "\n" )
f.write( MOL.save_string_xyz() )
f.close()
--------------------------------------------------------------------------

    Molecular point group: c1

    Geometry (in Angstrom), charge = 0, multiplicity = 1:

       Center              X                  Y                   Z               Mass
    ------------   -----------------  -----------------  -----------------  -----------------
           H         -0.004280248542     1.979421037235     0.758254632739     1.007825032070
           O         -0.004196248542     1.889129037235    -0.187866367261    15.994914619560
           C         -0.004137248542     0.553770037235    -0.543702367261    12.000000000000
           C         -1.282910248542    -0.114896962765    -0.050132367261    12.000000000000
           C          1.274679751458    -0.114794962765    -0.050096367261    12.000000000000
           H         -0.004123248542     0.499700037235    -1.622210367261     1.007825032070
           F         -0.978354248542    -1.132992962765     0.725928632739    18.998403224000
           F         -2.043056248542     0.709558037235     0.638933632739    18.998403224000
           F         -1.992947248542    -0.579546962765    -1.065781367261    18.998403224000
           F          2.319204751458     0.475567037235    -0.590445367261    18.998403224000
           F          1.322119751458    -1.392559962765    -0.362258367261    18.998403224000
           F          1.384823751458    -0.006708962765     1.264347632739    18.998403224000

  Charge       = 0
  Multiplicity = 1
  Basis Set: 6-31G*
  Basis Set:

    Orbital Energies (a.u.)
    -----------------------

    Doubly Occupied:

       1A    -26.364130     2A    -26.361757     3A    -26.360074
       4A    -26.359677     5A    -26.358472     6A    -26.357663
       7A    -20.613907     8A    -11.525892     9A    -11.524986
      10A    -11.347096    11A     -1.765404    12A     -1.757889
      13A     -1.661995    14A     -1.658290    15A     -1.657246
      16A     -1.653804    17A     -1.433503    18A     -1.101227
      19A     -0.997290    20A     -0.936853    21A     -0.866739
      22A     -0.860154    23A     -0.850779    24A     -0.845999
      25A     -0.835588    26A     -0.812058    27A     -0.731705
      28A     -0.730953    29A     -0.729068    30A     -0.724039
      31A     -0.687589    32A     -0.686017    33A     -0.682100
      34A     -0.677335    35A     -0.666360    36A     -0.663064
      37A     -0.655344    38A     -0.649398    39A     -0.618374
      40A     -0.547626    41A     -0.505992

  @DF-RHF Final Energy:  -786.27030892555001

   => Energetics <=

    Nuclear Repulsion Energy =            671.8538868837225664
    One-Electron Energy =               -2430.6015666491389311
    Two-Electron Energy =                 972.4773708398662393
    DFT Exchange-Correlation Energy =       0.0000000000000000
    Empirical Dispersion Energy =           0.0000000000000000
    PCM Polarization Energy =               0.0000000000000000
    EFP Energy =                            0.0000000000000000
    Total Energy =                       -786.2703089255500117

  Mulliken Charges: (a.u.)
   Center  Symbol    Alpha    Beta     Spin     Total
       1     H     0.26740  0.26740  0.00000  0.46519
       2     O     4.36032  4.36032  0.00000 -0.72064
       3     C     3.07753  3.07753  0.00000 -0.15506
       4     C     2.42515  2.42515  0.00000  1.14970
       5     C     2.43297  2.43297  0.00000  1.13406
       6     H     0.37039  0.37039  0.00000  0.25923
       7     F     4.67683  4.67683  0.00000 -0.35365
       8     F     4.67447  4.67447  0.00000 -0.34894
       9     F     4.67984  4.67984  0.00000 -0.35967
      10     F     4.67505  4.67505  0.00000 -0.35009
      11     F     4.67631  4.67631  0.00000 -0.35261
      12     F     4.68375  4.68375  0.00000 -0.36750

   Total alpha = 41.00000, Total beta = 41.00000, Total charge = -0.00000
