  ==> Input File <==

--------------------------------------------------------------------------
set {
	reference rhf
	basis 6-31G*
}

set_num_threads( 1 )
memory 2 gb

molecule MOL {
0 1

O	 2.862325	 1.357334	 0.000267
C	 2.843464	 0.164689	 -0.000222
C	 1.546494	 -0.624492	 -0.000609
C	 4.124123	 -0.644674	 -0.000428
C	 0.291004	 0.242674	 0.000989
H	 1.557904	 -1.283758	 -0.867573
H	 1.558622	 -1.285963	 0.864672
C	 -0.768139	 -0.260943	 0.983001
H	 -0.121106	 0.273802	 -1.002667
H	 0.564607	 1.264341	 0.244885
C	 -2.032254	 0.600254	 0.992190
H	 -1.035350	 -1.287112	 0.734762
H	 -0.347734	 -0.291215	 1.987198
C	 -3.096548	 0.102822	 1.971911
H	 -2.453765	 0.630649	 -0.011016
H	 -1.766458	 1.626121	 1.241078
C	 -4.356329	 0.968052	 1.975193
H	 -3.363917	 -0.922154	 1.723392
H	 -2.676838	 0.073440	 2.975325
H	 -4.819152	 0.990221	 0.992618
H	 -5.091856	 0.590061	 2.678629
H	 -4.127416	 1.992603	 2.254547
H	 4.165367	 -1.288615	 -0.874074
H	 4.976217	 0.020734	 -0.001915
H	 4.166763	 -1.286207	 0.874930

	symmetry c1
}
set optking {
	frozen_dihedral = ("
		9 5 8 12,
		15 11 8 12,
		15 11 14 18,
		1 2 3 6
	")
}

ee = energy('scf')
oeprop('DIPOLE', 'QUADRUPOLE', 'MULLIKEN_CHARGES')
f=open( 'psi4out.xyz', 'w' )
f.write( "25  " )
f.write( str(ee) + "\n" )
f.write( MOL.save_string_xyz() )
f.close()
--------------------------------------------------------------------------

    Molecular point group: c1

    Geometry (in Angstrom), charge = 0, multiplicity = 1:

       Center              X                  Y                   Z               Mass
    ------------   -----------------  -----------------  -----------------  -----------------
           O          2.709957502834     1.137957510810    -0.663106294169    15.994914619560
           C          2.691096502834    -0.054687489190    -0.663595294169    12.000000000000
           C          1.394126502834    -0.843868489190    -0.663982294169    12.000000000000
           C          3.971755502834    -0.864050489190    -0.663801294169    12.000000000000
           C          0.138636502834     0.023297510810    -0.662384294169    12.000000000000
           H          1.405536502834    -1.503134489190    -1.530946294169     1.007825032070
           H          1.406254502834    -1.505339489190     0.201298705831     1.007825032070
           C         -0.920506497166    -0.480319489190     0.319627705831    12.000000000000
           H         -0.273473497166     0.054425510810    -1.666040294169     1.007825032070
           H          0.412239502834     1.044964510810    -0.418488294169     1.007825032070
           C         -2.184621497166     0.380877510810     0.328816705831    12.000000000000
           H         -1.187717497166    -1.506488489190     0.071388705831     1.007825032070
           H         -0.500101497166    -0.510591489190     1.323824705831     1.007825032070
           C         -3.248915497166    -0.116554489190     1.308537705831    12.000000000000
           H         -2.606132497166     0.411272510810    -0.674389294169     1.007825032070
           H         -1.918825497166     1.406744510810     0.577704705831     1.007825032070
           C         -4.508696497166     0.748675510810     1.311819705831    12.000000000000
           H         -3.516284497166    -1.141530489190     1.060018705831     1.007825032070
           H         -2.829205497166    -0.145936489190     2.311951705831     1.007825032070
           H         -4.971519497166     0.770844510810     0.329244705831     1.007825032070
           H         -5.244223497166     0.370684510810     2.015255705831     1.007825032070
           H         -4.279783497166     1.773226510810     1.591173705831     1.007825032070
           H          4.012999502834    -1.507991489190    -1.537447294169     1.007825032070
           H          4.823849502834    -0.198642489190    -0.665288294169     1.007825032070
           H          4.014395502834    -1.505583489190     0.211556705831     1.007825032070

  Charge       = 0
  Multiplicity = 1
  Basis Set: 6-31G*
  Basis Set:

    Orbital Energies (a.u.)
    -----------------------

    Doubly Occupied:

       1A    -20.551257     2A    -11.327100     3A    -11.230614
       4A    -11.228941     5A    -11.215637     6A    -11.214349
       7A    -11.212665     8A    -11.212044     9A    -11.207482
      10A     -1.397002    11A     -1.092374    12A     -1.055571
      13A     -1.014365    14A     -0.968595    15A     -0.889649
      16A     -0.814031    17A     -0.790090    18A     -0.729889
      19A     -0.666366    20A     -0.645910    21A     -0.632102
      22A     -0.623625    23A     -0.594476    24A     -0.583193
      25A     -0.571553    26A     -0.558813    27A     -0.535841
      28A     -0.525356    29A     -0.513320    30A     -0.494087
      31A     -0.483562    32A     -0.470745    33A     -0.463422
      34A     -0.459637    35A     -0.446161    36A     -0.401497

  @DF-RHF Final Energy:  -387.13234821251979

   => Energetics <=

    Nuclear Repulsion Energy =            440.2469555474806384
    One-Electron Energy =               -1397.1154250485628836
    Two-Electron Energy =                 569.7361212885621171
    DFT Exchange-Correlation Energy =       0.0000000000000000
    Empirical Dispersion Energy =           0.0000000000000000
    PCM Polarization Energy =               0.0000000000000000
    EFP Energy =                            0.0000000000000000
    Total Energy =                       -387.1323482125201281

  Mulliken Charges: (a.u.)
   Center  Symbol    Alpha    Beta     Spin     Total
       1     O     4.26001  4.26001  0.00000 -0.52001
       2     C     2.73867  2.73867  0.00000  0.52267
       3     C     3.21406  3.21406  0.00000 -0.42811
       4     C     3.28687  3.28687  0.00000 -0.57375
       5     C     3.15624  3.15624  0.00000 -0.31248
       6     H     0.40720  0.40720  0.00000  0.18559
       7     H     0.40775  0.40775  0.00000  0.18451
       8     C     3.15599  3.15599  0.00000 -0.31197
       9     H     0.41958  0.41958  0.00000  0.16084
      10     H     0.39441  0.39441  0.00000  0.21119
      11     C     3.15139  3.15139  0.00000 -0.30278
      12     H     0.42550  0.42550  0.00000  0.14899
      13     H     0.42339  0.42339  0.00000  0.15323
      14     C     3.15146  3.15146  0.00000 -0.30291
      15     H     0.42382  0.42382  0.00000  0.15237
      16     H     0.42119  0.42119  0.00000  0.15761
      17     C     3.23927  3.23927  0.00000 -0.47854
      18     H     0.42393  0.42393  0.00000  0.15214
      19     H     0.42326  0.42326  0.00000  0.15348
      20     H     0.42186  0.42186  0.00000  0.15627
      21     H     0.41970  0.41970  0.00000  0.16060
      22     H     0.42111  0.42111  0.00000  0.15779
      23     H     0.40850  0.40850  0.00000  0.18300
      24     H     0.39638  0.39638  0.00000  0.20724
      25     H     0.40848  0.40848  0.00000  0.18304

   Total alpha = 36.00000, Total beta = 36.00000, Total charge = -0.00000
