  ==> Input File <==

--------------------------------------------------------------------------
set {
	reference rhf
	basis 6-31G*
}

set_num_threads( 4 )
memory 2 gb

molecule MOL {
0 1

H	 2.710087	 -0.796723	 -0.568858
N	 2.332695	 -0.069570	 0.000000
C	 0.936681	 -0.007078	 0.000000
H	 2.741887	 -0.086339	 0.909427
C	 0.227108	 -0.002120	 -1.198267
C	 0.227108	 -0.002120	 1.198267
H	 0.761569	 -0.014657	 -2.132680
C	 -1.156334	 0.010459	 -1.192360
H	 0.761569	 -0.014657	 2.132680
C	 -1.156334	 0.010459	 1.192360
H	 -1.684791	 0.014915	 -2.129421
C	 -1.862085	 0.017996	 0.000000
H	 -1.684791	 0.014915	 2.129421
H	 -2.936703	 0.028387	 0.000000

	symmetry c1
}
set optking {
	frozen_dihedral = ("
		1 2 3 5
	")
}

ee = optimize('scf')
oeprop('DIPOLE', 'QUADRUPOLE', 'MULLIKEN_CHARGES')
f=open( 'psi4out.xyz', 'w' )
f.write( "14  " )
f.write( str(ee) + "\n" )
f.write( MOL.save_string_xyz() )
f.close()
--------------------------------------------------------------------------

    Molecular point group: c1
  Charge       = 0
  Multiplicity = 1
  Basis Set: 6-31G*
  Basis Set:
  @DF-RHF Final Energy:  -285.72861088051638
    Total Energy =                       -285.7286108805164986
    Molecular point group: c1
  Basis Set: 6-31G*
  Basis Set:
  Basis Set: 6-31G*
  Basis Set:
  @DF-RHF Final Energy:  -285.72940184906605
    Total Energy =                       -285.7294018490655390
  Basis Set: 6-31G*
  Basis Set:
  Basis Set: 6-31G*
  Basis Set:
  @DF-RHF Final Energy:  -285.72956080600153
    Total Energy =                       -285.7295608060012455
  Basis Set: 6-31G*
  Basis Set:
  Basis Set: 6-31G*
  Basis Set:
  @DF-RHF Final Energy:  -285.72957096661679
    Total Energy =                       -285.7295709666167340
  Basis Set: 6-31G*
  Basis Set:
  Charge       = 0
  Multiplicity = 1
  Basis Set: 6-31G*
  Basis Set:

    Orbital Energies (a.u.)
    -----------------------

    Doubly Occupied:

       1A    -15.559268     2A    -11.269065     3A    -11.229010
       4A    -11.228568     5A    -11.219548     6A    -11.217778
       7A    -11.215710     8A     -1.219837     9A     -1.125939
      10A     -1.009887    11A     -0.984425    12A     -0.828538
      13A     -0.808686    14A     -0.702529    15A     -0.678699
      16A     -0.650753    17A     -0.598873    18A     -0.590266
      19A     -0.579485    20A     -0.523382    21A     -0.502327
      22A     -0.485563    23A     -0.440892    24A     -0.331148
      25A     -0.294476

  @DF-RHF Final Energy:  -285.72957160315997

   => Energetics <=

    Nuclear Repulsion Energy =            272.9397910010747523
    One-Electron Energy =                -926.7494213632135143
    Two-Electron Energy =                 368.0800587589789643
    DFT Exchange-Correlation Energy =       0.0000000000000000
    Empirical Dispersion Energy =           0.0000000000000000
    PCM Polarization Energy =               0.0000000000000000
    EFP Energy =                            0.0000000000000000
    Total Energy =                       -285.7295716031597408
    Molecular point group: c1
  Basis Set: 6-31G*
  Basis Set:

  -Total Gradient:
     Atom            X                  Y                   Z
    ------   -----------------  -----------------  -----------------
       1        0.000087121277    -0.001557535589     0.001671030451
       2       -0.000108162407     0.002854135880    -0.002158678799
       3        0.000033551131    -0.003018903789     0.000271524991
       4        0.000037272180    -0.000023677244     0.000049043181
       5        0.000039961687     0.001727651486     0.000104222048
       6       -0.000109530871     0.000030687636     0.000050427422
       7        0.000000904637     0.000010851361    -0.000011568928
       8       -0.000075220091    -0.000054659727     0.000059767226
       9        0.000003017921     0.000022576278    -0.000002668819
      10        0.000086766353    -0.000095382881     0.000055845219
      11        0.000013892032     0.000009755247    -0.000002515007
      12       -0.000000267377     0.000077766487    -0.000100863754
      13       -0.000011455510     0.000009294496    -0.000002746895
      14        0.000002149036     0.000007440358     0.000017181665

  **** Optimization is complete! (in 5 steps) ****
    Final optimized geometry and variables:
    Molecular point group: c1

    Geometry (in Angstrom), charge = 0, multiplicity = 1:

    H            2.734996141759    -0.691829826156    -0.624885089939
    N            2.339349410632    -0.009137336215    -0.011547510542
    C            0.934280812611    -0.030389266194     0.005037081045
    H            2.738564576521    -0.120430312586     0.897215719442
    C            0.230407431218    -0.009808276330    -1.196925600031
    C            0.222397271713     0.000774204990     1.198520644833
    H            0.773650967951    -0.006114034745    -2.125764962874
    C           -1.151366911433     0.015994763102    -1.197610600040
    H            0.751933061847    -0.006709100941     2.136073735303
    C           -1.162630112849     0.043648664861     1.188593656316
    H           -1.677251689554     0.025336849696    -2.136091601868
    C           -1.861023195053     0.045676439227    -0.005902992567
    H           -1.694681021115     0.068803434221     2.123296671983
    H           -2.935491249358     0.073281650936    -0.010717776726

  Mulliken Charges: (a.u.)
   Center  Symbol    Alpha    Beta     Spin     Total
       1     H     0.32167  0.32167  0.00000  0.35665
       2     N     3.93984  3.93984  0.00000 -0.87968
       3     C     2.86344  2.86344  0.00000  0.27311
       4     H     0.32283  0.32283  0.00000  0.35435
       5     C     3.11916  3.11916  0.00000 -0.23831
       6     C     3.12726  3.12726  0.00000 -0.25452
       7     H     0.40089  0.40089  0.00000  0.19823
       8     C     3.09176  3.09176  0.00000 -0.18352
       9     H     0.40498  0.40498  0.00000  0.19004
      10     C     3.09106  3.09106  0.00000 -0.18213
      11     H     0.40054  0.40054  0.00000  0.19892
      12     C     3.11358  3.11358  0.00000 -0.22717
      13     H     0.40066  0.40066  0.00000  0.19868
      14     H     0.40233  0.40233  0.00000  0.19534

   Total alpha = 25.00000, Total beta = 25.00000, Total charge =  0.00000
