  ==> Input File <==

--------------------------------------------------------------------------
set {
	reference rhf
	basis 6-31G*
}

set_num_threads( 1 )
memory 2 gb

molecule MOL {
0 1

H	 0.544860	 -0.729294	 1.918053
O	 1.067782	 -0.540205	 1.150817
C	 0.619777	 0.652901	 0.576576
C	 -0.793441	 0.596080	 0.058728
H	 1.298619	 0.868779	 -0.240597
H	 0.708924	 1.478973	 1.281332
C	 -1.530462	 -0.493172	 -0.025500
H	 -1.198762	 1.543111	 -0.262721
H	 -1.092586	 -1.461565	 -0.186463
H	 -2.602122	 -0.450675	 0.050101

	symmetry c1
}
set optking {
	frozen_dihedral = ("
		5 3 2 1,
		5 3 4 7
	")
}

ee = energy('scf')
oeprop('DIPOLE', 'QUADRUPOLE', 'MULLIKEN_CHARGES')
f=open( 'psi4out.xyz', 'w' )
f.write( "10  " )
f.write( str(ee) + "\n" )
f.write( MOL.save_string_xyz() )
f.close()
--------------------------------------------------------------------------

    Molecular point group: c1

    Geometry (in Angstrom), charge = 0, multiplicity = 1:

       Center              X                  Y                   Z               Mass
    ------------   -----------------  -----------------  -----------------  -----------------
           H          0.643578675229    -0.758381283686     1.430394608542     1.007825032070
           O          1.166500675229    -0.569292283686     0.663158608542    15.994914619560
           C          0.718495675229     0.623813716314     0.088917608542    12.000000000000
           C         -0.694722324771     0.566992716314    -0.428930391458    12.000000000000
           H          1.397337675229     0.839691716314    -0.728255391458     1.007825032070
           H          0.807642675229     1.449885716314     0.793673608542     1.007825032070
           C         -1.431743324771    -0.522259283686    -0.513158391458    12.000000000000
           H         -1.100043324771     1.514023716314    -0.750379391458     1.007825032070
           H         -0.993867324771    -1.490652283686    -0.674121391458     1.007825032070
           H         -2.503403324771    -0.479762283686    -0.437557391458     1.007825032070

  Charge       = 0
  Multiplicity = 1
  Basis Set: 6-31G*
  Basis Set:

    Orbital Energies (a.u.)
    -----------------------

    Doubly Occupied:

       1A    -20.558624     2A    -11.278004     3A    -11.232594
       4A    -11.218962     5A     -1.367367     6A     -1.058255
       7A     -0.927898     8A     -0.769037     9A     -0.686121
      10A     -0.656550    11A     -0.616393    12A     -0.571713
      13A     -0.540332    14A     -0.500799    15A     -0.446481
      16A     -0.345558

  @DF-RHF Final Energy:  -191.89704921984656

   => Energetics <=

    Nuclear Repulsion Energy =            119.2969812250321837
    One-Electron Energy =                -496.8386774041495642
    Two-Electron Energy =                 185.6446469592710855
    DFT Exchange-Correlation Energy =       0.0000000000000000
    Empirical Dispersion Energy =           0.0000000000000000
    PCM Polarization Energy =               0.0000000000000000
    EFP Energy =                            0.0000000000000000
    Total Energy =                       -191.8970492198462807

  Mulliken Charges: (a.u.)
   Center  Symbol    Alpha    Beta     Spin     Total
       1     H     0.28154  0.28154  0.00000  0.43692
       2     O     4.36613  4.36613  0.00000 -0.73226
       3     C     3.00046  3.00046  0.00000 -0.00091
       4     C     3.09432  3.09432  0.00000 -0.18865
       5     H     0.41089  0.41089  0.00000  0.17821
       6     H     0.42272  0.42272  0.00000  0.15456
       7     C     3.20148  3.20148  0.00000 -0.40296
       8     H     0.40948  0.40948  0.00000  0.18105
       9     H     0.40202  0.40202  0.00000  0.19596
      10     H     0.41096  0.41096  0.00000  0.17808

   Total alpha = 16.00000, Total beta = 16.00000, Total charge =  0.00000
