  ==> Input File <==

--------------------------------------------------------------------------
set {
	reference rhf
	basis cc-pvtz
}

set_num_threads( 4 )
memory 2 gb

molecule MOL {
0 1

H	 1.281711	 -1.250318	 -2.859786
C	 1.309372	 -0.626778	 -1.972533
C	 0.042760	 -0.824549	 -1.150897
H	 1.398321	 0.407423	 -2.281462
H	 2.202789	 -0.886524	 -1.418393
N	 0.000297	 0.000045	 0.046090
H	 -0.803207	 -0.567053	 -1.773112
H	 -0.076619	 -1.882536	 -0.901214
C	 -1.359159	 0.315706	 0.454404
C	 0.790456	 -0.557191	 1.132212
C	 -2.416729	 -0.286720	 -0.460525
H	 -1.478729	 1.390261	 0.442008
H	 -1.539692	 0.003361	 1.486761
C	 1.322549	 0.498815	 2.091465
H	 1.636203	 -1.079322	 0.706594
H	 0.219339	 -1.307657	 1.685870
H	 -2.285276	 0.073129	 -1.473515
H	 -2.371743	 -1.368476	 -0.483209
H	 -3.408658	 -0.007405	 -0.121593
H	 1.946581	 1.207210	 1.560740
H	 0.527065	 1.052674	 2.574397
H	 1.916312	 0.032461	 2.870420

	symmetry c1
}
set optking {
	frozen_dihedral = ("
		3 6 9 11
	")
}

ee = optimize('scf')
oeprop('DIPOLE', 'QUADRUPOLE', 'MULLIKEN_CHARGES')
f=open( 'psi4out.xyz', 'w' )
f.write( "22  " )
f.write( str(ee) + "\n" )
f.write( MOL.save_string_xyz() )
f.close()
--------------------------------------------------------------------------

    Molecular point group: c1
  Charge       = 0
  Multiplicity = 1
  Basis Set: CC-PVTZ
  Basis Set:
  @DF-RHF Final Energy:  -290.45556878032801
    Total Energy =                       -290.4555687803278943
    Molecular point group: c1
  Basis Set: CC-PVTZ
  Basis Set:
  Basis Set: CC-PVTZ
  Basis Set:
  @DF-RHF Final Energy:  -290.45261445714840
    Total Energy =                       -290.4526144571482291
  Basis Set: CC-PVTZ
  Basis Set:
  Basis Set: CC-PVTZ
  Basis Set:
  @DF-RHF Final Energy:  -290.46385493558932
    Total Energy =                       -290.4638549355892678
  Basis Set: CC-PVTZ
  Basis Set:
  Basis Set: CC-PVTZ
  Basis Set:
  @DF-RHF Final Energy:  -290.46633608362851
    Total Energy =                       -290.4663360836286756
  Basis Set: CC-PVTZ
  Basis Set:
  @DF-RHF Final Energy:  -290.46663503039849
    Total Energy =                       -290.4666350303984927
  @DF-RHF Final Energy:  -290.46685827466109
    Total Energy =                       -290.4668582746610923
  Basis Set: CC-PVTZ
  Basis Set:
  @DF-RHF Final Energy:  -290.46688233141742
    Total Energy =                       -290.4668823314176507
  Basis Set: CC-PVTZ
  Basis Set:
  Basis Set: CC-PVTZ
  Basis Set:
  @DF-RHF Final Energy:  -290.46688483830417
    Total Energy =                       -290.4668848383043951
  Basis Set: CC-PVTZ
  Basis Set:
  Basis Set: CC-PVTZ
  Basis Set:
  @DF-RHF Final Energy:  -290.46688620767708
    Total Energy =                       -290.4668862076770210
  Basis Set: CC-PVTZ
  Basis Set:
  Charge       = 0
  Multiplicity = 1
  Basis Set: CC-PVTZ
  Basis Set:

    Orbital Energies (a.u.)
    -----------------------

    Doubly Occupied:

       1A    -15.527101     2A    -11.240105     3A    -11.237521
       4A    -11.236984     5A    -11.210661     6A    -11.202002
       7A    -11.201397     8A     -1.219318     9A     -1.025216
      10A     -1.023403    11A     -0.956961    12A     -0.858432
      13A     -0.843906    14A     -0.758611    15A     -0.655092
      16A     -0.643854    17A     -0.622553    18A     -0.594500
      19A     -0.588053    20A     -0.546563    21A     -0.536697
      22A     -0.518740    23A     -0.513453    24A     -0.502424
      25A     -0.493144    26A     -0.488560    27A     -0.467811
      28A     -0.459673    29A     -0.329212

  @DF-RHF Final Energy:  -290.46688629040290

   => Energetics <=

    Nuclear Repulsion Energy =            337.5934248630354091
    One-Electron Energy =               -1061.1167336674707258
    Two-Electron Energy =                 433.0564225140326471
    DFT Exchange-Correlation Energy =       0.0000000000000000
    Empirical Dispersion Energy =           0.0000000000000000
    PCM Polarization Energy =               0.0000000000000000
    EFP Energy =                            0.0000000000000000
    Total Energy =                       -290.4668862904027264
    Molecular point group: c1
  Basis Set: CC-PVTZ
  Basis Set:

  -Total Gradient:
     Atom            X                  Y                   Z
    ------   -----------------  -----------------  -----------------
       1       -0.000003735566     0.000001939075     0.000000943933
       2       -0.000008070559     0.000010169413    -0.000003402535
       3        0.000167340532     0.001354780781    -0.000864832686
       4        0.000006230766     0.000004278147    -0.000003028381
       5       -0.000008766013    -0.000000197575    -0.000006809133
       6       -0.000258019154    -0.002695827718     0.001756533857
       7        0.000012717921     0.000007869100     0.000011011466
       8       -0.000003058143    -0.000015342345    -0.000010334478
       9        0.000256349637     0.002646425292    -0.001698524016
      10       -0.000021034589    -0.000002627968    -0.000036941384
      11       -0.000141705848    -0.001299849065     0.000838634663
      12       -0.000011716472     0.000006217158     0.000011277909
      13        0.000012555727    -0.000014800564    -0.000016155882
      14       -0.000000976320     0.000008644300     0.000001961424
      15        0.000000622802     0.000002545160     0.000010701290
      16       -0.000002112427    -0.000010828050     0.000008739868
      17       -0.000000714841    -0.000000311761     0.000006802163
      18       -0.000002768859    -0.000002171014    -0.000000817110
      19        0.000000253143    -0.000000885497    -0.000001625637
      20        0.000002619622     0.000004076010     0.000000966558
      21        0.000006448561    -0.000000027456     0.000001284352
      22       -0.000002459922    -0.000004075422    -0.000006386243

  **** Optimization is complete! (in 10 steps) ****
    Final optimized geometry and variables:
    Molecular point group: c1

    Geometry (in Angstrom), charge = 0, multiplicity = 1:

    H            1.495497257058    -0.985265577070    -2.876403643323
    C            1.450370002126    -0.390882274314    -1.969571244443
    C            0.170431661781    -0.705415324134    -1.201695836118
    H            1.474837122399     0.657024589984    -2.243035410203
    H            2.342337784131    -0.606158964437    -1.394992788251
    N            0.029952145394     0.087243242817     0.003566086544
    H           -0.656327428500    -0.497620383992    -1.860219246228
    H            0.131764116158    -1.778181480587    -0.990833785541
    C           -1.300722574795     0.507194868611     0.442408693914
    C            0.869753963494    -0.350125158016     1.098555559843
    C           -2.494222271996     0.082046299748    -0.405774027930
    H           -1.322792742339     1.588776824689     0.538794812298
    H           -1.475848754336     0.115323590449     1.442127131641
    C            1.280776456264     0.780107615492     2.033864814476
    H            1.767279653695    -0.792160536529     0.689496018270
    H            0.377894775834    -1.137836436646     1.678128545263
    H           -2.484727766750     0.527808205602    -1.392547881870
    H           -2.553942271802    -0.993735129128    -0.517144001570
    H           -3.399295965209     0.415096310094     0.089200815012
    H            1.813281783041     1.548326910314     1.485918327700
    H            0.425501602877     1.242088870267     2.511629179020
    H            1.929528359633     0.402031620612     2.816671856648

  Mulliken Charges: (a.u.)
   Center  Symbol    Alpha    Beta     Spin     Total
       1     H     0.45402  0.45402  0.00000  0.09197
       2     C     3.13954  3.13954  0.00000 -0.27908
       3     C     3.04597  3.04597  0.00000 -0.09195
       4     H     0.45341  0.45341  0.00000  0.09317
       5     H     0.45576  0.45576  0.00000  0.08848
       6     N     3.62058  3.62058  0.00000 -0.24117
       7     H     0.44669  0.44669  0.00000  0.10661
       8     H     0.46597  0.46597  0.00000  0.06806
       9     C     3.02651  3.02651  0.00000 -0.05301
      10     C     3.04579  3.04579  0.00000 -0.09159
      11     C     3.16324  3.16324  0.00000 -0.32648
      12     H     0.45482  0.45482  0.00000  0.09036
      13     H     0.46732  0.46732  0.00000  0.06536
      14     C     3.14168  3.14168  0.00000 -0.28335
      15     H     0.44939  0.44939  0.00000  0.10122
      16     H     0.46426  0.46426  0.00000  0.07148
      17     H     0.45147  0.45147  0.00000  0.09706
      18     H     0.45008  0.45008  0.00000  0.09985
      19     H     0.44476  0.44476  0.00000  0.11047
      20     H     0.45226  0.45226  0.00000  0.09547
      21     H     0.45406  0.45406  0.00000  0.09189
      22     H     0.45241  0.45241  0.00000  0.09518

   Total alpha = 29.00000, Total beta = 29.00000, Total charge =  0.00000
