  ==> Input File <==

--------------------------------------------------------------------------
set {
	reference rhf
	basis 6-31G*
}

set_num_threads( 1 )
memory 2 gb

molecule MOL {
0 1

O	 1.600544	 0.051366	 -0.496328
C	 2.701189	 0.057885	 -0.047330
C	 3.544165	 1.285712	 0.198877
O	 3.347903	 -1.046386	 0.304773
C	 2.836660	 2.584951	 -0.179978
H	 3.832318	 1.269442	 1.244772
H	 4.465565	 1.163307	 -0.364804
C	 3.716089	 3.831562	 -0.034862
H	 1.940691	 2.694576	 0.423627
H	 2.497615	 2.507093	 -1.207309
C	 4.118130	 4.173968	 1.402578
H	 3.174877	 4.676259	 -0.454745
H	 4.612321	 3.715754	 -0.642618
C	 4.901056	 5.484496	 1.505255
H	 3.222381	 4.241182	 2.018154
H	 4.719371	 3.371881	 1.824640
C	 5.312634	 5.834121	 2.936512
H	 4.300360	 6.295371	 1.096745
H	 5.791378	 5.421890	 0.881471
C	 6.090707	 7.146145	 3.030820
H	 4.424218	 5.896089	 3.561427
H	 5.916790	 5.026729	 3.345038
H	 6.368200	 7.366501	 4.057001
H	 5.499798	 7.979727	 2.661816
H	 7.003523	 7.103781	 2.443243
C	 4.728119	 -1.109107	 -0.004993
H	 4.882018	 -1.033965	 -1.071845
H	 5.068212	 -2.067527	 0.355250
H	 5.265056	 -0.311663	 0.488280

	symmetry c1
}
set optking {
	frozen_dihedral = ("
		21 17 14 11,
		17 14 11 15,
		15 11 8 5,
		6 3 5 9,
		11 8 5 9,
		2 4 26 27,
		6 3 2 1
	")
}

ee = energy('scf')
oeprop('DIPOLE', 'QUADRUPOLE', 'MULLIKEN_CHARGES')
f=open( 'psi4out.xyz', 'w' )
f.write( "29  " )
f.write( str(ee) + "\n" )
f.write( MOL.save_string_xyz() )
f.close()
--------------------------------------------------------------------------

    Molecular point group: c1

    Geometry (in Angstrom), charge = 0, multiplicity = 1:

       Center              X                  Y                   Z               Mass
    ------------   -----------------  -----------------  -----------------  -----------------
           O         -2.308684910281    -2.486971700548    -1.276951036307    15.994914619560
           C         -1.208039910281    -2.480452700548    -0.827953036307    12.000000000000
           C         -0.365063910281    -1.252625700548    -0.581746036307    12.000000000000
           O         -0.561325910281    -3.584723700548    -0.475850036307    15.994914619560
           C         -1.072568910281     0.046613299452    -0.960601036307    12.000000000000
           H         -0.076910910281    -1.268895700548     0.464148963693     1.007825032070
           H          0.556336089719    -1.375030700548    -1.145427036307     1.007825032070
           C         -0.193139910281     1.293224299452    -0.815485036307    12.000000000000
           H         -1.968537910281     0.156238299452    -0.356996036307     1.007825032070
           H         -1.411613910281    -0.031244700548    -1.987932036307     1.007825032070
           C          0.208901089719     1.635630299452     0.621954963693    12.000000000000
           H         -0.734351910281     2.137921299452    -1.235368036307     1.007825032070
           H          0.703092089719     1.177416299452    -1.423241036307     1.007825032070
           C          0.991827089719     2.946158299452     0.724631963693    12.000000000000
           H         -0.686847910281     1.702844299452     1.237530963693     1.007825032070
           H          0.810142089719     0.833543299452     1.044016963693     1.007825032070
           C          1.403405089719     3.295783299452     2.155888963693    12.000000000000
           H          0.391131089719     3.757033299452     0.316121963693     1.007825032070
           H          1.882149089719     2.883552299452     0.100847963693     1.007825032070
           C          2.181478089719     4.607807299452     2.250196963693    12.000000000000
           H          0.514989089719     3.357751299452     2.780803963693     1.007825032070
           H          2.007561089719     2.488391299452     2.564414963693     1.007825032070
           H          2.458971089719     4.828163299452     3.276377963693     1.007825032070
           H          1.590569089719     5.441389299452     1.881192963693     1.007825032070
           H          3.094294089719     4.565443299452     1.662619963693     1.007825032070
           C          0.818890089719    -3.647444700548    -0.785616036307    12.000000000000
           H          0.972789089719    -3.572302700548    -1.852468036307     1.007825032070
           H          1.158983089719    -4.605864700548    -0.425373036307     1.007825032070
           H          1.355827089719    -2.850000700548    -0.292343036307     1.007825032070

  Charge       = 0
  Multiplicity = 1
  Basis Set: 6-31G*
  Basis Set:

    Orbital Energies (a.u.)
    -----------------------

    Doubly Occupied:

       1A    -20.599095     2A    -20.548856     3A    -11.374173
       4A    -11.297035     5A    -11.239575     6A    -11.222399
       7A    -11.221130     8A    -11.219791     9A    -11.218719
      10A    -11.217689    11A    -11.211491    12A     -1.465962
      13A     -1.369216    14A     -1.101428    15A     -1.068699
      16A     -1.015171    17A     -0.986565    18A     -0.947321
      19A     -0.871433    20A     -0.807117    21A     -0.794968
      22A     -0.761501    23A     -0.703977    24A     -0.687376
      25A     -0.678792    26A     -0.654019    27A     -0.633406
      28A     -0.612848    29A     -0.602489    30A     -0.588309
      31A     -0.568533    32A     -0.559635    33A     -0.547717
      34A     -0.534656    35A     -0.520393    36A     -0.506603
      37A     -0.499937    38A     -0.480765    39A     -0.473211
      40A     -0.465890    41A     -0.463156    42A     -0.454233
      43A     -0.443633    44A     -0.429834

  @DF-RHF Final Energy:  -501.01823545797811

   => Energetics <=

    Nuclear Repulsion Energy =            618.0072706950390966
    One-Electron Energy =               -1906.7131299792406480
    Two-Electron Energy =                 787.6876238262236711
    DFT Exchange-Correlation Energy =       0.0000000000000000
    Empirical Dispersion Energy =           0.0000000000000000
    PCM Polarization Energy =               0.0000000000000000
    EFP Energy =                            0.0000000000000000
    Total Energy =                       -501.0182354579778803

  Mulliken Charges: (a.u.)
   Center  Symbol    Alpha    Beta     Spin     Total
       1     O     4.26606  4.26606  0.00000 -0.53212
       2     C     2.59651  2.59651  0.00000  0.80699
       3     C     3.24084  3.24084  0.00000 -0.48168
       4     O     4.30222  4.30222  0.00000 -0.60444
       5     C     3.15083  3.15083  0.00000 -0.30165
       6     H     0.39670  0.39670  0.00000  0.20659
       7     H     0.40418  0.40418  0.00000  0.19164
       8     C     3.15645  3.15645  0.00000 -0.31289
       9     H     0.41100  0.41100  0.00000  0.17800
      10     H     0.40823  0.40823  0.00000  0.18354
      11     C     3.15459  3.15459  0.00000 -0.30918
      12     H     0.41736  0.41736  0.00000  0.16528
      13     H     0.42558  0.42558  0.00000  0.14885
      14     C     3.15030  3.15030  0.00000 -0.30060
      15     H     0.42135  0.42135  0.00000  0.15730
      16     H     0.42618  0.42618  0.00000  0.14764
      17     C     3.15148  3.15148  0.00000 -0.30297
      18     H     0.42256  0.42256  0.00000  0.15488
      19     H     0.42450  0.42450  0.00000  0.15101
      20     C     3.23942  3.23942  0.00000 -0.47885
      21     H     0.42218  0.42218  0.00000  0.15565
      22     H     0.42405  0.42405  0.00000  0.15190
      23     H     0.41884  0.41884  0.00000  0.16233
      24     H     0.42113  0.42113  0.00000  0.15774
      25     H     0.42199  0.42199  0.00000  0.15602
      26     C     3.10315  3.10315  0.00000 -0.20630
      27     H     0.41137  0.41137  0.00000  0.17725
      28     H     0.39786  0.39786  0.00000  0.20428
      29     H     0.41310  0.41310  0.00000  0.17380

   Total alpha = 44.00000, Total beta = 44.00000, Total charge =  0.00000
