  ==> Input File <==

--------------------------------------------------------------------------
set {
	reference rhf
	basis 6-31G*
}

set_num_threads( 1 )
memory 2 gb

molecule MOL {
0 1

O	 1.836840	 1.284734	 -0.170581
C	 1.705091	 0.115954	 0.001797
C	 0.395387	 -0.594197	 0.243099
O	 2.721346	 -0.737485	 -0.000216
C	 -0.809087	 0.342170	 0.253229
H	 0.294087	 -1.357777	 -0.523319
H	 0.485293	 -1.130285	 1.183974
C	 -2.121750	 -0.403320	 0.498632
H	 -0.857376	 0.872881	 -0.692393
H	 -0.666585	 1.099904	 1.017324
C	 -3.340669	 0.520769	 0.511102
H	 -2.257099	 -1.164110	 -0.268750
H	 -2.066156	 -0.935368	 1.447165
C	 -4.651804	 -0.224508	 0.757556
H	 -3.399097	 1.051115	 -0.436770
H	 -3.207357	 1.280777	 1.277752
H	 -4.830828	 -0.968975	 -0.013115
H	 -5.496639	 0.457176	 0.760950
H	 -4.637369	 -0.737902	 1.714911
C	 4.024888	 -0.184556	 -0.001949
H	 4.179030	 0.422472	 -0.882452
H	 4.701782	 -1.024608	 -0.003642
H	 4.181981	 0.421185	 0.878906

	symmetry c1
}
set optking {
	frozen_dihedral = ("
		15 11 8 12,
		9 5 8 12,
		1 2 3 6,
		9 5 3 6
	")
}

ee = energy('scf')
oeprop('DIPOLE', 'QUADRUPOLE', 'MULLIKEN_CHARGES')
f=open( 'psi4out.xyz', 'w' )
f.write( "23  " )
f.write( str(ee) + "\n" )
f.write( MOL.save_string_xyz() )
f.close()
--------------------------------------------------------------------------

    Molecular point group: c1

    Geometry (in Angstrom), charge = 0, multiplicity = 1:

       Center              X                  Y                   Z               Mass
    ------------   -----------------  -----------------  -----------------  -----------------
           O          1.824158158988     1.270175731349    -0.400658795512    15.994914619560
           C          1.692409158988     0.101395731349    -0.228280795512    12.000000000000
           C          0.382705158988    -0.608755268651     0.013021204488    12.000000000000
           O          2.708664158988    -0.752043268651    -0.230293795512    15.994914619560
           C         -0.821768841012     0.327611731349     0.023151204488    12.000000000000
           H          0.281405158988    -1.372335268651    -0.753396795512     1.007825032070
           H          0.472611158988    -1.144843268651     0.953896204488     1.007825032070
           C         -2.134431841012    -0.417878268651     0.268554204488    12.000000000000
           H         -0.870057841012     0.858322731349    -0.922470795512     1.007825032070
           H         -0.679266841012     1.085345731349     0.787246204488     1.007825032070
           C         -3.353350841012     0.506210731349     0.281024204488    12.000000000000
           H         -2.269780841012    -1.178668268651    -0.498827795512     1.007825032070
           H         -2.078837841012    -0.949926268651     1.217087204488     1.007825032070
           C         -4.664485841012    -0.239066268651     0.527478204488    12.000000000000
           H         -3.411778841012     1.036556731349    -0.666847795512     1.007825032070
           H         -3.220038841012     1.266218731349     1.047674204488     1.007825032070
           H         -4.843509841012    -0.983533268651    -0.243192795512     1.007825032070
           H         -5.509320841012     0.442617731349     0.530872204488     1.007825032070
           H         -4.650050841012    -0.752460268651     1.484833204488     1.007825032070
           C          4.012206158988    -0.199114268651    -0.232026795512    12.000000000000
           H          4.166348158988     0.407913731349    -1.112529795512     1.007825032070
           H          4.689100158988    -1.039166268651    -0.233719795512     1.007825032070
           H          4.169299158988     0.406626731349     0.648828204488     1.007825032070

  Charge       = 0
  Multiplicity = 1
  Basis Set: 6-31G*
  Basis Set:

    Orbital Energies (a.u.)
    -----------------------

    Doubly Occupied:

       1A    -20.603066     2A    -20.545606     3A    -11.372325
       4A    -11.281086     5A    -11.235569     6A    -11.219276
       7A    -11.217911     8A    -11.216501     9A    -11.209665
      10A     -1.469153    11A     -1.362802    12A     -1.093221
      13A     -1.043619    14A     -0.987024    15A     -0.932279
      16A     -0.843669    17A     -0.795096    18A     -0.767290
      19A     -0.696867    20A     -0.683676    21A     -0.671501
      22A     -0.651734    23A     -0.609340    24A     -0.599641
      25A     -0.572890    26A     -0.559267    27A     -0.556365
      28A     -0.525169    29A     -0.519585    30A     -0.507768
      31A     -0.484448    32A     -0.469812    33A     -0.466322
      34A     -0.461692    35A     -0.455242    36A     -0.435153

  @DF-RHF Final Energy:  -422.97567087503870

   => Energetics <=

    Nuclear Repulsion Energy =            452.1344698831211986
    One-Electron Energy =               -1471.9770631586925447
    Two-Electron Energy =                 596.8669224005323031
    DFT Exchange-Correlation Energy =       0.0000000000000000
    Empirical Dispersion Energy =           0.0000000000000000
    PCM Polarization Energy =               0.0000000000000000
    EFP Energy =                            0.0000000000000000
    Total Energy =                       -422.9756708750389862

  Mulliken Charges: (a.u.)
   Center  Symbol    Alpha    Beta     Spin     Total
       1     O     4.28552  4.28552  0.00000 -0.57103
       2     C     2.60476  2.60476  0.00000  0.79047
       3     C     3.20840  3.20840  0.00000 -0.41681
       4     O     4.30755  4.30755  0.00000 -0.61510
       5     C     3.15247  3.15247  0.00000 -0.30495
       6     H     0.40020  0.40020  0.00000  0.19959
       7     H     0.40117  0.40117  0.00000  0.19765
       8     C     3.15332  3.15332  0.00000 -0.30664
       9     H     0.41150  0.41150  0.00000  0.17699
      10     H     0.41194  0.41194  0.00000  0.17612
      11     C     3.15155  3.15155  0.00000 -0.30310
      12     H     0.42392  0.42392  0.00000  0.15215
      13     H     0.42413  0.42413  0.00000  0.15174
      14     C     3.23958  3.23958  0.00000 -0.47916
      15     H     0.42127  0.42127  0.00000  0.15747
      16     H     0.42139  0.42139  0.00000  0.15722
      17     H     0.42178  0.42178  0.00000  0.15644
      18     H     0.41847  0.41847  0.00000  0.16306
      19     H     0.42186  0.42186  0.00000  0.15628
      20     C     3.09277  3.09277  0.00000 -0.18555
      21     H     0.40679  0.40679  0.00000  0.18642
      22     H     0.40830  0.40830  0.00000  0.18340
      23     H     0.41134  0.41134  0.00000  0.17732

   Total alpha = 36.00000, Total beta = 36.00000, Total charge = -0.00000
