  ==> Input File <==

--------------------------------------------------------------------------
set {
	reference rhf
	basis 6-31G*
}

set_num_threads( 4 )
memory 2 gb

molecule MOL {
0 1

H	 1.502325	 -0.045910	 -2.624722
C	 0.772140	 -0.260393	 -1.852871
C	 1.322923	 0.120767	 -0.479465
H	 -0.130074	 0.296315	 -2.086240
H	 0.536992	 -1.319002	 -1.904304
C	 0.306652	 -0.176050	 0.621399
H	 1.567214	 1.177739	 -0.455795
H	 2.233201	 -0.429688	 -0.272936
N	 -1.068537	 -0.011044	 0.085269
H	 0.372515	 -1.192590	 0.973735
H	 0.391664	 0.520566	 1.441230
O	 -1.656956	 -0.997225	 -0.235017
O	 -1.478635	 1.104830	 -0.018026

	symmetry c1
}
set optking {
	frozen_dihedral = ("
		7 3 6 9
	")
}

ee = optimize('scf')
oeprop('DIPOLE', 'QUADRUPOLE', 'MULLIKEN_CHARGES')
f=open( 'psi4out.xyz', 'w' )
f.write( "13  " )
f.write( str(ee) + "\n" )
f.write( MOL.save_string_xyz() )
f.close()
--------------------------------------------------------------------------

    Molecular point group: c1
  Charge       = 0
  Multiplicity = 1
  Basis Set: 6-31G*
  Basis Set:
  @DF-RHF Final Energy:  -321.72969933449207
    Total Energy =                       -321.7296993344921248
    Molecular point group: c1
  Basis Set: 6-31G*
  Basis Set:
  Basis Set: 6-31G*
  Basis Set:
  @DF-RHF Final Energy:  -321.72651327361035
    Total Energy =                       -321.7265132736103510
  Basis Set: 6-31G*
  Basis Set:
  Basis Set: 6-31G*
  Basis Set:
  @DF-RHF Final Energy:  -321.73103099108346
    Total Energy =                       -321.7310309910836850
  Basis Set: 6-31G*
  Basis Set:
  Basis Set: 6-31G*
  Basis Set:
  @DF-RHF Final Energy:  -321.73234487012462
    Total Energy =                       -321.7323448701245070
  Basis Set: 6-31G*
  Basis Set:
  @DF-RHF Final Energy:  -321.73240201747467
    Total Energy =                       -321.7324020174746124
  Basis Set: 6-31G*
  Basis Set:
  @DF-RHF Final Energy:  -321.73244299773148
    Total Energy =                       -321.7324429977315958
  Basis Set: 6-31G*
  Basis Set:
  Basis Set: 6-31G*
  Basis Set:
  @DF-RHF Final Energy:  -321.73246168426351
    Total Energy =                       -321.7324616842635123
  Basis Set: 6-31G*
  Basis Set:
  Basis Set: 6-31G*
  Basis Set:
  @DF-RHF Final Energy:  -321.73247541557930
    Total Energy =                       -321.7324754155792448
  Basis Set: 6-31G*
  Basis Set:
  Charge       = 0
  Multiplicity = 1
  Basis Set: 6-31G*
  Basis Set:

    Orbital Energies (a.u.)
    -----------------------

    Doubly Occupied:

       1A    -20.603307     2A    -20.598503     3A    -15.846444
       4A    -11.299377     5A    -11.257071     6A    -11.230833
       7A     -1.630731     8A     -1.416050     9A     -1.132417
      10A     -1.021936    11A     -0.896590    12A     -0.820583
      13A     -0.753178    14A     -0.735831    15A     -0.725215
      16A     -0.661736    17A     -0.609555    18A     -0.591176
      19A     -0.536856    20A     -0.520002    21A     -0.510106
      22A     -0.481086    23A     -0.473991    24A     -0.448720

  @DF-RHF Final Energy:  -321.73247625315923

   => Energetics <=

    Nuclear Repulsion Energy =            254.3010627953591154
    One-Electron Energy =                -942.4644863250732669
    Two-Electron Energy =                 366.4309472765550026
    DFT Exchange-Correlation Energy =       0.0000000000000000
    Empirical Dispersion Energy =           0.0000000000000000
    PCM Polarization Energy =               0.0000000000000000
    EFP Energy =                            0.0000000000000000
    Total Energy =                       -321.7324762531591205
    Molecular point group: c1
  Basis Set: 6-31G*
  Basis Set:

  -Total Gradient:
     Atom            X                  Y                   Z
    ------   -----------------  -----------------  -----------------
       1        0.000008324752     0.000001227392    -0.000016378212
       2        0.000005574872     0.000009645423     0.000003193278
       3       -0.005595037629     0.000082772482    -0.004789850891
       4       -0.000012659496    -0.000000573667    -0.000017835483
       5        0.000011088650     0.000021648273     0.000012094576
       6        0.001297261563     0.005188250787     0.002558664518
       7        0.004470989828    -0.001245711798     0.003502399017
       8        0.000004871206    -0.000001157880     0.000027840641
       9       -0.000055868753    -0.004050046556    -0.001216585191
      10        0.000016371161    -0.000005303694     0.000013310573
      11       -0.000014189466    -0.000001833974     0.000000018017
      12       -0.000059565387     0.000074191156    -0.000039111023
      13       -0.000077161302    -0.000073107943    -0.000037759820

  **** Optimization is complete! (in 9 steps) ****
    Final optimized geometry and variables:
    Molecular point group: c1

    Geometry (in Angstrom), charge = 0, multiplicity = 1:

    H            1.987582747353    -0.047476323353    -2.346831540941
    C            1.189016161811    -0.232620115569    -1.637513179181
    C            1.638829431359     0.177690339290    -0.236371287542
    H            0.322975279822     0.333341886587    -1.959760849612
    H            0.939728351420    -1.287509732226    -1.680066515886
    C            0.653494959406    -0.155810807295     0.893444257538
    H            1.896057596363     1.229109190484    -0.191685278959
    H            2.554194667142    -0.351768146913     0.012716726138
    N           -0.752961523365     0.023427204532     0.448333763368
    H            0.722838560624    -1.188234692548     1.193796776108
    H            0.782808358094     0.494634120502     1.744350936894
    O           -1.403972348948    -0.956246116456     0.259170298526
    O           -1.128741073918     1.145377350738     0.287251281682

  Mulliken Charges: (a.u.)
   Center  Symbol    Alpha    Beta     Spin     Total
       1     H     0.41027  0.41027  0.00000  0.17947
       2     C     3.25412  3.25412  0.00000 -0.50823
       3     C     3.17003  3.17003  0.00000 -0.34007
       4     H     0.40229  0.40229  0.00000  0.19541
       5     H     0.40919  0.40919  0.00000  0.18162
       6     C     3.08778  3.08778  0.00000 -0.17555
       7     H     0.40158  0.40158  0.00000  0.19684
       8     H     0.40840  0.40840  0.00000  0.18319
       9     N     3.22648  3.22648  0.00000  0.54703
      10     H     0.38790  0.38790  0.00000  0.22420
      11     H     0.38604  0.38604  0.00000  0.22792
      12     O     4.22495  4.22495  0.00000 -0.44989
      13     O     4.23097  4.23097  0.00000 -0.46194

   Total alpha = 24.00000, Total beta = 24.00000, Total charge = -0.00000
