                              Psi4 1.0.54 Driver

  ==> Input File <==

--------------------------------------------------------------------------
set {
	reference rhf
	basis cc-pvtz
}

set_num_threads( 4 )
memory 2 gb

molecule MOL {
0 1

O	 -2.071633	 -1.227563	 -0.223463
C	 -1.652164	 -0.152425	 0.058082
C	 -0.327811	 0.006324	 0.778296
C	 -2.402515	 1.108629	 -0.298924
C	 -0.524330	 0.016566	 2.299052
H	 0.349242	 -0.794618	 0.500415
H	 0.106920	 0.945676	 0.461333
C	 0.785740	 0.193005	 3.061164
H	 -0.999491	 -0.908745	 2.614827
H	 -1.207348	 0.819145	 2.555409
C	 0.593696	 0.216417	 4.573689
H	 1.467981	 -0.609943	 2.795937
H	 1.261428	 1.116072	 2.743032
H	 0.151230	 -0.708996	 4.927057
H	 -0.059313	 1.029354	 4.872156
H	 1.539840	 0.346829	 5.085749
H	 -3.240910	 0.874416	 -0.936711
H	 -1.747554	 1.818823	 -0.790984
H	 -2.760419	 1.579708	 0.610998

	symmetry c1
}
set optking {
	frozen_dihedral = ("
		5 3 2 4
	")
}

ee,wfn = optimize('scf', return_wfn=True)
oeprop( wfn, 'DIPOLE', 'QUADRUPOLE', 'MULLIKEN_CHARGES')
f=open( 'psi4out.xyz', 'w' )
f.write( "19  " )
f.write( str(ee) + "\n" )
f.write( MOL.save_string_xyz() )
f.close()
--------------------------------------------------------------------------

    Molecular point group: c1
  Charge       = 0
  Multiplicity = 1
  Basis Set: CC-PVTZ
  Basis Set:
  @DF-RHF Final Energy:  -309.17626715583424
    Total Energy =                       -309.1762671558342959
    Molecular point group: c1
  Basis Set: CC-PVTZ
  Basis Set:
  Basis Set: CC-PVTZ
  Basis Set:
  @DF-RHF Final Energy:  -309.17498683707601
    Total Energy =                       -309.1749868370761192
  Basis Set: CC-PVTZ
  Basis Set:
  Basis Set: CC-PVTZ
  Basis Set:
  @DF-RHF Final Energy:  -309.17671469554244
    Total Energy =                       -309.1767146955426711
  Basis Set: CC-PVTZ
  Basis Set:
  Basis Set: CC-PVTZ
  Basis Set:
  @DF-RHF Final Energy:  -309.17716799795528
    Total Energy =                       -309.1771679979551095
  Basis Set: CC-PVTZ
  Basis Set:
  @DF-RHF Final Energy:  -309.17726328507462
    Total Energy =                       -309.1772632850745595
  @DF-RHF Final Energy:  -309.17723573503991
    Total Energy =                       -309.1772357350398579
  Basis Set: CC-PVTZ
  Basis Set:
  @DF-RHF Final Energy:  -309.17730592989892
    Total Energy =                       -309.1773059298990347
  Basis Set: CC-PVTZ
  Basis Set:
  Basis Set: CC-PVTZ
  Basis Set:
  @DF-RHF Final Energy:  -309.17733927689414
    Total Energy =                       -309.1773392768941449
  Basis Set: CC-PVTZ
  Basis Set:
  Basis Set: CC-PVTZ
  Basis Set:
  @DF-RHF Final Energy:  -309.17734566994096
    Total Energy =                       -309.1773456699409053
  Basis Set: CC-PVTZ
  Basis Set:
  Charge       = 0
  Multiplicity = 1
  Basis Set: CC-PVTZ
  Basis Set:

    Orbital Energies (a.u.)
    -----------------------

    Doubly Occupied:

       1A    -20.537032     2A    -11.319424     3A    -11.229388
       4A    -11.227976     5A    -11.226883     6A    -11.223445
       7A    -11.213551     8A     -1.397047     9A     -1.093473
      10A     -1.030590    11A     -0.984513    12A     -0.891496
      13A     -0.807876    14A     -0.734644    15A     -0.665338
      16A     -0.648147    17A     -0.625443    18A     -0.615312
      19A     -0.582941    20A     -0.575112    21A     -0.553915
      22A     -0.537993    23A     -0.513302    24A     -0.502456
      25A     -0.483611    26A     -0.477054    27A     -0.470928
      28A     -0.399274

  @DF-RHF Final Energy:  -309.17734591946476

   => Energetics <=

    Nuclear Repulsion Energy =            301.8546662439534884
    One-Electron Energy =               -1016.9276994064089195
    Two-Electron Energy =                 405.8956872429906753
    DFT Exchange-Correlation Energy =       0.0000000000000000
    Empirical Dispersion Energy =           0.0000000000000000
    PCM Polarization Energy =               0.0000000000000000
    EFP Energy =                            0.0000000000000000
    Total Energy =                       -309.1773459194647558
    Molecular point group: c1
  Basis Set: CC-PVTZ
  Basis Set:

  -Total Gradient:
     Atom            X                  Y                   Z
    ------   -----------------  -----------------  -----------------
       1        0.000013550178     0.000008867787     0.000009085042
       2        0.000106842233     0.000062414564    -0.000283029823
       3       -0.000005112992    -0.000248694461     0.000124678193
       4       -0.000092786656    -0.000008629631     0.000167573729
       5       -0.000037975746     0.000180524746    -0.000035233088
       6       -0.000004597092    -0.000000601131    -0.000000543946
       7       -0.000001739582    -0.000006980990    -0.000001251311
       8        0.000011115445     0.000006909736     0.000016532063
       9        0.000002141823     0.000009963243    -0.000003136530
      10        0.000000201250    -0.000006609536    -0.000005082719
      11        0.000012902199    -0.000003940463    -0.000006960564
      12       -0.000001832410     0.000007768839     0.000006917611
      13        0.000000166268    -0.000005903625     0.000003496515
      14        0.000001806553     0.000005859457    -0.000000134297
      15        0.000005952106    -0.000005830304    -0.000004790237
      16       -0.000006740267    -0.000001204545     0.000003805162
      17       -0.000007181266     0.000001310224    -0.000002153801
      18        0.000005581236     0.000000606224    -0.000007001221
      19       -0.000002293280     0.000004169865     0.000017229227

  **** Optimization is complete! (in 10 steps) ****
    Final optimized geometry and variables:
    Molecular point group: c1

    Geometry (in Angstrom), charge = 0, multiplicity = 1:

    O           -1.209321906415    -1.264369315723    -1.715226726035
    C           -0.822892053636    -0.176778774832    -1.434120763718
    C            0.483377366205     0.023220041522    -0.692279924808
    C           -1.616725787310     1.059403348849    -1.786048236226
    C            0.270032611713     0.006006497113     0.826273861571
    H            1.148085356631    -0.782033951277    -0.976640470806
    H            0.938502600149     0.963382460997    -0.986938856337
    C            1.570078812045     0.186080169424     1.604827671045
    H           -0.192448317981    -0.935760347037     1.102332899523
    H           -0.427308665777     0.789647552436     1.110170365289
    C            1.365935130998     0.156997226322     3.115631387231
    H            2.267668243407    -0.595752443485     1.319361573033
    H            2.032411973357     1.127334404695     1.320649865951
    H            0.934938718394    -0.786102530560     3.433715997283
    H            0.698400226481     0.949785747194     3.436417763533
    H            2.305978810095     0.284601304666     3.639451438015
    H           -2.593366214737     0.781169727937    -2.151187965184
    H           -1.088334104431     1.612685497492    -2.555997551188
    H           -1.712939270076     1.715282387880    -0.928581757676

  Mulliken Charges: (a.u.)
   Center  Symbol    Alpha    Beta     Spin     Total
       1     O     4.17731  4.17731  0.00000 -0.35461
       2     C     2.85822  2.85822  0.00000  0.28355
       3     C     3.09718  3.09718  0.00000 -0.19436
       4     C     3.15536  3.15536  0.00000 -0.31071
       5     C     3.09855  3.09855  0.00000 -0.19710
       6     H     0.43885  0.43885  0.00000  0.12229
       7     H     0.44974  0.44974  0.00000  0.10051
       8     C     3.08570  3.08570  0.00000 -0.17140
       9     H     0.44180  0.44180  0.00000  0.11639
      10     H     0.45248  0.45248  0.00000  0.09505
      11     C     3.14932  3.14932  0.00000 -0.29863
      12     H     0.45106  0.45106  0.00000  0.09788
      13     H     0.45398  0.45398  0.00000  0.09204
      14     H     0.45279  0.45279  0.00000  0.09441
      15     H     0.45519  0.45519  0.00000  0.08962
      16     H     0.44722  0.44722  0.00000  0.10555
      17     H     0.43588  0.43588  0.00000  0.12824
      18     H     0.44839  0.44839  0.00000  0.10321
      19     H     0.45097  0.45097  0.00000  0.09806

   Total alpha = 28.00000, Total beta = 28.00000, Total charge = -0.00000

*** Psi4 exiting successfully. Buy a developer a beer!
