  ==> Input File <==

--------------------------------------------------------------------------
set {
	reference rhf
	basis 6-31G*
}

set_num_threads( 4 )
memory 2 gb

molecule MOL {
0 1

H	 -3.161837	 0.500524	 -0.000234
C	 -2.367097	 -0.232926	 -0.000000
O	 -1.158440	 0.455814	 -0.000122
H	 -2.468853	 -0.861886	 -0.882833
H	 -2.468942	 -0.861421	 0.883154
C	 -0.029776	 -0.365156	 0.000148
C	 -0.165010	 -1.384789	 -1.117314
H	 0.067700	 -0.869003	 0.962715
H	 0.870511	 0.234348	 -0.141226
C	 1.031998	 -2.331567	 -1.192569
H	 -1.079512	 -1.948407	 -0.960204
H	 -0.282264	 -0.852839	 -2.056452
H	 1.152548	 -2.892322	 -0.269831
H	 0.909277	 -3.047599	 -1.998225
H	 1.955714	 -1.788862	 -1.373188

	symmetry c1
}
set optking {
	frozen_dihedral = ("
		8 6 3 2
	")
}

ee = optimize('scf')
oeprop('DIPOLE', 'QUADRUPOLE', 'MULLIKEN_CHARGES')
f=open( 'psi4out.xyz', 'w' )
f.write( "15  " )
f.write( str(ee) + "\n" )
f.write( MOL.save_string_xyz() )
f.close()
--------------------------------------------------------------------------

    Molecular point group: c1
  Charge       = 0
  Multiplicity = 1
  Basis Set: 6-31G*
  Basis Set:
  @DF-RHF Final Energy:  -232.12653602451039
    Total Energy =                       -232.1265360245103579
    Molecular point group: c1
  Basis Set: 6-31G*
  Basis Set:
  Basis Set: 6-31G*
  Basis Set:
  @DF-RHF Final Energy:  -232.12693936010126
    Total Energy =                       -232.1269393601012894
  Basis Set: 6-31G*
  Basis Set:
  Basis Set: 6-31G*
  Basis Set:
  @DF-RHF Final Energy:  -232.13300908517465
    Total Energy =                       -232.1330090851747059
  Basis Set: 6-31G*
  Basis Set:
  Basis Set: 6-31G*
  Basis Set:
  @DF-RHF Final Energy:  -232.13505653489523
    Total Energy =                       -232.1350565348951704
  Basis Set: 6-31G*
  Basis Set:
  @DF-RHF Final Energy:  -232.13533093388830
    Total Energy =                       -232.1353309338883264
  Basis Set: 6-31G*
  Basis Set:
  @DF-RHF Final Energy:  -232.13539601957643
    Total Energy =                       -232.1353960195764330
  Basis Set: 6-31G*
  Basis Set:
  Basis Set: 6-31G*
  Basis Set:
  @DF-RHF Final Energy:  -232.13540312003684
    Total Energy =                       -232.1354031200369832
  Basis Set: 6-31G*
  Basis Set:
  Basis Set: 6-31G*
  Basis Set:
  @DF-RHF Final Energy:  -232.13540419651139
    Total Energy =                       -232.1354041965111605
  Basis Set: 6-31G*
  Basis Set:
  Charge       = 0
  Multiplicity = 1
  Basis Set: 6-31G*
  Basis Set:

    Orbital Energies (a.u.)
    -----------------------

    Doubly Occupied:

       1A    -20.551315     2A    -11.266136     3A    -11.262659
       4A    -11.219466     5A    -11.216610     6A     -1.373557
       7A     -1.057827     8A     -0.960512     9A     -0.885177
      10A     -0.802439    11A     -0.670102    12A     -0.658471
      13A     -0.631121    14A     -0.604866    15A     -0.564668
      16A     -0.529596    17A     -0.527262    18A     -0.498775
      19A     -0.487414    20A     -0.450185    21A     -0.407303

  @DF-RHF Final Energy:  -232.13540426627884

   => Energetics <=

    Nuclear Repulsion Energy =            191.9883399830299595
    One-Electron Energy =                -694.9965672267989021
    Two-Electron Energy =                 270.8728229774901592
    DFT Exchange-Correlation Energy =       0.0000000000000000
    Empirical Dispersion Energy =           0.0000000000000000
    PCM Polarization Energy =               0.0000000000000000
    EFP Energy =                            0.0000000000000000
    Total Energy =                       -232.1354042662787833
    Molecular point group: c1
  Basis Set: 6-31G*
  Basis Set:

  -Total Gradient:
     Atom            X                  Y                   Z
    ------   -----------------  -----------------  -----------------
       1       -0.000008448058    -0.000004969550    -0.000002175430
       2       -0.000106001252    -0.000061545829    -0.002794796715
       3        0.000676934889     0.000752339023     0.004297874054
       4        0.000001902760     0.000000835166     0.000004179160
       5        0.000003200848    -0.000004226746     0.000000440612
       6       -0.002687181176    -0.003134007031    -0.002520197455
       7        0.000003666445     0.000010390739    -0.000000835664
       8        0.002104074940     0.002451952499     0.001016594312
       9        0.000011106134    -0.000019054996    -0.000007340508
      10       -0.000003933960    -0.000002664399     0.000007877886
      11        0.000001974575     0.000004869127     0.000002562213
      12        0.000000992261     0.000003903840    -0.000000156843
      13        0.000001680733     0.000003938756    -0.000000606668
      14       -0.000002919467    -0.000001202485     0.000002281859
      15        0.000002950331    -0.000000558115    -0.000005700815

  **** Optimization is complete! (in 9 steps) ****
    Final optimized geometry and variables:
    Molecular point group: c1

    Geometry (in Angstrom), charge = 0, multiplicity = 1:

    H           -2.571941507664     1.493513067426     0.690120123052
    C           -1.886662617310     0.678116436661     0.501648464793
    O           -0.606449875038     1.224202933981     0.441494373846
    H           -2.172163583718     0.195702665256    -0.428193995227
    H           -1.977505427685    -0.045859365702     1.310404080091
    C            0.460918009438     0.319257039426     0.428866238126
    C            0.420829023028    -0.722974258101    -0.684296300958
    H            0.549787660245    -0.160636205929     1.404683471842
    H            1.345809425419     0.933015180874     0.306531098201
    C            1.715788139908    -1.534257788277    -0.738230480519
    H           -0.416793823643    -1.399568943144    -0.543410379269
    H            0.260648449531    -0.213652740521    -1.630783783666
    H            1.894810086311    -2.053997697015     0.198896933218
    H            1.674653020461    -2.280082782784    -1.524867815098
    H            2.573257578343    -0.896501960787    -0.931912300969

  Mulliken Charges: (a.u.)
   Center  Symbol    Alpha    Beta     Spin     Total
       1     H     0.41239  0.41239  0.00000  0.17522
       2     C     3.08152  3.08152  0.00000 -0.16305
       3     O     4.30800  4.30800  0.00000 -0.61600
       4     H     0.42740  0.42740  0.00000  0.14520
       5     H     0.43219  0.43219  0.00000  0.13563
       6     C     2.98072  2.98072  0.00000  0.03856
       7     C     3.17420  3.17420  0.00000 -0.34839
       8     H     0.43225  0.43225  0.00000  0.13549
       9     H     0.41684  0.41684  0.00000  0.16633
      10     C     3.24613  3.24613  0.00000 -0.49227
      11     H     0.41988  0.41988  0.00000  0.16024
      12     H     0.41432  0.41432  0.00000  0.17137
      13     H     0.41999  0.41999  0.00000  0.16003
      14     H     0.41539  0.41539  0.00000  0.16921
      15     H     0.41878  0.41878  0.00000  0.16243

   Total alpha = 21.00000, Total beta = 21.00000, Total charge = -0.00000
