                              Psi4 1.0.54 Driver

  ==> Input File <==

--------------------------------------------------------------------------
set {
	reference rhf
	basis cc-pvtz
}

set_num_threads( 4 )
memory 2 gb

molecule MOL {
0 1

H	 -2.816458	 -0.841657	 -0.064679
N	 -1.878861	 -0.711874	 0.250184
C	 -1.341419	 0.551458	 -0.220231
H	 -1.333674	 -1.468530	 -0.105118
C	 -2.310626	 1.676960	 0.060005
H	 -0.380712	 0.806474	 0.225362
H	 -1.195907	 0.488868	 -1.293059
O	 -2.439627	 1.826395	 1.441575
H	 -1.942137	 2.600981	 -0.383363
H	 -3.276240	 1.446918	 -0.384515
C	 -3.360477	 2.789591	 1.833375
H	 -3.372389	 2.818275	 2.913385
H	 -3.088154	 3.774906	 1.460966
H	 -4.360361	 2.551969	 1.477943

	symmetry c1
}
set optking {
	frozen_dihedral = ("
		6 3 2 4
	")
}

ee,wfn = optimize('scf', return_wfn=True)
oeprop( wfn, 'DIPOLE', 'QUADRUPOLE', 'MULLIKEN_CHARGES')
f=open( 'psi4out.xyz', 'w' )
f.write( "14  " )
f.write( str(ee) + "\n" )
f.write( MOL.save_string_xyz() )
f.close()
--------------------------------------------------------------------------

    Molecular point group: c1
  Charge       = 0
  Multiplicity = 1
  Basis Set: CC-PVTZ
  Basis Set:
  @DF-RHF Final Energy:  -248.21890907931052
    Total Energy =                       -248.2189090793104924
    Molecular point group: c1
  Basis Set: CC-PVTZ
  Basis Set:
  Basis Set: CC-PVTZ
  Basis Set:
  @DF-RHF Final Energy:  -248.22076140850467
    Total Energy =                       -248.2207614085048704
  Basis Set: CC-PVTZ
  Basis Set:
  Basis Set: CC-PVTZ
  Basis Set:
  @DF-RHF Final Energy:  -248.22097223120213
    Total Energy =                       -248.2209722312022109
  Basis Set: CC-PVTZ
  Basis Set:
  Basis Set: CC-PVTZ
  Basis Set:
  @DF-RHF Final Energy:  -248.22098802503402
    Total Energy =                       -248.2209880250340461
  Basis Set: CC-PVTZ
  Basis Set:
  Charge       = 0
  Multiplicity = 1
  Basis Set: CC-PVTZ
  Basis Set:

    Orbital Energies (a.u.)
    -----------------------

    Doubly Occupied:

       1A    -20.545760     2A    -15.525975     3A    -11.267420
       4A    -11.260782     5A    -11.241577     6A     -1.382216
       7A     -1.177810     8A     -1.000913     9A     -0.905274
      10A     -0.820029    11A     -0.684314    12A     -0.667659
      13A     -0.652633    14A     -0.615642    15A     -0.591671
      16A     -0.564993    17A     -0.520201    18A     -0.500943
      19A     -0.466300    20A     -0.418098    21A     -0.383864

  @DF-RHF Final Energy:  -248.22098880923079

   => Energetics <=

    Nuclear Repulsion Energy =            193.6950624358771620
    One-Electron Energy =                -721.4439512586884575
    Two-Electron Energy =                 279.5279000135805632
    DFT Exchange-Correlation Energy =       0.0000000000000000
    Empirical Dispersion Energy =           0.0000000000000000
    PCM Polarization Energy =               0.0000000000000000
    EFP Energy =                            0.0000000000000000
    Total Energy =                       -248.2209888092307324
    Molecular point group: c1
  Basis Set: CC-PVTZ
  Basis Set:

  -Total Gradient:
     Atom            X                  Y                   Z
    ------   -----------------  -----------------  -----------------
       1        0.000018294397    -0.000012280622     0.000012282402
       2        0.001033982364     0.000195980382     0.001883324822
       3        0.000596344705    -0.000773047178    -0.001725699613
       4       -0.000985550133     0.000013534632    -0.001318876932
       5        0.000038267668    -0.000063996030    -0.000038787708
       6       -0.000708748439     0.000645604875     0.001155380078
       7       -0.000009732293    -0.000002386235    -0.000004351872
       8        0.000001210594     0.000018204105    -0.000023395356
       9       -0.000001848865    -0.000030242549     0.000037012284
      10        0.000017372412    -0.000008907268    -0.000017573916
      11        0.000017302152     0.000039437328     0.000055253265
      12       -0.000020244111     0.000013619375    -0.000012585640
      13       -0.000008671735    -0.000028614667     0.000003719537
      14        0.000012021284    -0.000006906146    -0.000005701348

  **** Optimization is complete! (in 5 steps) ****
    Final optimized geometry and variables:
    Molecular point group: c1

    Geometry (in Angstrom), charge = 0, multiplicity = 1:

    H           -0.590056927980    -2.074215584232    -0.921896363205
    N            0.343411639732    -1.954732475468    -0.586845368454
    C            0.864526752162    -0.654427299874    -0.970276821936
    H            0.888826814606    -2.687689719984    -0.988233235552
    C           -0.061715713885     0.470999985832    -0.559362909967
    H            1.813648835610    -0.501818142437    -0.470553815648
    H            1.034649571320    -0.558847390984    -2.043091395169
    O           -0.108551267976     0.581424135943     0.824178231707
    H            0.298023876491     1.401169827281    -0.998441642098
    H           -1.062025914887     0.293598469101    -0.959146546415
    C           -0.959631390141     1.572743187581     1.291531162371
    H           -0.909186853208     1.570763384887     2.370550686600
    H           -0.666118491989     2.556436006149     0.929443407359
    H           -1.989222058353     1.390371784981     0.990015323713

  Mulliken Charges: (a.u.)
   Center  Symbol    Alpha    Beta     Spin     Total
       1     H     0.43444  0.43444  0.00000  0.13111
       2     N     3.68037  3.68037  0.00000 -0.36075
       3     C     3.01955  3.01955  0.00000 -0.03911
       4     H     0.43128  0.43128  0.00000  0.13744
       5     C     2.96708  2.96708  0.00000  0.06585
       6     H     0.45609  0.45609  0.00000  0.08782
       7     H     0.47051  0.47051  0.00000  0.05898
       8     O     4.16549  4.16549  0.00000 -0.33097
       9     H     0.47073  0.47073  0.00000  0.05854
      10     H     0.47983  0.47983  0.00000  0.04034
      11     C     3.03203  3.03203  0.00000 -0.06406
      12     H     0.44605  0.44605  0.00000  0.10789
      13     H     0.47359  0.47359  0.00000  0.05281
      14     H     0.47295  0.47295  0.00000  0.05410

   Total alpha = 21.00000, Total beta = 21.00000, Total charge =  0.00000

*** Psi4 exiting successfully. Buy a developer a beer!
