  ==> Input File <==

--------------------------------------------------------------------------
set {
	reference rhf
	basis 6-31G*
}

set_num_threads( 1 )
memory 2 gb

molecule MOL {
0 1

O	 -2.439739	 -0.935931	 -0.423848
C	 -1.921153	 0.064240	 -0.045697
C	 -2.624470	 1.379923	 0.150949
O	 -0.632575	 0.154573	 0.251549
H	 -2.168117	 2.136577	 -0.476876
H	 -3.669540	 1.273223	 -0.098610
H	 -2.519365	 1.700893	 1.180846
C	 0.160891	 -1.019931	 0.106212
C	 1.589627	 -0.672828	 0.480843
H	 0.089836	 -1.367806	 -0.916050
H	 -0.238459	 -1.792301	 0.749618
C	 2.289103	 0.246167	 -0.522442
H	 2.141086	 -1.606904	 0.566443
H	 1.592927	 -0.215956	 1.467005
C	 3.733157	 0.553216	 -0.128194
H	 2.273891	 -0.219364	 -1.505879
H	 1.731175	 1.172667	 -0.610042
H	 4.206572	 1.206650	 -0.854097
H	 4.325899	 -0.355029	 -0.064742
H	 3.779065	 1.045625	 0.839021

	symmetry c1
}
set optking {
	frozen_dihedral = ("
		16 12 9 8,
		2 4 8 10,
		1 2 4 8
	")
}

ee = energy('scf')
oeprop('DIPOLE', 'QUADRUPOLE', 'MULLIKEN_CHARGES')
f=open( 'psi4out.xyz', 'w' )
f.write( "20  " )
f.write( str(ee) + "\n" )
f.write( MOL.save_string_xyz() )
f.close()
--------------------------------------------------------------------------

    Molecular point group: c1

    Geometry (in Angstrom), charge = 0, multiplicity = 1:

       Center              X                  Y                   Z               Mass
    ------------   -----------------  -----------------  -----------------  -----------------
           O         -2.450246671058    -0.911063342756    -0.406816723463    15.994914619560
           C         -1.931660671058     0.089107657244    -0.028665723463    12.000000000000
           C         -2.634977671058     1.404790657244     0.167980276537    12.000000000000
           O         -0.643082671058     0.179440657244     0.268580276537    15.994914619560
           H         -2.178624671058     2.161444657244    -0.459844723463     1.007825032070
           H         -3.680047671058     1.298090657244    -0.081578723463     1.007825032070
           H         -2.529872671058     1.725760657244     1.197877276537     1.007825032070
           C          0.150383328942    -0.995063342756     0.123243276537    12.000000000000
           C          1.579119328942    -0.647960342756     0.497874276537    12.000000000000
           H          0.079328328942    -1.342938342756    -0.899018723463     1.007825032070
           H         -0.248966671058    -1.767433342756     0.766649276537     1.007825032070
           C          2.278595328942     0.271034657244    -0.505410723463    12.000000000000
           H          2.130578328942    -1.582036342756     0.583474276537     1.007825032070
           H          1.582419328942    -0.191088342756     1.484036276537     1.007825032070
           C          3.722649328942     0.578083657244    -0.111162723463    12.000000000000
           H          2.263383328942    -0.194496342756    -1.488847723463     1.007825032070
           H          1.720667328942     1.197534657244    -0.593010723463     1.007825032070
           H          4.196064328942     1.231517657244    -0.837065723463     1.007825032070
           H          4.315391328942    -0.330161342756    -0.047710723463     1.007825032070
           H          3.768557328942     1.070492657244     0.856052276537     1.007825032070

  Charge       = 0
  Multiplicity = 1
  Basis Set: 6-31G*
  Basis Set:

    Orbital Energies (a.u.)
    -----------------------

    Doubly Occupied:

       1A    -20.601717     2A    -20.544052     3A    -11.374446
       4A    -11.282225     5A    -11.233393     6A    -11.225407
       7A    -11.221088     8A    -11.213682     9A     -1.467883
      10A     -1.362149    11A     -1.086209    12A     -1.028398
      13A     -0.981427    14A     -0.880303    15A     -0.810591
      16A     -0.776587    17A     -0.689549    18A     -0.682927
      19A     -0.667080    20A     -0.631238    21A     -0.601779
      22A     -0.592598    23A     -0.572112    24A     -0.550923
      25A     -0.544867    26A     -0.530566    27A     -0.512257
      28A     -0.483192    29A     -0.475763    30A     -0.472818
      31A     -0.448554    32A     -0.438604

  @DF-RHF Final Energy:  -383.94554121441075

   => Energetics <=

    Nuclear Repulsion Energy =            384.6675999166520228
    One-Electron Energy =               -1285.2573870197829820
    Two-Electron Energy =                 516.6442458887198654
    DFT Exchange-Correlation Energy =       0.0000000000000000
    Empirical Dispersion Energy =           0.0000000000000000
    PCM Polarization Energy =               0.0000000000000000
    EFP Energy =                            0.0000000000000000
    Total Energy =                       -383.9455412144110369

  Mulliken Charges: (a.u.)
   Center  Symbol    Alpha    Beta     Spin     Total
       1     O     4.28333  4.28333  0.00000 -0.56666
       2     C     2.61930  2.61930  0.00000  0.76140
       3     C     3.28163  3.28163  0.00000 -0.56326
       4     O     4.30877  4.30877  0.00000 -0.61755
       5     H     0.40071  0.40071  0.00000  0.19858
       6     H     0.39689  0.39689  0.00000  0.20623
       7     H     0.40067  0.40067  0.00000  0.19867
       8     C     3.00269  3.00269  0.00000 -0.00537
       9     C     3.16448  3.16448  0.00000 -0.32896
      10     H     0.41049  0.41049  0.00000  0.17902
      11     H     0.40847  0.40847  0.00000  0.18305
      12     C     3.15531  3.15531  0.00000 -0.31061
      13     H     0.41834  0.41834  0.00000  0.16331
      14     H     0.41369  0.41369  0.00000  0.17263
      15     C     3.24042  3.24042  0.00000 -0.48084
      16     H     0.42250  0.42250  0.00000  0.15501
      17     H     0.41288  0.41288  0.00000  0.17423
      18     H     0.41749  0.41749  0.00000  0.16502
      19     H     0.42150  0.42150  0.00000  0.15700
      20     H     0.42045  0.42045  0.00000  0.15910

   Total alpha = 32.00000, Total beta = 32.00000, Total charge = -0.00000
