  ==> Input File <==

--------------------------------------------------------------------------
set {
	reference rhf
	basis 6-31G*
}

set_num_threads( 1 )
memory 2 gb

molecule MOL {
0 1

H	 -2.698709	 -0.000305	 0.034435
C	 -1.693833	 0.000034	 0.434417
O	 -0.828952	 -0.000968	 -0.659236
H	 -1.574200	 0.882896	 1.055746
H	 -1.574147	 -0.881698	 1.057355
C	 -1.034397	 -0.949412	 -1.680387
C	 -0.843725	 -2.384430	 -1.193267
C	 -2.366185	 -0.753461	 -2.402122
H	 -0.240275	 -0.729647	 -2.384024
H	 0.086677	 -2.474402	 -0.642988
H	 -0.805142	 -3.061850	 -2.040526
H	 -1.655202	 -2.711668	 -0.550940
H	 -2.489892	 0.285524	 -2.687891
H	 -2.393150	 -1.359680	 -3.302253
H	 -3.212889	 -1.043571	 -1.788306

	symmetry c1
}
set optking {
	frozen_dihedral = ("
		9 6 3 2
	")
}

ee = energy('scf')
oeprop('DIPOLE', 'QUADRUPOLE', 'MULLIKEN_CHARGES')
f=open( 'psi4out.xyz', 'w' )
f.write( "15  " )
f.write( str(ee) + "\n" )
f.write( MOL.save_string_xyz() )
f.close()
--------------------------------------------------------------------------

    Molecular point group: c1

    Geometry (in Angstrom), charge = 0, multiplicity = 1:

       Center              X                  Y                   Z               Mass
    ------------   -----------------  -----------------  -----------------  -----------------
           H         -1.332449247960     0.812997984550     1.114153281942     1.007825032070
           C         -0.327573247960     0.813336984550     1.514135281942    12.000000000000
           O          0.537307752040     0.812334984550     0.420482281942    15.994914619560
           H         -0.207940247960     1.696198984550     2.135464281942     1.007825032070
           H         -0.207887247960    -0.068395015450     2.137073281942     1.007825032070
           C          0.331862752040    -0.136109015450    -0.600668718058    12.000000000000
           C          0.522534752040    -1.571127015450    -0.113548718058    12.000000000000
           C         -0.999925247960     0.059841984550    -1.322403718058    12.000000000000
           H          1.125984752040     0.083655984550    -1.304305718058     1.007825032070
           H          1.452936752040    -1.661099015450     0.436730281942     1.007825032070
           H          0.561117752040    -2.248547015450    -0.960807718058     1.007825032070
           H         -0.288942247960    -1.898365015450     0.528778281942     1.007825032070
           H         -1.123632247960     1.098826984550    -1.608172718058     1.007825032070
           H         -1.026890247960    -0.546377015450    -2.222534718058     1.007825032070
           H         -1.846629247960    -0.230268015450    -0.708587718058     1.007825032070

  Charge       = 0
  Multiplicity = 1
  Basis Set: 6-31G*
  Basis Set:

    Orbital Energies (a.u.)
    -----------------------

    Doubly Occupied:

       1A    -20.546380     2A    -11.275295     3A    -11.261191
       4A    -11.210910     5A    -11.210642     6A     -1.369783
       7A     -1.050325     8A     -0.940037     9A     -0.931288
      10A     -0.781373    11A     -0.674027    12A     -0.641208
      13A     -0.633050    14A     -0.576445    15A     -0.565923
      16A     -0.550448    17A     -0.533770    18A     -0.500353
      19A     -0.496506    20A     -0.440288    21A     -0.405017

  @DF-RHF Final Energy:  -232.13497850511348

   => Energetics <=

    Nuclear Repulsion Energy =            198.9304462338102155
    One-Electron Energy =                -708.9420233988212203
    Two-Electron Energy =                 277.8765986598978657
    DFT Exchange-Correlation Energy =       0.0000000000000000
    Empirical Dispersion Energy =           0.0000000000000000
    PCM Polarization Energy =               0.0000000000000000
    EFP Energy =                            0.0000000000000000
    Total Energy =                       -232.1349785051131107

  Mulliken Charges: (a.u.)
   Center  Symbol    Alpha    Beta     Spin     Total
       1     H     0.43075  0.43075  0.00000  0.13850
       2     C     3.08048  3.08048  0.00000 -0.16096
       3     O     4.31328  4.31328  0.00000 -0.62656
       4     H     0.41256  0.41256  0.00000  0.17487
       5     H     0.42896  0.42896  0.00000  0.14209
       6     C     2.90897  2.90897  0.00000  0.18206
       7     C     3.25310  3.25310  0.00000 -0.50620
       8     C     3.25473  3.25473  0.00000 -0.50945
       9     H     0.41452  0.41452  0.00000  0.17097
      10     H     0.41123  0.41123  0.00000  0.17754
      11     H     0.41944  0.41944  0.00000  0.16111
      12     H     0.42141  0.42141  0.00000  0.15717
      13     H     0.41105  0.41105  0.00000  0.17790
      14     H     0.41871  0.41871  0.00000  0.16258
      15     H     0.42081  0.42081  0.00000  0.15838

   Total alpha = 21.00000, Total beta = 21.00000, Total charge =  0.00000
