                              Psi4 1.0.54 Driver

  ==> Input File <==

--------------------------------------------------------------------------
set {
	reference rhf
	basis cc-pvtz
}

set_num_threads( 4 )
memory 2 gb

molecule MOL {
0 1

H	 2.614283	 2.028610	 0.296620
O	 3.358864	 1.662087	 -0.142800
C	 3.565468	 0.338079	 0.273842
C	 2.533667	 -0.637565	 -0.272227
H	 4.548038	 0.064914	 -0.086598
H	 3.593945	 0.282242	 1.360360
C	 1.114816	 -0.402372	 0.240993
H	 2.544552	 -0.580764	 -1.356576
H	 2.850574	 -1.642962	 -0.005497
C	 0.896906	 1.024057	 0.743639
H	 0.901913	 -1.103776	 1.040811
H	 0.403986	 -0.611909	 -0.556566
C	 -0.528768	 1.337265	 1.201468
H	 1.587775	 1.224626	 1.558929
H	 1.161149	 1.714529	 -0.052535
C	 -0.982208	 0.595337	 2.457525
H	 -0.600356	 2.405492	 1.386652
H	 -1.220724	 1.125605	 0.389340
C	 -2.371746	 1.014998	 2.930260
H	 -0.264721	 0.771811	 3.255984
H	 -0.981866	 -0.475781	 2.279453
C	 -2.829116	 0.273461	 4.181990
H	 -2.377192	 2.084227	 3.123384
H	 -3.088400	 0.847221	 2.130685
H	 -2.149774	 0.447216	 5.009964
H	 -3.816467	 0.596579	 4.491573
H	 -2.870814	 -0.797057	 4.009930

	symmetry c1
}
set optking {
	frozen_dihedral = ("
		10 7 4 8
	")
}

ee,wfn = optimize('scf', return_wfn=True)
oeprop( wfn, 'DIPOLE', 'QUADRUPOLE', 'MULLIKEN_CHARGES')
f=open( 'psi4out.xyz', 'w' )
f.write( "27  " )
f.write( str(ee) + "\n" )
f.write( MOL.save_string_xyz() )
f.close()
--------------------------------------------------------------------------

    Molecular point group: c1
  Charge       = 0
  Multiplicity = 1
  Basis Set: CC-PVTZ
  Basis Set:
  @DF-RHF Final Energy:  -388.40541186146720
    Total Energy =                       -388.4054118614675417
    Molecular point group: c1
  Basis Set: CC-PVTZ
  Basis Set:
  Basis Set: CC-PVTZ
  Basis Set:
  @DF-RHF Final Energy:  -388.41473020582839
    Total Energy =                       -388.4147302058286186
  Basis Set: CC-PVTZ
  Basis Set:
  Basis Set: CC-PVTZ
  Basis Set:
  @DF-RHF Final Energy:  -388.41825137239670
    Total Energy =                       -388.4182513723970942
  Basis Set: CC-PVTZ
  Basis Set:
  Basis Set: CC-PVTZ
  Basis Set:
  @DF-RHF Final Energy:  -388.41880105174619
    Total Energy =                       -388.4188010517459588
  Basis Set: CC-PVTZ
  Basis Set:
  Basis Set: CC-PVTZ
  Basis Set:
  @DF-RHF Final Energy:  -388.41896152739821
    Total Energy =                       -388.4189615273979825
  Basis Set: CC-PVTZ
  Basis Set:
  Basis Set: CC-PVTZ
  Basis Set:
  @DF-RHF Final Energy:  -388.41901398642523
    Total Energy =                       -388.4190139864251705
  Basis Set: CC-PVTZ
  Basis Set:
  Basis Set: CC-PVTZ
  Basis Set:
  @DF-RHF Final Energy:  -388.41902408042671
    Total Energy =                       -388.4190240804265386
  Basis Set: CC-PVTZ
  Basis Set:
  Charge       = 0
  Multiplicity = 1
  Basis Set: CC-PVTZ
  Basis Set:

    Orbital Energies (a.u.)
    -----------------------

    Doubly Occupied:

       1A    -20.542268     2A    -11.264863     3A    -11.220800
       4A    -11.217211     5A    -11.216556     6A    -11.215415
       7A    -11.213921     8A    -11.213549     9A    -11.208464
      10A     -1.361204    11A     -1.097175    12A     -1.060652
      13A     -1.013650    14A     -0.950374    15A     -0.892998
      16A     -0.828380    17A     -0.801066    18A     -0.776233
      19A     -0.695817    20A     -0.650526    21A     -0.635215
      22A     -0.622599    23A     -0.599852    24A     -0.583249
      25A     -0.571503    26A     -0.564041    27A     -0.549598
      28A     -0.527888    29A     -0.518301    30A     -0.499467
      31A     -0.478778    32A     -0.477486    33A     -0.468705
      34A     -0.464943    35A     -0.448309    36A     -0.439291
      37A     -0.425001

  @DF-RHF Final Energy:  -388.41902542903557

   => Energetics <=

    Nuclear Repulsion Energy =            466.4012000025314251
    One-Electron Energy =               -1451.0097486881390978
    Two-Electron Energy =                 596.1895232565723290
    DFT Exchange-Correlation Energy =       0.0000000000000000
    Empirical Dispersion Energy =           0.0000000000000000
    PCM Polarization Energy =               0.0000000000000000
    EFP Energy =                            0.0000000000000000
    Total Energy =                       -388.4190254290354005
    Molecular point group: c1
  Basis Set: CC-PVTZ
  Basis Set:

  -Total Gradient:
     Atom            X                  Y                   Z
    ------   -----------------  -----------------  -----------------
       1        0.000063014149    -0.000016445779     0.000015814221
       2       -0.000094965155     0.000011768535    -0.000002620590
       3        0.000004461944    -0.000080548384     0.000015701071
       4        0.001357511530     0.006835580542     0.001619196246
       5        0.000007107232     0.000020810858    -0.000008823281
       6       -0.000015804760     0.000034866399    -0.000006832960
       7       -0.002094466740    -0.000247485960    -0.005860944076
       8       -0.000628944979    -0.005751052410     0.000166737530
       9        0.000006744689    -0.000012270040     0.000016171125
      10        0.001345802835    -0.000748696602     0.003995654426
      11        0.000037275646     0.000001769247    -0.000001279385
      12       -0.000011260746    -0.000023126432     0.000010332935
      13        0.000033285930     0.000006421289    -0.000019809593
      14       -0.000004202164    -0.000016215690     0.000041024661
      15        0.000031136012    -0.000007015690     0.000020885948
      16       -0.000035103638    -0.000003545922     0.000019805173
      17       -0.000008582512    -0.000002436974     0.000001209045
      18       -0.000019793981    -0.000010931543    -0.000005553986
      19        0.000015456321    -0.000002412107    -0.000001800098
      20        0.000008693311     0.000004577557     0.000003874545
      21       -0.000008368438     0.000000463667    -0.000004590680
      22       -0.000000276368     0.000003029035    -0.000005351109
      23        0.000001583945     0.000008910342    -0.000000119537
      24       -0.000003125666    -0.000001308825    -0.000006691462
      25        0.000005472525     0.000001172880     0.000004123537
      26        0.000005675266     0.000001740946    -0.000006376844
      27        0.000001673804    -0.000007618939     0.000000263142

  **** Optimization is complete! (in 8 steps) ****
    Final optimized geometry and variables:
    Molecular point group: c1

    Geometry (in Angstrom), charge = 0, multiplicity = 1:

    H            2.337278599719     1.695697430656    -1.312675897279
    O            3.050764139043     1.190765535631    -1.652595727319
    C            3.091824674522    -0.071542484362    -1.042547115397
    C            2.021387082731    -1.042235492008    -1.522967003227
    H            4.060503345238    -0.481670739674    -1.294337204906
    H            3.062077371555     0.024962608786     0.040378104345
    C            0.573783722621    -0.870425622038    -1.007724299470
    H            2.032715944577    -1.074934308742    -2.607084697177
    H            2.350968262234    -2.032678119772    -1.218588693008
    C            0.136467316827     0.535452704193    -0.588986535349
    H            0.447028859316    -1.524572704548    -0.152423681594
    H           -0.109422461073    -1.238288323860    -1.766060368026
    C           -1.312315008639     0.620664292324    -0.099863728631
    H            0.789056886980     0.908697624819     0.196158453010
    H            0.238812316531     1.209130635651    -1.435304886377
    C           -1.593483947275    -0.080248784430     1.228224987293
    H           -1.574789769319     1.669856077693     0.003377380052
    H           -1.971432806583     0.219481112421    -0.865884618773
    C           -3.023796551569     0.127883459758     1.719436303362
    H           -0.900519028961     0.288845234079     1.981476642230
    H           -1.406574737951    -1.145445639621     1.137648595155
    C           -3.311114789179    -0.573162417435     3.042912107736
    H           -3.215443016480     1.191974483132     1.826811359565
    H           -3.717716212292    -0.231077451935     0.964171312819
    H           -2.654466650869    -0.212268846382     3.827659894745
    H           -4.332631583596    -0.403878725007     3.363451649918
    H           -3.164705538806    -1.644889417642     2.958348707459

  Mulliken Charges: (a.u.)
   Center  Symbol    Alpha    Beta     Spin     Total
       1     H     0.38894  0.38894  0.00000  0.22212
       2     O     4.20752  4.20752  0.00000 -0.41504
       3     C     2.98668  2.98668  0.00000  0.02664
       4     C     3.09686  3.09686  0.00000 -0.19372
       5     H     0.44389  0.44389  0.00000  0.11223
       6     H     0.46791  0.46791  0.00000  0.06418
       7     C     3.09733  3.09733  0.00000 -0.19466
       8     H     0.44889  0.44889  0.00000  0.10223
       9     H     0.45341  0.45341  0.00000  0.09319
      10     C     3.11176  3.11176  0.00000 -0.22353
      11     H     0.45130  0.45130  0.00000  0.09740
      12     H     0.44760  0.44760  0.00000  0.10481
      13     C     3.10117  3.10117  0.00000 -0.20234
      14     H     0.45389  0.45389  0.00000  0.09223
      15     H     0.44618  0.44618  0.00000  0.10765
      16     C     3.08822  3.08822  0.00000 -0.17645
      17     H     0.44743  0.44743  0.00000  0.10513
      18     H     0.45202  0.45202  0.00000  0.09595
      19     C     3.08477  3.08477  0.00000 -0.16954
      20     H     0.45551  0.45551  0.00000  0.08898
      21     H     0.45273  0.45273  0.00000  0.09454
      22     C     3.14964  3.14964  0.00000 -0.29929
      23     H     0.45379  0.45379  0.00000  0.09242
      24     H     0.45406  0.45406  0.00000  0.09189
      25     H     0.45517  0.45517  0.00000  0.08967
      26     H     0.44804  0.44804  0.00000  0.10393
      27     H     0.45531  0.45531  0.00000  0.08938

   Total alpha = 37.00000, Total beta = 37.00000, Total charge = -0.00000

*** Psi4 exiting successfully. Buy a developer a beer!
