  ==> Input File <==

--------------------------------------------------------------------------
set {
	reference rhf
	basis 6-31G*
}

set_num_threads( 4 )
memory 2 gb

molecule MOL {
0 1

H	 -1.836216	 1.387520	 -0.000064
C	 -1.301823	 0.443321	 -0.000031
O	 -0.003969	 0.658512	 0.000451
O	 -1.829879	 -0.616434	 -0.000857
C	 0.713792	 0.337330	 1.191605
C	 2.170163	 0.668407	 0.947283
H	 0.571715	 -0.711740	 1.412021
H	 0.303359	 0.910332	 2.011672
H	 2.562085	 0.091264	 0.117623
H	 2.753564	 0.437522	 1.832477
H	 2.292599	 1.721170	 0.720156

	symmetry c1
}
set optking {
	frozen_dihedral = ("
		5 3 2 4
	")
}

ee = optimize('scf')
oeprop('DIPOLE', 'QUADRUPOLE', 'MULLIKEN_CHARGES')
f=open( 'psi4out.xyz', 'w' )
f.write( "11  " )
f.write( str(ee) + "\n" )
f.write( MOL.save_string_xyz() )
f.close()
--------------------------------------------------------------------------

    Molecular point group: c1
  Charge       = 0
  Multiplicity = 1
  Basis Set: 6-31G*
  Basis Set:
  @DF-RHF Final Energy:  -266.81072925247395
    Total Energy =                       -266.8107292524738909
    Molecular point group: c1
  Basis Set: 6-31G*
  Basis Set:
  Basis Set: 6-31G*
  Basis Set:
  @DF-RHF Final Energy:  -266.80672621166855
    Total Energy =                       -266.8067262116686038
  Basis Set: 6-31G*
  Basis Set:
  Basis Set: 6-31G*
  Basis Set:
  @DF-RHF Final Energy:  -266.81160278774689
    Total Energy =                       -266.8116027877470060
  Basis Set: 6-31G*
  Basis Set:
  Basis Set: 6-31G*
  Basis Set:
  @DF-RHF Final Energy:  -266.81188023055836
    Total Energy =                       -266.8118802305581880
  Basis Set: 6-31G*
  Basis Set:
  Basis Set: 6-31G*
  Basis Set:
  @DF-RHF Final Energy:  -266.81188336191303
    Total Energy =                       -266.8118833619129759
  Basis Set: 6-31G*
  Basis Set:
  Charge       = 0
  Multiplicity = 1
  Basis Set: 6-31G*
  Basis Set:

    Orbital Energies (a.u.)
    -----------------------

    Doubly Occupied:

       1A    -20.594298     2A    -20.568954     3A    -11.380707
       4A    -11.299238     5A    -11.227672     6A     -1.466594
       7A     -1.376766     8A     -1.049566     9A     -0.891928
      10A     -0.819729    11A     -0.740065    12A     -0.687552
      13A     -0.653335    14A     -0.631099    15A     -0.563246
      16A     -0.541673    17A     -0.532993    18A     -0.505374
      19A     -0.463693    20A     -0.450926

  @DF-RHF Final Energy:  -266.81189519596700

   => Energetics <=

    Nuclear Repulsion Energy =            177.4731059884246633
    One-Electron Energy =                -715.6791862729749027
    Two-Electron Energy =                 271.3941850885832991
    DFT Exchange-Correlation Energy =       0.0000000000000000
    Empirical Dispersion Energy =           0.0000000000000000
    PCM Polarization Energy =               0.0000000000000000
    EFP Energy =                            0.0000000000000000
    Total Energy =                       -266.8118951959669403
    Molecular point group: c1
  Basis Set: 6-31G*
  Basis Set:

  -Total Gradient:
     Atom            X                  Y                   Z
    ------   -----------------  -----------------  -----------------
       1        0.000004595838    -0.000032962002     0.000016208771
       2       -0.000295506801     0.001819392162     0.011224005989
       3        0.001276259641    -0.006752988867    -0.006653571034
       4       -0.000055125260     0.000320509256    -0.006805975709
       5       -0.000962623500     0.004655721489     0.002181356691
       6       -0.000001332913    -0.000008066954     0.000038774896
       7        0.000016517278     0.000015425999    -0.000005614678
       8        0.000020921228    -0.000009266607    -0.000006984922
       9       -0.000016910620    -0.000003814791     0.000006240629
      10        0.000023605738     0.000002253537     0.000001852047
      11       -0.000010400629    -0.000006203219     0.000003707321

  **** Optimization is complete! (in 6 steps) ****
    Final optimized geometry and variables:
    Molecular point group: c1

    Geometry (in Angstrom), charge = 0, multiplicity = 1:

    H           -1.890302393823     1.035413485186    -0.444620659917
    C           -1.278465075742     0.137377754508    -0.419405724064
    O            0.028009608793     0.419044440614    -0.391510851467
    O           -1.732206496562    -0.948015485145    -0.494239311256
    C            0.756497507304     0.058368038856     0.780278028578
    C            2.219102836679     0.346479319938     0.522193940116
    H            0.591614668053    -0.990132718070     0.991348219713
    H            0.386828038592     0.642738829737     1.616578708378
    H            2.576940957782    -0.239279669724    -0.316045472887
    H            2.807124629480     0.094091420516     1.398604046656
    H            2.367136522014     1.396141461813     0.297114522354

  Mulliken Charges: (a.u.)
   Center  Symbol    Alpha    Beta     Spin     Total
       1     H     0.42095  0.42095  0.00000  0.15810
       2     C     2.72926  2.72926  0.00000  0.54148
       3     O     4.30383  4.30383  0.00000 -0.60766
       4     O     4.23468  4.23468  0.00000 -0.46936
       5     C     3.00467  3.00467  0.00000 -0.00934
       6     C     3.24778  3.24778  0.00000 -0.49557
       7     H     0.40653  0.40653  0.00000  0.18695
       8     H     0.41961  0.41961  0.00000  0.16079
       9     H     0.40669  0.40669  0.00000  0.18662
      10     H     0.41610  0.41610  0.00000  0.16781
      11     H     0.40991  0.40991  0.00000  0.18018

   Total alpha = 20.00000, Total beta = 20.00000, Total charge = -0.00000
