  ==> Input File <==

--------------------------------------------------------------------------
set {
	reference rhf
	basis cc-pvtz
}

set_num_threads( 4 )
memory 2 gb

molecule MOL {
0 1

H	 -3.034039	 -0.667848	 0.004703
O	 -2.240597	 -1.171748	 0.000934
C	 -1.159675	 -0.364500	 0.000370
C	 -0.917365	 0.547360	 -1.006710
C	 -0.279348	 -0.481713	 1.064954
H	 -1.597431	 0.638494	 -1.833912
C	 0.215833	 1.339379	 -0.937446
H	 -0.495650	 -1.201850	 1.830167
C	 0.848930	 0.310532	 1.133625
H	 0.409327	 2.047882	 -1.720616
C	 1.094136	 1.227843	 0.116570
C	 1.793925	 0.199767	 2.303394
H	 1.969703	 1.847904	 0.153571
H	 2.825119	 0.215642	 1.972926
H	 1.630149	 -0.714680	 2.857209
H	 1.656136	 1.031594	 2.985832

	symmetry c1
}
set optking {
	frozen_dihedral = ("
		5 3 2 1
	")
}

ee = optimize('scf')
oeprop('DIPOLE', 'QUADRUPOLE', 'MULLIKEN_CHARGES')
f=open( 'psi4out.xyz', 'w' )
f.write( "16  " )
f.write( str(ee) + "\n" )
f.write( MOL.save_string_xyz() )
f.close()
--------------------------------------------------------------------------

    Molecular point group: c1
  Charge       = 0
  Multiplicity = 1
  Basis Set: CC-PVTZ
  Basis Set:
  @DF-RHF Final Energy:  -344.71681600536022
    Total Energy =                       -344.7168160053602151
    Molecular point group: c1
  Basis Set: CC-PVTZ
  Basis Set:
  Basis Set: CC-PVTZ
  Basis Set:
  @DF-RHF Final Energy:  -344.71715454499321
    Total Energy =                       -344.7171545449932637
  Basis Set: CC-PVTZ
  Basis Set:
  Basis Set: CC-PVTZ
  Basis Set:
  @DF-RHF Final Energy:  -344.71719271763703
    Total Energy =                       -344.7171927176366921
  Basis Set: CC-PVTZ
  Basis Set:
  Basis Set: CC-PVTZ
  Basis Set:
  @DF-RHF Final Energy:  -344.71719664371773
    Total Energy =                       -344.7171966437173865
  Basis Set: CC-PVTZ
  Basis Set:
  Basis Set: CC-PVTZ
  Basis Set:
  @DF-RHF Final Energy:  -344.71719766409001
    Total Energy =                       -344.7171976640902926
  Basis Set: CC-PVTZ
  Basis Set:
  Charge       = 0
  Multiplicity = 1
  Basis Set: CC-PVTZ
  Basis Set:

    Orbital Energies (a.u.)
    -----------------------

    Doubly Occupied:

       1A    -20.571937     2A    -11.288423     3A    -11.240255
       4A    -11.231717     5A    -11.220092     6A    -11.219930
       7A    -11.217602     8A    -11.216990     9A     -1.399600
      10A     -1.154781    11A     -1.046603    12A     -1.007832
      13A     -0.938845    14A     -0.828668    15A     -0.816918
      16A     -0.718790    17A     -0.680839    18A     -0.659283
      19A     -0.622068    20A     -0.593491    21A     -0.577391
      22A     -0.570607    23A     -0.553382    24A     -0.518306
      25A     -0.506970    26A     -0.485310    27A     -0.468699
      28A     -0.333450    29A     -0.319938

  @DF-RHF Final Energy:  -344.71719798792157

   => Energetics <=

    Nuclear Repulsion Energy =            345.9456713741645331
    One-Electron Energy =               -1153.3083046861711409
    Two-Electron Energy =                 462.6454353240847013
    DFT Exchange-Correlation Energy =       0.0000000000000000
    Empirical Dispersion Energy =           0.0000000000000000
    PCM Polarization Energy =               0.0000000000000000
    EFP Energy =                            0.0000000000000000
    Total Energy =                       -344.7171979879219634
    Molecular point group: c1
  Basis Set: CC-PVTZ
  Basis Set:

  -Total Gradient:
     Atom            X                  Y                   Z
    ------   -----------------  -----------------  -----------------
       1       -0.000043051872    -0.000053680875     0.002260947183
       2       -0.000406553237     0.000566067761    -0.002397072181
       3        0.001325305258    -0.001589015295    -0.000727890964
       4       -0.000026830360    -0.000001396119    -0.000005938772
       5       -0.000879671056     0.001052246809     0.000869167879
       6       -0.000001181359    -0.000000476456     0.000002305293
       7        0.000005597468    -0.000029725240     0.000005145666
       8        0.000006968392     0.000016571581    -0.000019192736
       9       -0.000000717283     0.000021321620    -0.000005628765
      10        0.000004134447     0.000001873040     0.000001896318
      11        0.000006576993     0.000013070375     0.000007560339
      12        0.000001956145     0.000002300298     0.000001491848
      13       -0.000004842691     0.000001662387     0.000008103550
      14        0.000005491552    -0.000008772661    -0.000000415120
      15       -0.000001676722     0.000004183920     0.000007333445
      16        0.000008494320     0.000003768853    -0.000007812983

  **** Optimization is complete! (in 6 steps) ****
    Final optimized geometry and variables:
    Molecular point group: c1

    Geometry (in Angstrom), charge = 0, multiplicity = 1:

    H           -2.919130477473    -0.837838868005    -0.378943674653
    O           -2.126230902429    -1.343826047507    -0.379368199203
    C           -1.036105010638    -0.524697578244    -0.345319179217
    C           -0.795414545550     0.382763199857    -1.356321063572
    C           -0.159305807853    -0.639081364321     0.717567572569
    H           -1.473846101741     0.453509530756    -2.184954151138
    C            0.334994217527     1.176334543109    -1.289974388717
    H           -0.377130400382    -1.356374637814     1.485189661688
    C            0.978246868548     0.146389787197     0.781987549500
    H            0.531412312396     1.883306608241    -2.073695466969
    C            1.216577472553     1.060441293274    -0.235601555144
    C            1.927759295480     0.033642769661     1.948357774029
    H            2.094332456673     1.678332968926    -0.203571569286
    H            2.957815502824     0.047319301642     1.614181487794
    H            1.764885302624    -0.881777008280     2.501019167465
    H            1.795289490064     0.863913817060     2.633825256702

  Mulliken Charges: (a.u.)
   Center  Symbol    Alpha    Beta     Spin     Total
       1     H     0.38652  0.38652  0.00000  0.22697
       2     O     4.18936  4.18936  0.00000 -0.37872
       3     C     2.85505  2.85505  0.00000  0.28990
       4     C     3.13331  3.13331  0.00000 -0.26662
       5     C     3.13943  3.13943  0.00000 -0.27887
       6     H     0.42181  0.42181  0.00000  0.15637
       7     C     3.06016  3.06016  0.00000 -0.12032
       8     H     0.41936  0.41936  0.00000  0.16127
       9     C     2.94312  2.94312  0.00000  0.11376
      10     H     0.42256  0.42256  0.00000  0.15487
      11     C     3.11027  3.11027  0.00000 -0.22054
      12     C     3.14647  3.14647  0.00000 -0.29294
      13     H     0.42716  0.42716  0.00000  0.14568
      14     H     0.44794  0.44794  0.00000  0.10412
      15     H     0.45014  0.45014  0.00000  0.09971
      16     H     0.44733  0.44733  0.00000  0.10535

   Total alpha = 29.00000, Total beta = 29.00000, Total charge =  0.00000
