                              Psi4 1.0.54 Driver

  ==> Input File <==

--------------------------------------------------------------------------
set {
	reference rhf
	basis cc-pvtz
}

set_num_threads( 4 )
memory 2 gb

molecule MOL {
0 1

O	 1.205475	 1.321786	 -0.136545
C	 1.091513	 0.173284	 -0.399257
C	 -0.200339	 -0.602916	 -0.389501
O	 2.111508	 -0.595462	 -0.744243
C	 -1.413045	 0.229353	 0.001137
H	 -0.322083	 -1.035391	 -1.377238
H	 -0.065408	 -1.441791	 0.285439
C	 -2.702562	 -0.586401	 0.000228
H	 -1.507657	 1.066609	 -0.681206
H	 -1.251114	 0.659295	 0.983213
C	 -3.953810	 0.284959	 -0.000782
H	 -2.717793	 -1.238567	 -0.869075
H	 -2.719108	 -1.238472	 0.869576
H	 -3.983727	 0.924403	 -0.876454
H	 -4.852989	 -0.320147	 -0.001515
H	 -3.985140	 0.924399	 0.874841
C	 3.389437	 0.005942	 -0.794551
H	 3.404695	 0.809300	 -1.516084
H	 4.073445	 -0.772869	 -1.090280
H	 3.665408	 0.396653	 0.173648

	symmetry c1
}
set optking {
	frozen_dihedral = ("
		9 5 8 12
	")
}

ee,wfn = optimize('scf', return_wfn=True)
oeprop( wfn, 'DIPOLE', 'QUADRUPOLE', 'MULLIKEN_CHARGES')
f=open( 'psi4out.xyz', 'w' )
f.write( "20  " )
f.write( str(ee) + "\n" )
f.write( MOL.save_string_xyz() )
f.close()
--------------------------------------------------------------------------

    Molecular point group: c1
  Charge       = 0
  Multiplicity = 1
  Basis Set: CC-PVTZ
  Basis Set:
  @DF-RHF Final Energy:  -384.08226978418600
    Total Energy =                       -384.0822697841861100
    Molecular point group: c1
  Basis Set: CC-PVTZ
  Basis Set:
  Basis Set: CC-PVTZ
  Basis Set:
  @DF-RHF Final Energy:  -384.08238272319136
    Total Energy =                       -384.0823827231912446
  Basis Set: CC-PVTZ
  Basis Set:
  Basis Set: CC-PVTZ
  Basis Set:
  @DF-RHF Final Energy:  -384.08225179951819
    Total Energy =                       -384.0822517995184171
  Basis Set: CC-PVTZ
  Basis Set:
  Basis Set: CC-PVTZ
  Basis Set:
  @DF-RHF Final Energy:  -384.08243010324929
    Total Energy =                       -384.0824301032490666
  Basis Set: CC-PVTZ
  Basis Set:
  Charge       = 0
  Multiplicity = 1
  Basis Set: CC-PVTZ
  Basis Set:

    Orbital Energies (a.u.)
    -----------------------

    Doubly Occupied:

       1A    -20.596495     2A    -20.534326     3A    -11.364810
       4A    -11.278620     5A    -11.234274     6A    -11.218309
       7A    -11.217121     8A    -11.209066     9A     -1.472391
      10A     -1.365997    11A     -1.089686    12A     -1.025598
      13A     -0.970105    14A     -0.886698    15A     -0.805000
      16A     -0.769772    17A     -0.699604    18A     -0.686674
      19A     -0.676119    20A     -0.644946    21A     -0.599040
      22A     -0.593433    23A     -0.580269    24A     -0.542057
      25A     -0.537134    26A     -0.524328    27A     -0.502088
      28A     -0.480256    29A     -0.474973    30A     -0.469310
      31A     -0.458935    32A     -0.440235

  @DF-RHF Final Energy:  -384.08243092263126

   => Energetics <=

    Nuclear Repulsion Energy =            381.6694656250778053
    One-Electron Energy =               -1279.6084596822563526
    Two-Electron Energy =                 513.8565631345476277
    DFT Exchange-Correlation Energy =       0.0000000000000000
    Empirical Dispersion Energy =           0.0000000000000000
    PCM Polarization Energy =               0.0000000000000000
    EFP Energy =                            0.0000000000000000
    Total Energy =                       -384.0824309226309197
    Molecular point group: c1
  Basis Set: CC-PVTZ
  Basis Set:

  -Total Gradient:
     Atom            X                  Y                   Z
    ------   -----------------  -----------------  -----------------
       1       -0.000028248259     0.000025439957     0.000005081237
       2        0.000010117887    -0.000007430856    -0.000010877165
       3        0.000033587986    -0.000016527912     0.000003113354
       4        0.000010572829    -0.000028654598    -0.000001650372
       5        0.001612375653    -0.002641879841    -0.002368414489
       6       -0.000000492981     0.000013457491     0.000004180405
       7       -0.000010897912     0.000009500185    -0.000003925454
       8       -0.001977105548     0.003057794018    -0.001436262984
       9       -0.001037680378     0.001706859781     0.002248488520
      10        0.000002809986    -0.000004014899    -0.000013571436
      11       -0.000043751669     0.000026137419    -0.000000433624
      12        0.001385815909    -0.002129162410     0.001587575461
      13        0.000002862622     0.000018933592    -0.000010853528
      14        0.000007495095    -0.000023343439     0.000026652229
      15        0.000014213819     0.000009989517    -0.000001622221
      16        0.000007468732    -0.000019471449    -0.000022364204
      17        0.000006619379     0.000011992811    -0.000004227525
      18        0.000004706109    -0.000004416545     0.000003590900
      19       -0.000001909422    -0.000003199365    -0.000000293145
      20        0.000001440162    -0.000002003453    -0.000004185957

  **** Optimization is complete! (in 5 steps) ****
    Final optimized geometry and variables:
    Molecular point group: c1

    Geometry (in Angstrom), charge = 0, multiplicity = 1:

    O            1.230436305140     1.283870259711     0.177042425585
    C            1.117140815925     0.136559003522    -0.090932169307
    C           -0.176862992751    -0.636101543871    -0.102775716359
    O            2.139657155778    -0.634128408721    -0.424005625655
    C           -1.393009064793     0.197747511029     0.268891744011
    H           -0.283756783560    -1.067762146903    -1.092362899992
    H           -0.055802891977    -1.475794151679     0.574099888875
    C           -2.682369998390    -0.621826219820     0.300594288207
    H           -1.497560803128     1.031010380261    -0.417054832679
    H           -1.230823798238     0.649976333912     1.241084114697
    C           -3.937869260779     0.239681949768     0.355800434152
    H           -2.720575638629    -1.283934803597    -0.560485591075
    H           -2.660601901068    -1.278721643263     1.166541755447
    H           -4.021987859493     0.864431277272    -0.526712396221
    H           -4.830920108899    -0.371279449215     0.416801704901
    H           -3.923767070075     0.893286181963     1.221499874539
    C            3.419877801318    -0.036361369570    -0.454849613236
    H            3.447525688973     0.768958069327    -1.173815489421
    H            4.105656125878    -0.816360907818    -0.743263597302
    H            3.683535137128     0.350812844326     0.518188262659

  Mulliken Charges: (a.u.)
   Center  Symbol    Alpha    Beta     Spin     Total
       1     O     4.19669  4.19669  0.00000 -0.39339
       2     C     2.80652  2.80652  0.00000  0.38697
       3     C     3.10009  3.10009  0.00000 -0.20017
       4     O     4.14661  4.14661  0.00000 -0.29322
       5     C     3.08214  3.08214  0.00000 -0.16427
       6     H     0.44005  0.44005  0.00000  0.11990
       7     H     0.43998  0.43998  0.00000  0.12004
       8     C     3.08684  3.08684  0.00000 -0.17368
       9     H     0.44782  0.44782  0.00000  0.10437
      10     H     0.44614  0.44614  0.00000  0.10771
      11     C     3.14866  3.14866  0.00000 -0.29732
      12     H     0.45667  0.45667  0.00000  0.08667
      13     H     0.45416  0.45416  0.00000  0.09169
      14     H     0.45420  0.45420  0.00000  0.09161
      15     H     0.44851  0.44851  0.00000  0.10299
      16     H     0.45327  0.45327  0.00000  0.09345
      17     C     3.03767  3.03767  0.00000 -0.07535
      18     H     0.45434  0.45434  0.00000  0.09131
      19     H     0.44533  0.44533  0.00000  0.10933
      20     H     0.45433  0.45433  0.00000  0.09135

   Total alpha = 32.00000, Total beta = 32.00000, Total charge = -0.00000

*** Psi4 exiting successfully. Buy a developer a beer!
