  ==> Input File <==

--------------------------------------------------------------------------
set {
	reference rhf
	basis 6-31G*
}

set_num_threads( 4 )
memory 2 gb

molecule MOL {
0 1

H	 -3.261111	 -0.295142	 1.469456
C	 -3.306842	 -0.277400	 0.373456
C	 -2.660244	 0.921717	 -0.272021
O	 -3.838538	 -1.161155	 -0.216482
C	 -1.220012	 1.144545	 0.209990
H	 -2.705793	 0.797307	 -1.347733
H	 -3.263782	 1.790044	 -0.010477
C	 -0.252658	 0.041456	 -0.226725
H	 -0.873521	 2.100229	 -0.171974
H	 -1.211708	 1.231594	 1.295398
C	 1.180775	 0.282413	 0.250794
H	 -0.266029	 -0.034465	 -1.312038
H	 -0.597733	 -0.921000	 0.146291
C	 2.148627	 -0.814315	 -0.201312
H	 1.516199	 1.249228	 -0.115937
H	 1.192670	 0.346017	 1.338083
C	 3.580890	 -0.659131	 0.322722
H	 2.166869	 -0.852443	 -1.289387
H	 1.762857	 -1.776509	 0.128956
C	 3.821833	 0.605104	 1.149327
H	 4.258398	 -0.653193	 -0.527511
H	 3.844827	 -1.533556	 0.914025
H	 3.550787	 1.495648	 0.588315
H	 3.246232	 0.605382	 2.068923
H	 4.869234	 0.693125	 1.421721

	symmetry c1
}
set optking {
	frozen_dihedral = ("
		20 17 14 18
	")
}

ee = optimize('scf')
oeprop('DIPOLE', 'QUADRUPOLE', 'MULLIKEN_CHARGES')
f=open( 'psi4out.xyz', 'w' )
f.write( "25  " )
f.write( str(ee) + "\n" )
f.write( MOL.save_string_xyz() )
f.close()
--------------------------------------------------------------------------

    Molecular point group: c1
  Charge       = 0
  Multiplicity = 1
  Basis Set: 6-31G*
  Basis Set:
  @DF-RHF Final Energy:  -387.11155670172951
    Total Energy =                       -387.1115567017288868
    Molecular point group: c1
  Basis Set: 6-31G*
  Basis Set:
  Basis Set: 6-31G*
  Basis Set:
  @DF-RHF Final Energy:  -387.11175904327865
    Total Energy =                       -387.1117590432788802
  Basis Set: 6-31G*
  Basis Set:
  Basis Set: 6-31G*
  Basis Set:
  @DF-RHF Final Energy:  -387.11351576275547
    Total Energy =                       -387.1135157627546732
  Basis Set: 6-31G*
  Basis Set:
  Basis Set: 6-31G*
  Basis Set:
  @DF-RHF Final Energy:  -387.11348098708186
    Total Energy =                       -387.1134809870819709
  Basis Set: 6-31G*
  Basis Set:
  Basis Set: 6-31G*
  Basis Set:
  @DF-RHF Final Energy:  -387.11363928414966
    Total Energy =                       -387.1136392841500538
  Basis Set: 6-31G*
  Basis Set:
  Basis Set: 6-31G*
  Basis Set:
  @DF-RHF Final Energy:  -387.11371074692659
    Total Energy =                       -387.1137107469263583
  Basis Set: 6-31G*
  Basis Set:
  Basis Set: 6-31G*
  Basis Set:
  @DF-RHF Final Energy:  -387.11371549764817
    Total Energy =                       -387.1137154976483998
  Basis Set: 6-31G*
  Basis Set:
  Charge       = 0
  Multiplicity = 1
  Basis Set: 6-31G*
  Basis Set:

    Orbital Energies (a.u.)
    -----------------------

    Doubly Occupied:

       1A    -20.561975     2A    -11.326135     3A    -11.235271
       4A    -11.234612     5A    -11.223783     6A    -11.219909
       7A    -11.218282     8A    -11.217217     9A    -11.210941
      10A     -1.401914    11A     -1.103132    12A     -1.066239
      13A     -1.012406    14A     -0.942080    15A     -0.878312
      16A     -0.823170    17A     -0.787859    18A     -0.774043
      19A     -0.664474    20A     -0.663937    21A     -0.637146
      22A     -0.621334    23A     -0.604198    24A     -0.587734
      25A     -0.573494    26A     -0.553983    27A     -0.532271
      28A     -0.522301    29A     -0.516275    30A     -0.495094
      31A     -0.490717    32A     -0.481868    33A     -0.461506
      34A     -0.448883    35A     -0.442142    36A     -0.409500

  @DF-RHF Final Energy:  -387.11371566615941

   => Energetics <=

    Nuclear Repulsion Energy =            439.9125556864626674
    One-Electron Energy =               -1396.1642680505028693
    Two-Electron Energy =                 569.1379966978815901
    DFT Exchange-Correlation Energy =       0.0000000000000000
    Empirical Dispersion Energy =           0.0000000000000000
    PCM Polarization Energy =               0.0000000000000000
    EFP Energy =                            0.0000000000000000
    Total Energy =                       -387.1137156661586687
    Molecular point group: c1
  Basis Set: 6-31G*
  Basis Set:

  -Total Gradient:
     Atom            X                  Y                   Z
    ------   -----------------  -----------------  -----------------
       1        0.000015390864    -0.000008322369    -0.000004264836
       2       -0.000029547795     0.000017297696    -0.000012104199
       3        0.000020084638    -0.000011427411     0.000007015878
       4        0.000009554888    -0.000019413659     0.000001908865
       5        0.000008716051     0.000002077296     0.000007170013
       6       -0.000002990643     0.000001848036     0.000001868391
       7        0.000007381542     0.000004291529     0.000004827111
       8       -0.000012985976    -0.000010263665     0.000006087977
       9        0.000008128883    -0.000009533815    -0.000002683764
      10       -0.000003438729     0.000012682596     0.000009686883
      11       -0.000022977447     0.000013035422    -0.000004646225
      12       -0.000006833387     0.000010487282    -0.000003550224
      13        0.000003216896    -0.000009489472    -0.000006482936
      14       -0.000157917034     0.001117662450     0.000226330172
      15        0.000014840155    -0.000003255793    -0.000004863112
      16       -0.000009482045     0.000012093885    -0.000015203890
      17        0.000236669979     0.000284654459    -0.000960366392
      18        0.000065818884    -0.001052208755     0.000052993025
      19       -0.000001711104    -0.000000217668     0.000016959889
      20       -0.000138673712    -0.000362690288     0.000657271734
      21       -0.000013615872     0.000025971478    -0.000006271655
      22        0.000012688242    -0.000010599053     0.000006008261
      23        0.000016897045    -0.000005401794     0.000016074132
      24       -0.000019893094    -0.000002994460    -0.000012592313
      25        0.000000678784     0.000003716070     0.000018827218

  **** Optimization is complete! (in 8 steps) ****
    Final optimized geometry and variables:
    Molecular point group: c1

    Geometry (in Angstrom), charge = 0, multiplicity = 1:

    H           -3.265236113680    -0.348974541325     1.254806959006
    C           -3.279401871013    -0.312720615670     0.158307271176
    C           -2.629124697552     0.905079775753    -0.447418087503
    O           -3.788111592074    -1.189706976577    -0.461342760652
    C           -1.204352402877     1.133590823804     0.076354100666
    H           -2.645070055271     0.800220503900    -1.526105162822
    H           -3.248629624717     1.762064124069    -0.186070067890
    C           -0.213546209189     0.050061108966    -0.357018456114
    H           -0.858847930531     2.100871676371    -0.276695647636
    H           -1.225368097740     1.198216591030     1.162980508072
    C            1.206075298815     0.302584119836     0.155284147497
    H           -0.203156748547    -0.007643357558    -1.443475383888
    H           -0.554126836778    -0.922869283825    -0.007395389198
    C            2.182485372586    -0.791383615440    -0.289507830347
    H            1.542589385502     1.272878123245    -0.200870553070
    H            1.184665133535     0.364222190537     1.240602558360
    C            3.662178739160    -0.654143757748     0.168732163915
    H            2.153174487891    -0.853837573837    -1.374166687225
    H            1.797373255524    -1.745309239576     0.061280731296
    C            4.036561658156     0.603064766996     0.959671857755
    H            4.305739490853    -0.707815901684    -0.704218018298
    H            3.921626241280    -1.517084768014     0.775042455559
    H            3.869394464964     1.510194060144     0.388018855810
    H            3.475676698279     0.684710203598     1.884640805011
    H            5.090171280426     0.573251084409     1.220148820162

  Mulliken Charges: (a.u.)
   Center  Symbol    Alpha    Beta     Spin     Total
       1     H     0.43265  0.43265  0.00000  0.13471
       2     C     2.83081  2.83081  0.00000  0.33838
       3     C     3.20814  3.20814  0.00000 -0.41627
       4     O     4.23778  4.23778  0.00000 -0.47555
       5     C     3.16641  3.16641  0.00000 -0.33281
       6     H     0.39972  0.39972  0.00000  0.20056
       7     H     0.40662  0.40662  0.00000  0.18675
       8     C     3.15507  3.15507  0.00000 -0.31015
       9     H     0.41288  0.41288  0.00000  0.17425
      10     H     0.41970  0.41970  0.00000  0.16060
      11     C     3.15444  3.15444  0.00000 -0.30889
      12     H     0.41813  0.41813  0.00000  0.16373
      13     H     0.41851  0.41851  0.00000  0.16298
      14     C     3.15733  3.15733  0.00000 -0.31466
      15     H     0.42141  0.42141  0.00000  0.15718
      16     H     0.42226  0.42226  0.00000  0.15548
      17     C     3.15571  3.15571  0.00000 -0.31141
      18     H     0.42025  0.42025  0.00000  0.15949
      19     H     0.41984  0.41984  0.00000  0.16032
      20     C     3.24208  3.24208  0.00000 -0.48416
      21     H     0.41957  0.41957  0.00000  0.16087
      22     H     0.41988  0.41988  0.00000  0.16023
      23     H     0.42124  0.42124  0.00000  0.15751
      24     H     0.42098  0.42098  0.00000  0.15805
      25     H     0.41860  0.41860  0.00000  0.16280

   Total alpha = 36.00000, Total beta = 36.00000, Total charge =  0.00000
