  ==> Input File <==

--------------------------------------------------------------------------
set {
	reference rhf
	basis 6-31G*
}

set_num_threads( 1 )
memory 2 gb

molecule MOL {
0 1

H	 -3.135461	 -1.215070	 0.001379
O	 -2.310168	 -0.871793	 -0.309793
C	 -2.026376	 0.340750	 0.341611
C	 -0.673256	 0.843270	 -0.132153
H	 -2.792215	 1.080697	 0.115987
H	 -2.013526	 0.200402	 1.421792
C	 0.486613	 -0.083066	 0.235839
H	 -0.715586	 0.970948	 -1.210718
H	 -0.508072	 1.829858	 0.297090
C	 1.796469	 0.669113	 0.477335
H	 0.625035	 -0.811558	 -0.556406
H	 0.225825	 -0.645366	 1.131745
C	 2.954183	 -0.256030	 0.850806
H	 2.058546	 1.230528	 -0.417006
H	 1.653225	 1.403890	 1.267289
H	 3.144785	 -0.980784	 0.064491
H	 3.869882	 0.304221	 1.013776
H	 2.737364	 -0.807459	 1.761535

	symmetry c1
}
set optking {
	frozen_dihedral = ("
		14 10 7 11,
		2 3 4 8,
		1 2 3 4
	")
}

ee = energy('scf')
oeprop('DIPOLE', 'QUADRUPOLE', 'MULLIKEN_CHARGES')
f=open( 'psi4out.xyz', 'w' )
f.write( "18  " )
f.write( str(ee) + "\n" )
f.write( MOL.save_string_xyz() )
f.close()
--------------------------------------------------------------------------

    Molecular point group: c1

    Geometry (in Angstrom), charge = 0, multiplicity = 1:

       Center              X                  Y                   Z               Mass
    ------------   -----------------  -----------------  -----------------  -----------------
           H         -3.120598221440    -1.292316252922    -0.239915757866     1.007825032070
           O         -2.295305221440    -0.949039252922    -0.551087757866    15.994914619560
           C         -2.011513221440     0.263503747078     0.100316242134    12.000000000000
           C         -0.658393221440     0.766023747078    -0.373447757866    12.000000000000
           H         -2.777352221440     1.003450747078    -0.125307757866     1.007825032070
           H         -1.998663221440     0.123155747078     1.180497242134     1.007825032070
           C          0.501475778560    -0.160312252922    -0.005455757866    12.000000000000
           H         -0.700723221440     0.893701747078    -1.452012757866     1.007825032070
           H         -0.493209221440     1.752611747078     0.055795242134     1.007825032070
           C          1.811331778560     0.591866747078     0.236040242134    12.000000000000
           H          0.639897778560    -0.888804252922    -0.797700757866     1.007825032070
           H          0.240687778560    -0.722612252922     0.890450242134     1.007825032070
           C          2.969045778560    -0.333276252922     0.609511242134    12.000000000000
           H          2.073408778560     1.153281747078    -0.658300757866     1.007825032070
           H          1.668087778560     1.326643747078     1.025994242134     1.007825032070
           H          3.159647778560    -1.058030252922    -0.176803757866     1.007825032070
           H          3.884744778560     0.226974747078     0.772481242134     1.007825032070
           H          2.752226778560    -0.884705252922     1.520240242134     1.007825032070

  Charge       = 0
  Multiplicity = 1
  Basis Set: 6-31G*
  Basis Set:

    Orbital Energies (a.u.)
    -----------------------

    Doubly Occupied:

       1A    -20.552698     2A    -11.267898     3A    -11.211768
       4A    -11.211272     5A    -11.206677     6A    -11.205019
       7A     -1.359352     8A     -1.075482     9A     -1.008747
      10A     -0.913156    11A     -0.819116    12A     -0.783757
      13A     -0.702617    14A     -0.648970    15A     -0.620644
      16A     -0.576796    17A     -0.573231    18A     -0.557985
      19A     -0.522822    20A     -0.505180    21A     -0.484611
      22A     -0.467356    23A     -0.457115    24A     -0.448981
      25A     -0.428755

  @DF-RHF Final Energy:  -271.17706657815836

   => Energetics <=

    Nuclear Repulsion Energy =            249.0189265468498832
    One-Electron Energy =                -861.1720196704598038
    Two-Electron Energy =                 340.9760265454514752
    DFT Exchange-Correlation Energy =       0.0000000000000000
    Empirical Dispersion Energy =           0.0000000000000000
    PCM Polarization Energy =               0.0000000000000000
    EFP Energy =                            0.0000000000000000
    Total Energy =                       -271.1770665781584171

  Mulliken Charges: (a.u.)
   Center  Symbol    Alpha    Beta     Spin     Total
       1     H     0.28075  0.28075  0.00000  0.43849
       2     O     4.36963  4.36963  0.00000 -0.73927
       3     C     2.99880  2.99880  0.00000  0.00240
       4     C     3.16133  3.16133  0.00000 -0.32267
       5     H     0.42995  0.42995  0.00000  0.14010
       6     H     0.43263  0.43263  0.00000  0.13473
       7     C     3.14862  3.14862  0.00000 -0.29724
       8     H     0.41342  0.41342  0.00000  0.17316
       9     H     0.42303  0.42303  0.00000  0.15395
      10     C     3.15406  3.15406  0.00000 -0.30812
      11     H     0.41355  0.41355  0.00000  0.17289
      12     H     0.42311  0.42311  0.00000  0.15377
      13     C     3.23910  3.23910  0.00000 -0.47820
      14     H     0.42326  0.42326  0.00000  0.15347
      15     H     0.42504  0.42504  0.00000  0.14992
      16     H     0.42106  0.42106  0.00000  0.15788
      17     H     0.42045  0.42045  0.00000  0.15910
      18     H     0.42219  0.42219  0.00000  0.15562

   Total alpha = 25.00000, Total beta = 25.00000, Total charge =  0.00000
