                              Psi4 1.0.54 Driver

  ==> Input File <==

--------------------------------------------------------------------------
set {
	reference rhf
	basis cc-pvtz
}

set_num_threads( 4 )
memory 2 gb

molecule MOL {
0 1

O	 -2.440701	 -0.934798	 -0.415053
C	 -1.922978	 0.063265	 -0.045005
C	 -2.632749	 1.372204	 0.158357
O	 -0.637375	 0.157174	 0.243149
H	 -2.187724	 2.129143	 -0.474664
H	 -3.677681	 1.257276	 -0.079438
H	 -2.516788	 1.693160	 1.185542
C	 0.162530	 -1.009518	 0.097799
C	 1.587210	 -0.664190	 0.477086
H	 0.096803	 -1.356267	 -0.924704
H	 -0.233803	 -1.785900	 0.736810
C	 2.646503	 -1.482345	 -0.256592
H	 1.683641	 -0.821387	 1.547939
H	 1.750876	 0.394710	 0.301634
C	 4.065970	 -1.126420	 0.172415
H	 2.468899	 -2.539146	 -0.075687
H	 2.541951	 -1.330717	 -1.324732
H	 4.796701	 -1.723842	 -0.360037
H	 4.210488	 -1.296463	 1.234296
H	 4.284452	 -0.082578	 -0.026773

	symmetry c1
}
set optking {
	frozen_dihedral = ("
		12 9 8 10
	")
}

ee,wfn = optimize('scf', return_wfn=True)
oeprop( wfn, 'DIPOLE', 'QUADRUPOLE', 'MULLIKEN_CHARGES')
f=open( 'psi4out.xyz', 'w' )
f.write( "20  " )
f.write( str(ee) + "\n" )
f.write( MOL.save_string_xyz() )
f.close()
--------------------------------------------------------------------------

    Molecular point group: c1
  Charge       = 0
  Multiplicity = 1
  Basis Set: CC-PVTZ
  Basis Set:
  @DF-RHF Final Energy:  -384.08438235539279
    Total Energy =                       -384.0843823553924494
    Molecular point group: c1
  Basis Set: CC-PVTZ
  Basis Set:
  Basis Set: CC-PVTZ
  Basis Set:
  @DF-RHF Final Energy:  -384.08490662073564
    Total Energy =                       -384.0849066207355236
  Basis Set: CC-PVTZ
  Basis Set:
  Basis Set: CC-PVTZ
  Basis Set:
  @DF-RHF Final Energy:  -384.08431033132922
    Total Energy =                       -384.0843103313295046
  Basis Set: CC-PVTZ
  Basis Set:
  Basis Set: CC-PVTZ
  Basis Set:
  @DF-RHF Final Energy:  -384.08498772499195
    Total Energy =                       -384.0849877249918904
  Basis Set: CC-PVTZ
  Basis Set:
  Basis Set: CC-PVTZ
  Basis Set:
  @DF-RHF Final Energy:  -384.08499383261301
    Total Energy =                       -384.0849938326130086
  Basis Set: CC-PVTZ
  Basis Set:
  Basis Set: CC-PVTZ
  Basis Set:
  @DF-RHF Final Energy:  -384.08499679003222
    Total Energy =                       -384.0849967900318234
  Basis Set: CC-PVTZ
  Basis Set:
  Charge       = 0
  Multiplicity = 1
  Basis Set: CC-PVTZ
  Basis Set:

    Orbital Energies (a.u.)
    -----------------------

    Doubly Occupied:

       1A    -20.594833     2A    -20.532686     3A    -11.366529
       4A    -11.279326     5A    -11.231437     6A    -11.223713
       7A    -11.222054     8A    -11.213401     9A     -1.471239
      10A     -1.365344    11A     -1.087939    12A     -1.030623
      13A     -0.980942    14A     -0.882475    15A     -0.808590
      16A     -0.780049    17A     -0.693260    18A     -0.688068
      19A     -0.672106    20A     -0.638334    21A     -0.596288
      22A     -0.595027    23A     -0.571617    24A     -0.560048
      25A     -0.546005    26A     -0.521555    27A     -0.510057
      28A     -0.484002    29A     -0.482786    30A     -0.475438
      31A     -0.453588    32A     -0.440613

  @DF-RHF Final Energy:  -384.08499696891295

   => Energetics <=

    Nuclear Repulsion Energy =            379.6073409078825307
    One-Electron Energy =               -1275.3847352703328397
    Two-Electron Energy =                 511.6923973935372487
    DFT Exchange-Correlation Energy =       0.0000000000000000
    Empirical Dispersion Energy =           0.0000000000000000
    PCM Polarization Energy =               0.0000000000000000
    EFP Energy =                            0.0000000000000000
    Total Energy =                       -384.0849969689130603
    Molecular point group: c1
  Basis Set: CC-PVTZ
  Basis Set:

  -Total Gradient:
     Atom            X                  Y                   Z
    ------   -----------------  -----------------  -----------------
       1       -0.000018651828    -0.000018140360    -0.000020346218
       2        0.000051179394     0.000038450698     0.000040228957
       3        0.000002975345    -0.000005692816     0.000000315541
       4       -0.000061920666     0.000009146610    -0.000017910000
       5       -0.000001918651    -0.000003271060     0.000003466746
       6       -0.000005653398     0.000001530590    -0.000001396271
       7        0.000001550191     0.000000254002    -0.000009744126
       8       -0.000786912091     0.006103019633    -0.002933870448
       9        0.000045790935    -0.004046381344     0.003808798898
      10        0.000668284829    -0.004210141998     0.001575248342
      11        0.000013681718     0.000009079854    -0.000006871199
      12        0.000095780242     0.002120198901    -0.002428031345
      13        0.000006477893     0.000001306775    -0.000006793468
      14       -0.000001752124    -0.000007598304     0.000003131593
      15        0.000001104386     0.000006891559    -0.000009271693
      16        0.000000464470     0.000000862826     0.000003921311
      17       -0.000001717160     0.000001351029     0.000003689118
      18       -0.000002773866     0.000001755420    -0.000003514203
      19       -0.000006347090    -0.000003962838    -0.000003602378
      20        0.000000357458     0.000001340823     0.000002550842

  **** Optimization is complete! (in 7 steps) ****
    Final optimized geometry and variables:
    Molecular point group: c1

    Geometry (in Angstrom), charge = 0, multiplicity = 1:

    O           -2.528013289977    -0.529159792514    -0.422850601281
    C           -2.024967949558     0.490405394428    -0.093771555797
    C           -2.758106285476     1.789553600951     0.085390587089
    O           -0.735117893844     0.621300019804     0.160743388055
    H           -2.342014292223     2.535590399098    -0.579324598313
    H           -3.805087387980     1.645979238798    -0.126457376588
    H           -2.627354718150     2.143668295093     1.099750011117
    C            0.084403282921    -0.530228140172     0.036472850979
    C            1.509314565583    -0.158189746371     0.416217811123
    H            0.030050899614    -0.917327303352    -0.971935238115
    H           -0.303883811861    -1.306188743453     0.682156555918
    C            2.547787388377    -1.020259262304    -0.297090978190
    H            1.634883476975    -0.224008229530     1.491619793724
    H            1.672321162359     0.880104636688     0.147854957466
    C            3.976496098170    -0.692456484947     0.121594986088
    H            2.349833978404    -2.071545140489    -0.103489880727
    H            2.443259755053    -0.882921022824    -1.368994133581
    H            4.691226430165    -1.307277046630    -0.412555591620
    H            4.122103504409    -0.861682183022     1.183035878192
    H            4.214515233900     0.346080488429    -0.082547386183

  Mulliken Charges: (a.u.)
   Center  Symbol    Alpha    Beta     Spin     Total
       1     O     4.19672  4.19672  0.00000 -0.39345
       2     C     2.80788  2.80788  0.00000  0.38425
       3     C     3.13783  3.13783  0.00000 -0.27565
       4     O     4.15041  4.15041  0.00000 -0.30081
       5     H     0.44596  0.44596  0.00000  0.10808
       6     H     0.43815  0.43815  0.00000  0.12370
       7     H     0.44578  0.44578  0.00000  0.10845
       8     C     2.98142  2.98142  0.00000  0.03717
       9     C     3.08505  3.08505  0.00000 -0.17010
      10     H     0.45542  0.45542  0.00000  0.08916
      11     H     0.45309  0.45309  0.00000  0.09381
      12     C     3.09140  3.09140  0.00000 -0.18281
      13     H     0.45125  0.45125  0.00000  0.09751
      14     H     0.44988  0.44988  0.00000  0.10023
      15     C     3.14992  3.14992  0.00000 -0.29985
      16     H     0.45276  0.45276  0.00000  0.09447
      17     H     0.45188  0.45188  0.00000  0.09624
      18     H     0.44710  0.44710  0.00000  0.10579
      19     H     0.45406  0.45406  0.00000  0.09188
      20     H     0.45403  0.45403  0.00000  0.09193

   Total alpha = 32.00000, Total beta = 32.00000, Total charge = -0.00000

*** Psi4 exiting successfully. Buy a developer a beer!
