  ==> Input File <==

--------------------------------------------------------------------------
set {
	reference rhf
	basis cc-pvtz
}

set_num_threads( 4 )
memory 2 gb

molecule MOL {
0 1

H	 -3.436473	 1.252944	 -1.023892
O	 -3.458596	 0.315260	 -0.960865
C	 -3.176635	 -0.080824	 0.355601
C	 -1.763371	 0.265266	 0.799691
H	 -3.321825	 -1.153438	 0.379502
H	 -3.895468	 0.357385	 1.043382
C	 -0.673390	 -0.426948	 -0.013392
H	 -1.631049	 1.344913	 0.747560
H	 -1.664587	 -0.001624	 1.849167
C	 0.737842	 -0.043159	 0.423759
H	 -0.806103	 -0.190518	 -1.063345
H	 -0.797221	 -1.503753	 0.074146
C	 1.824000	 -0.743224	 -0.390623
H	 0.850588	 1.033777	 0.343840
H	 0.868587	 -0.286314	 1.476203
C	 3.255957	 -0.453067	 0.062319
H	 1.718250	 -0.470599	 -1.438164
H	 1.658105	 -1.815850	 -0.339904
C	 3.834164	 0.862787	 -0.452800
H	 3.892731	 -1.266386	 -0.272056
H	 3.297504	 -0.463898	 1.148402
H	 3.800245	 0.904737	 -1.536851
H	 4.869815	 0.971682	 -0.151453
H	 3.293311	 1.720636	 -0.071778

	symmetry c1
}
set optking {
	frozen_dihedral = ("
		20 16 13 17
	")
}

ee = optimize('scf')
oeprop('DIPOLE', 'QUADRUPOLE', 'MULLIKEN_CHARGES')
f=open( 'psi4out.xyz', 'w' )
f.write( "24  " )
f.write( str(ee) + "\n" )
f.write( MOL.save_string_xyz() )
f.close()
--------------------------------------------------------------------------

    Molecular point group: c1
  Charge       = 0
  Multiplicity = 1
  Basis Set: CC-PVTZ
  Basis Set:
  @DF-RHF Final Energy:  -349.37957213317179
    Total Energy =                       -349.3795721331720756
    Molecular point group: c1
  Basis Set: CC-PVTZ
  Basis Set:
  Basis Set: CC-PVTZ
  Basis Set:
  @DF-RHF Final Energy:  -349.37977915173269
    Total Energy =                       -349.3797791517332598
  Basis Set: CC-PVTZ
  Basis Set:
  Basis Set: CC-PVTZ
  Basis Set:
  @DF-RHF Final Energy:  -349.37984431166609
    Total Energy =                       -349.3798443116663748
  Basis Set: CC-PVTZ
  Basis Set:
  Basis Set: CC-PVTZ
  Basis Set:
  @DF-RHF Final Energy:  -349.37984613059780
    Total Energy =                       -349.3798461305976844
  Basis Set: CC-PVTZ
  Basis Set:
  Charge       = 0
  Multiplicity = 1
  Basis Set: CC-PVTZ
  Basis Set:

    Orbital Energies (a.u.)
    -----------------------

    Doubly Occupied:

       1A    -20.546285     2A    -11.265516     3A    -11.215193
       4A    -11.211866     5A    -11.210288     6A    -11.209344
       7A    -11.208907     8A    -11.205645     9A     -1.364138
      10A     -1.089718    11A     -1.049387    12A     -0.987136
      13A     -0.915610    14A     -0.849175    15A     -0.800835
      16A     -0.780132    17A     -0.681826    18A     -0.654711
      19A     -0.624577    20A     -0.622025    21A     -0.599037
      22A     -0.584578    23A     -0.559809    24A     -0.539390
      25A     -0.516894    26A     -0.512463    27A     -0.496925
      28A     -0.473687    29A     -0.468312    30A     -0.460817
      31A     -0.457041    32A     -0.451143    33A     -0.420976

  @DF-RHF Final Energy:  -349.37984622442366

   => Energetics <=

    Nuclear Repulsion Energy =            384.4430941027338804
    One-Electron Energy =               -1235.5791005548187513
    Two-Electron Energy =                 501.7561602276607573
    DFT Exchange-Correlation Energy =       0.0000000000000000
    Empirical Dispersion Energy =           0.0000000000000000
    PCM Polarization Energy =               0.0000000000000000
    EFP Energy =                            0.0000000000000000
    Total Energy =                       -349.3798462244241136
    Molecular point group: c1
  Basis Set: CC-PVTZ
  Basis Set:

  -Total Gradient:
     Atom            X                  Y                   Z
    ------   -----------------  -----------------  -----------------
       1       -0.000000091858    -0.000000190702     0.000000881042
       2        0.000001030200    -0.000001033510     0.000001621510
       3       -0.000001860473    -0.000000403761     0.000002991414
       4        0.000001252592    -0.000008663534     0.000003772442
       5       -0.000000395902    -0.000000133527    -0.000001949442
       6       -0.000000233698    -0.000000724398     0.000000128825
       7       -0.000006056327     0.000013932543    -0.000008713403
       8        0.000001001167    -0.000002932881    -0.000003852850
       9       -0.000003445245     0.000003633280     0.000003483871
      10       -0.000001005709     0.000005108400    -0.000011126140
      11        0.000000943050     0.000001386819    -0.000002399949
      12        0.000000292202     0.000001458170     0.000002190401
      13        0.000719363861    -0.002650700780    -0.000210688088
      14       -0.000006028384     0.000001535461    -0.000002078200
      15        0.000013474009    -0.000000860884    -0.000002393363
      16        0.000221883402     0.001689842511    -0.002165837851
      17       -0.000633524819     0.001952383836     0.000550436212
      18       -0.000006390597    -0.000003765173    -0.000008355478
      19        0.000001791716     0.000002757404     0.000014226141
      20       -0.000290715539    -0.001013869750     0.001842003741
      21       -0.000007851415     0.000006082631    -0.000004613928
      22       -0.000002648947    -0.000006293187     0.000005201155
      23       -0.000000716890     0.000003891552    -0.000002761392
      24       -0.000000066400     0.000007559482    -0.000002166673

  **** Optimization is complete! (in 5 steps) ****
    Final optimized geometry and variables:
    Molecular point group: c1

    Geometry (in Angstrom), charge = 0, multiplicity = 1:

    H           -3.406700215423     1.332861456608    -0.968036488522
    O           -3.446310072624     0.394528974301    -0.927515244734
    C           -3.183880659889    -0.037390182077     0.381609181105
    C           -1.768578684851     0.271782053051     0.846055551633
    H           -3.349026129839    -1.107381783920     0.378576431205
    H           -3.900927894175     0.397713168787     1.073226034777
    C           -0.684002533330    -0.419676898518     0.025103428633
    H           -1.616324436034     1.349811292477     0.821910347216
    H           -1.683951864232    -0.022674880590     1.889352238907
    C            0.729869136292    -0.074301166908     0.484384901612
    H           -0.802820371715    -0.154482581448    -1.019586373301
    H           -0.828491178657    -1.495971521086     0.084201009492
    C            1.813884191100    -0.787906822710    -0.323029312841
    H            0.870498110310     1.001179149729     0.420319555388
    H            0.841778466127    -0.333266611492     1.534819913553
    C            3.242995452019    -0.435061178879     0.101545405353
    H            1.681674616791    -0.542746277975    -1.374039116188
    H            1.666377810909    -1.859677731854    -0.231928059020
    C            3.744881019186     0.902438997736    -0.434967037352
    H            3.914665410323    -1.224790262011    -0.219951316811
    H            3.299209443804    -0.430506236288     1.187208463096
    H            3.750644351455     0.907436260992    -1.519906408225
    H            4.756138608869     1.101239058683    -0.098643465025
    H            3.123599925695     1.727128657630    -0.104917730222

  Mulliken Charges: (a.u.)
   Center  Symbol    Alpha    Beta     Spin     Total
       1     H     0.39530  0.39530  0.00000  0.20940
       2     O     4.20368  4.20368  0.00000 -0.40736
       3     C     2.97769  2.97769  0.00000  0.04461
       4     C     3.10170  3.10170  0.00000 -0.20341
       5     H     0.45889  0.45889  0.00000  0.08221
       6     H     0.46027  0.46027  0.00000  0.07946
       7     C     3.08763  3.08763  0.00000 -0.17527
       8     H     0.45934  0.45934  0.00000  0.08133
       9     H     0.45333  0.45333  0.00000  0.09334
      10     C     3.09017  3.09017  0.00000 -0.18034
      11     H     0.44616  0.44616  0.00000  0.10768
      12     H     0.45527  0.45527  0.00000  0.08946
      13     C     3.09368  3.09368  0.00000 -0.18736
      14     H     0.45441  0.45441  0.00000  0.09118
      15     H     0.45612  0.45612  0.00000  0.08775
      16     C     3.09039  3.09039  0.00000 -0.18077
      17     H     0.45535  0.45535  0.00000  0.08931
      18     H     0.44870  0.44870  0.00000  0.10259
      19     C     3.14902  3.14902  0.00000 -0.29803
      20     H     0.44806  0.44806  0.00000  0.10387
      21     H     0.45667  0.45667  0.00000  0.08665
      22     H     0.45495  0.45495  0.00000  0.09010
      23     H     0.44771  0.44771  0.00000  0.10459
      24     H     0.45550  0.45550  0.00000  0.08901

   Total alpha = 33.00000, Total beta = 33.00000, Total charge = -0.00000
