  ==> Input File <==

--------------------------------------------------------------------------
set {
	reference rhf
	basis 6-31G*
}

set_num_threads( 1 )
memory 2 gb

molecule MOL {
0 1

H	 -4.243705	 0.446252	 0.175361
O	 -3.517110	 -0.026191	 -0.205115
C	 -2.306886	 0.532354	 0.237577
C	 -1.177863	 -0.397191	 -0.171080
H	 -2.156308	 1.517575	 -0.201710
H	 -2.315015	 0.655684	 1.319734
C	 0.198102	 0.111031	 0.262842
H	 -1.208843	 -0.518759	 -1.250427
H	 -1.368741	 -1.376554	 0.258909
C	 1.331804	 -0.827780	 -0.158768
H	 0.361943	 1.100838	 -0.156218
H	 0.217265	 0.229072	 1.345532
C	 2.723619	 -0.410569	 0.329459
H	 1.342964	 -0.912588	 -1.244120
H	 1.116806	 -1.824343	 0.220779
C	 3.243875	 0.895854	 -0.272975
H	 3.424222	 -1.207124	 0.091250
H	 2.714788	 -0.329854	 1.414619
H	 3.251977	 0.848779	 -1.358681
H	 2.637085	 1.747371	 0.016682
H	 4.259473	 1.094070	 0.055697

	symmetry c1
}
set optking {
	frozen_dihedral = ("
		2 3 4 8,
		8 4 7 10,
		4 7 10 14,
		16 13 10 14
	")
}

ee = energy('scf')
oeprop('DIPOLE', 'QUADRUPOLE', 'MULLIKEN_CHARGES')
f=open( 'psi4out.xyz', 'w' )
f.write( "21  " )
f.write( str(ee) + "\n" )
f.write( MOL.save_string_xyz() )
f.close()
--------------------------------------------------------------------------

    Molecular point group: c1

    Geometry (in Angstrom), charge = 0, multiplicity = 1:

       Center              X                  Y                   Z               Mass
    ------------   -----------------  -----------------  -----------------  -----------------
           H         -4.243633646153     0.447159009629     0.174022673909     1.007825032070
           O         -3.517038646153    -0.025283990371    -0.206453326091    15.994914619560
           C         -2.306814646153     0.533261009629     0.236238673909    12.000000000000
           C         -1.177791646153    -0.396283990371    -0.172418326091    12.000000000000
           H         -2.156236646153     1.518482009629    -0.203048326091     1.007825032070
           H         -2.314943646153     0.656591009629     1.318395673909     1.007825032070
           C          0.198173353847     0.111938009629     0.261503673909    12.000000000000
           H         -1.208771646153    -0.517851990371    -1.251765326091     1.007825032070
           H         -1.368669646153    -1.375646990371     0.257570673909     1.007825032070
           C          1.331875353847    -0.826872990371    -0.160106326091    12.000000000000
           H          0.362014353847     1.101745009629    -0.157556326091     1.007825032070
           H          0.217336353847     0.229979009629     1.344193673909     1.007825032070
           C          2.723690353847    -0.409661990371     0.328120673909    12.000000000000
           H          1.343035353847    -0.911680990371    -1.245458326091     1.007825032070
           H          1.116877353847    -1.823435990371     0.219440673909     1.007825032070
           C          3.243946353847     0.896761009629    -0.274313326091    12.000000000000
           H          3.424293353847    -1.206216990371     0.089911673909     1.007825032070
           H          2.714859353847    -0.328946990371     1.413280673909     1.007825032070
           H          3.252048353847     0.849686009629    -1.360019326091     1.007825032070
           H          2.637156353847     1.748278009629     0.015343673909     1.007825032070
           H          4.259544353847     1.094977009629     0.054358673909     1.007825032070

  Charge       = 0
  Multiplicity = 1
  Basis Set: 6-31G*
  Basis Set:

    Orbital Energies (a.u.)
    -----------------------

    Doubly Occupied:

       1A    -20.551797     2A    -11.267079     3A    -11.215645
       4A    -11.215139     5A    -11.213574     6A    -11.210565
       7A    -11.208148     8A     -1.358682     9A     -1.086222
      10A     -1.033169    11A     -0.954387    12A     -0.875656
      13A     -0.807239    14A     -0.779023    15A     -0.692929
      16A     -0.660958    17A     -0.621667    18A     -0.608136
      19A     -0.586165    20A     -0.568754    21A     -0.537353
      22A     -0.520054    23A     -0.509752    24A     -0.488336
      25A     -0.478310    26A     -0.460533    27A     -0.455823
      28A     -0.445012    29A     -0.432364

  @DF-RHF Final Energy:  -310.21268312970813

   => Energetics <=

    Nuclear Repulsion Energy =            312.4494725300371556
    One-Electron Energy =               -1039.6393957478555876
    Two-Electron Energy =                 416.9772400881096246
    DFT Exchange-Correlation Energy =       0.0000000000000000
    Empirical Dispersion Energy =           0.0000000000000000
    PCM Polarization Energy =               0.0000000000000000
    EFP Energy =                            0.0000000000000000
    Total Energy =                       -310.2126831297088074

  Mulliken Charges: (a.u.)
   Center  Symbol    Alpha    Beta     Spin     Total
       1     H     0.28108  0.28108  0.00000  0.43783
       2     O     4.37185  4.37185  0.00000 -0.74371
       3     C     2.98986  2.98986  0.00000  0.02028
       4     C     3.15876  3.15876  0.00000 -0.31751
       5     H     0.43209  0.43209  0.00000  0.13581
       6     H     0.43342  0.43342  0.00000  0.13317
       7     C     3.16195  3.16195  0.00000 -0.32389
       8     H     0.41450  0.41450  0.00000  0.17101
       9     H     0.41534  0.41534  0.00000  0.16931
      10     C     3.15176  3.15176  0.00000 -0.30352
      11     H     0.42133  0.42133  0.00000  0.15733
      12     H     0.42435  0.42435  0.00000  0.15130
      13     C     3.15251  3.15251  0.00000 -0.30501
      14     H     0.42292  0.42292  0.00000  0.15416
      15     H     0.42107  0.42107  0.00000  0.15787
      16     C     3.24117  3.24117  0.00000 -0.48234
      17     H     0.42063  0.42063  0.00000  0.15874
      18     H     0.42362  0.42362  0.00000  0.15276
      19     H     0.42192  0.42192  0.00000  0.15616
      20     H     0.42061  0.42061  0.00000  0.15879
      21     H     0.41926  0.41926  0.00000  0.16148

   Total alpha = 29.00000, Total beta = 29.00000, Total charge = -0.00000
