  ==> Input File <==

--------------------------------------------------------------------------
set {
	reference rhf
	basis cc-pvtz
}

set_num_threads( 4 )
memory 2 gb

molecule MOL {
0 1

H	 3.459101	 0.139266	 -0.762951
C	 2.749156	 -0.051729	 0.031265
C	 1.322304	 0.099773	 -0.484271
H	 2.929445	 -1.053887	 0.403481
H	 2.954281	 0.646699	 0.834672
C	 0.308557	 -0.162619	 0.622645
H	 1.143368	 -0.594400	 -1.295960
H	 1.169532	 1.100095	 -0.870217
N	 -1.069352	 -0.004081	 0.085342
H	 0.371632	 -1.172932	 0.991288
H	 0.400391	 0.548875	 1.426218
O	 -1.452227	 -0.826674	 -0.677104
O	 -1.681163	 0.949660	 0.433203

	symmetry c1
}
set optking {
	frozen_dihedral = ("
		12 9 6 3
	")
}

ee = optimize('scf')
oeprop('DIPOLE', 'QUADRUPOLE', 'MULLIKEN_CHARGES')
f=open( 'psi4out.xyz', 'w' )
f.write( "13  " )
f.write( str(ee) + "\n" )
f.write( MOL.save_string_xyz() )
f.close()
--------------------------------------------------------------------------

    Molecular point group: c1
  Charge       = 0
  Multiplicity = 1
  Basis Set: CC-PVTZ
  Basis Set:
  @DF-RHF Final Energy:  -321.86134913904300
    Total Energy =                       -321.8613491390429999
    Molecular point group: c1
  Basis Set: CC-PVTZ
  Basis Set:
  Basis Set: CC-PVTZ
  Basis Set:
  @DF-RHF Final Energy:  -321.85977100089559
    Total Energy =                       -321.8597710008956483
  Basis Set: CC-PVTZ
  Basis Set:
  Basis Set: CC-PVTZ
  Basis Set:
  @DF-RHF Final Energy:  -321.86138559834137
    Total Energy =                       -321.8613855983415988
  Basis Set: CC-PVTZ
  Basis Set:
  Basis Set: CC-PVTZ
  Basis Set:
  @DF-RHF Final Energy:  -321.86141343873146
    Total Energy =                       -321.8614134387316881
  Basis Set: CC-PVTZ
  Basis Set:
  Charge       = 0
  Multiplicity = 1
  Basis Set: CC-PVTZ
  Basis Set:

    Orbital Energies (a.u.)
    -----------------------

    Doubly Occupied:

       1A    -20.592081     2A    -20.589007     3A    -15.837137
       4A    -11.297495     5A    -11.253208     6A    -11.236883
       7A     -1.636208     8A     -1.420421     9A     -1.133885
      10A     -1.027765    11A     -0.884193    12A     -0.833500
      13A     -0.762114    14A     -0.739731    15A     -0.728162
      16A     -0.671873    17A     -0.604381    18A     -0.587233
      19A     -0.551341    20A     -0.521247    21A     -0.513359
      22A     -0.487330    23A     -0.474959    24A     -0.453282

  @DF-RHF Final Energy:  -321.86141388096428

   => Energetics <=

    Nuclear Repulsion Energy =            247.9431395950083754
    One-Electron Energy =                -929.9355196519618403
    Two-Electron Energy =                 360.1309661759891014
    DFT Exchange-Correlation Energy =       0.0000000000000000
    Empirical Dispersion Energy =           0.0000000000000000
    PCM Polarization Energy =               0.0000000000000000
    EFP Energy =                            0.0000000000000000
    Total Energy =                       -321.8614138809643919
    Molecular point group: c1
  Basis Set: CC-PVTZ
  Basis Set:

  -Total Gradient:
     Atom            X                  Y                   Z
    ------   -----------------  -----------------  -----------------
       1        0.000011369928     0.000004174795    -0.000001653398
       2       -0.000006093221    -0.000002954305    -0.000005846370
       3       -0.000022475219    -0.000192571903    -0.000030132465
       4        0.000001429439     0.000002055224    -0.000004341878
       5       -0.000011494918    -0.000008690940    -0.000003613870
       6        0.000027173455     0.000340212435     0.000020850055
       7       -0.000005315871    -0.000028420121     0.000004113018
       8        0.000005025566    -0.000008792615    -0.000005255490
       9       -0.000036097413    -0.000491169425     0.000279257747
      10        0.000036145784     0.000013011170     0.000009561888
      11        0.000030479439     0.000030294364    -0.000003872795
      12        0.000057919650     0.000346512882    -0.000218756136
      13       -0.000088066613    -0.000003661563    -0.000040310306

  **** Optimization is complete! (in 5 steps) ****
    Final optimized geometry and variables:
    Molecular point group: c1

    Geometry (in Angstrom), charge = 0, multiplicity = 1:

    H            3.467307510736     0.134084067019    -0.761316176246
    C            2.753618644787    -0.052267890834     0.030646997513
    C            1.329065566321     0.092672805837    -0.493542371500
    H            2.933266190048    -1.051928713505     0.410189212781
    H            2.954759452891     0.651182403029     0.830655265780
    C            0.312421298562    -0.163707184423     0.610588422720
    H            1.153411442205    -0.603945818558    -1.301884055625
    H            1.178834442592     1.091887494499    -0.886362471186
    N           -1.070827321828    -0.000898469480     0.085373778677
    H            0.370499346214    -1.178920330016     0.971533753500
    H            0.406980484932     0.534889208735     1.423897025867
    O           -1.458623381162    -0.825106192991    -0.673749871867
    O           -1.686688202786     0.945036079934     0.444933518960

  Mulliken Charges: (a.u.)
   Center  Symbol    Alpha    Beta     Spin     Total
       1     H     0.44163  0.44163  0.00000  0.11675
       2     C     3.15116  3.15116  0.00000 -0.30232
       3     C     3.09625  3.09625  0.00000 -0.19249
       4     H     0.45181  0.45181  0.00000  0.09639
       5     H     0.45176  0.45176  0.00000  0.09648
       6     C     3.03955  3.03955  0.00000 -0.07910
       7     H     0.43472  0.43472  0.00000  0.13056
       8     H     0.44146  0.44146  0.00000  0.11708
       9     N     3.27658  3.27658  0.00000  0.44684
      10     H     0.43625  0.43625  0.00000  0.12751
      11     H     0.43338  0.43338  0.00000  0.13325
      12     O     4.17523  4.17523  0.00000 -0.35046
      13     O     4.17024  4.17024  0.00000 -0.34048

   Total alpha = 24.00000, Total beta = 24.00000, Total charge = -0.00000
