  ==> Input File <==

--------------------------------------------------------------------------
set {
	reference rhf
	basis 6-31G*
}

set_num_threads( 1 )
memory 2 gb

molecule MOL {
0 1

O	 2.077581	 -0.123320	 0.663087
C	 1.122059	 0.121804	 -0.000188
C	 -0.170150	 -0.657997	 -0.000612
O	 1.068730	 1.140797	 -0.848590
C	 -1.412532	 0.227344	 -0.000452
H	 -0.153702	 -1.313099	 -0.867402
H	 -0.153924	 -1.313811	 0.865644
C	 -2.706999	 -0.587347	 -0.000541
H	 -1.388000	 0.879466	 -0.868000
H	 -1.387972	 0.879138	 0.867341
C	 -3.956778	 0.291888	 0.000910
H	 -2.726114	 -1.239230	 -0.871609
H	 -2.725217	 -1.240844	 0.869333
H	 -3.985213	 0.933254	 -0.875158
H	 -4.860123	 -0.309979	 0.000519
H	 -3.984618	 0.931166	 0.878514
C	 2.221579	 1.957300	 -0.945557
H	 2.447120	 2.411221	 0.008683
H	 1.984853	 2.716789	 -1.674313
H	 3.072107	 1.376625	 -1.272552

	symmetry c1
}
set optking {
	frozen_dihedral = ("
		9 5 8 12,
		9 5 3 6,
		1 2 4 17
	")
}

ee = energy('scf')
oeprop('DIPOLE', 'QUADRUPOLE', 'MULLIKEN_CHARGES')
f=open( 'psi4out.xyz', 'w' )
f.write( "20  " )
f.write( str(ee) + "\n" )
f.write( MOL.save_string_xyz() )
f.close()
--------------------------------------------------------------------------

    Molecular point group: c1

    Geometry (in Angstrom), charge = 0, multiplicity = 1:

       Center              X                  Y                   Z               Mass
    ------------   -----------------  -----------------  -----------------  -----------------
           O          2.271218303774    -0.444277288419     0.812000051570    15.994914619560
           C          1.315696303774    -0.199153288419     0.148725051570    12.000000000000
           C          0.023487303774    -0.978954288419     0.148301051570    12.000000000000
           O          1.262367303774     0.819839711581    -0.699676948430    15.994914619560
           C         -1.218894696226    -0.093613288419     0.148461051570    12.000000000000
           H          0.039935303774    -1.634056288419    -0.718488948430     1.007825032070
           H          0.039713303774    -1.634768288419     1.014557051570     1.007825032070
           C         -2.513361696226    -0.908304288419     0.148372051570    12.000000000000
           H         -1.194362696226     0.558508711581    -0.719086948430     1.007825032070
           H         -1.194334696226     0.558180711581     1.016254051570     1.007825032070
           C         -3.763140696226    -0.029069288419     0.149823051570    12.000000000000
           H         -2.532476696226    -1.560187288419    -0.722695948430     1.007825032070
           H         -2.531579696226    -1.561801288419     1.018246051570     1.007825032070
           H         -3.791575696226     0.612296711581    -0.726244948430     1.007825032070
           H         -4.666485696226    -0.630936288419     0.149432051570     1.007825032070
           H         -3.790980696226     0.610208711581     1.027427051570     1.007825032070
           C          2.415216303774     1.636342711581    -0.796643948430    12.000000000000
           H          2.640757303774     2.090263711581     0.157596051570     1.007825032070
           H          2.178490303774     2.395831711581    -1.525399948430     1.007825032070
           H          3.265744303774     1.055667711581    -1.123638948430     1.007825032070

  Charge       = 0
  Multiplicity = 1
  Basis Set: 6-31G*
  Basis Set:

    Orbital Energies (a.u.)
    -----------------------

    Doubly Occupied:

       1A    -20.604785     2A    -20.544098     3A    -11.371909
       4A    -11.281312     5A    -11.234779     6A    -11.224978
       7A    -11.222910     8A    -11.213548     9A     -1.469709
      10A     -1.362111    11A     -1.092996    12A     -1.025214
      13A     -0.966001    14A     -0.891291    15A     -0.806903
      16A     -0.774663    17A     -0.694148    18A     -0.681975
      19A     -0.672879    20A     -0.646557    21A     -0.596033
      22A     -0.591422    23A     -0.577726    24A     -0.547634
      25A     -0.532200    26A     -0.524314    27A     -0.504883
      28A     -0.489378    29A     -0.481759    30A     -0.471579
      31A     -0.455269    32A     -0.428468

  @DF-RHF Final Energy:  -383.93945060528938

   => Energetics <=

    Nuclear Repulsion Energy =            384.7113473613750330
    One-Electron Energy =               -1285.3347356398214743
    Two-Electron Energy =                 516.6839376731572884
    DFT Exchange-Correlation Energy =       0.0000000000000000
    Empirical Dispersion Energy =           0.0000000000000000
    PCM Polarization Energy =               0.0000000000000000
    EFP Energy =                            0.0000000000000000
    Total Energy =                       -383.9394506052891529

  Mulliken Charges: (a.u.)
   Center  Symbol    Alpha    Beta     Spin     Total
       1     O     4.28694  4.28694  0.00000 -0.57387
       2     C     2.60935  2.60935  0.00000  0.78130
       3     C     3.20428  3.20428  0.00000 -0.40856
       4     O     4.30241  4.30241  0.00000 -0.60483
       5     C     3.15898  3.15898  0.00000 -0.31796
       6     H     0.40222  0.40222  0.00000  0.19555
       7     H     0.39884  0.39884  0.00000  0.20232
       8     C     3.15385  3.15385  0.00000 -0.30770
       9     H     0.40635  0.40635  0.00000  0.18731
      10     H     0.41725  0.41725  0.00000  0.16551
      11     C     3.23977  3.23977  0.00000 -0.47953
      12     H     0.42149  0.42149  0.00000  0.15701
      13     H     0.42096  0.42096  0.00000  0.15808
      14     H     0.42043  0.42043  0.00000  0.15914
      15     H     0.41778  0.41778  0.00000  0.16445
      16     H     0.42042  0.42042  0.00000  0.15915
      17     C     3.09237  3.09237  0.00000 -0.18474
      18     H     0.40869  0.40869  0.00000  0.18262
      19     H     0.40886  0.40886  0.00000  0.18229
      20     H     0.40877  0.40877  0.00000  0.18245

   Total alpha = 32.00000, Total beta = 32.00000, Total charge = -0.00000
