  ==> Input File <==

--------------------------------------------------------------------------
set {
	reference rhf
	basis 6-31G*
}

set_num_threads( 4 )
memory 2 gb

molecule MOL {
0 1

H	 -0.821032	 -1.655889	 0.000000
O	 -1.037828	 -0.728600	 0.000000
C	 0.100509	 -0.036935	 0.000000
C	 1.132803	 -0.659283	 -0.896078
O	 0.244826	 0.949489	 0.644486
H	 1.336335	 -1.672333	 -0.568938
H	 2.037535	 -0.071189	 -0.868563
H	 0.752193	 -0.710956	 -1.909577

	symmetry c1
}
set optking {
	frozen_dihedral = ("
		4 3 2 1
	")
}

ee = optimize('scf')
oeprop('DIPOLE', 'QUADRUPOLE', 'MULLIKEN_CHARGES')
f=open( 'psi4out.xyz', 'w' )
f.write( "8  " )
f.write( str(ee) + "\n" )
f.write( MOL.save_string_xyz() )
f.close()
--------------------------------------------------------------------------

    Molecular point group: c1
  Charge       = 0
  Multiplicity = 1
  Basis Set: 6-31G*
  Basis Set:
  @DF-RHF Final Energy:  -227.79240617179275
    Total Energy =                       -227.7924061717927202
    Molecular point group: c1
  Basis Set: 6-31G*
  Basis Set:
  Basis Set: 6-31G*
  Basis Set:
  @DF-RHF Final Energy:  -227.79206821283702
    Total Energy =                       -227.7920682128371368
  Basis Set: 6-31G*
  Basis Set:
  Basis Set: 6-31G*
  Basis Set:
  @DF-RHF Final Energy:  -227.79351155410404
    Total Energy =                       -227.7935115541040432
  Basis Set: 6-31G*
  Basis Set:
  Basis Set: 6-31G*
  Basis Set:
  @DF-RHF Final Energy:  -227.79456997534078
    Total Energy =                       -227.7945699753407496
  Basis Set: 6-31G*
  Basis Set:
  @DF-RHF Final Energy:  -227.79459494451112
    Total Energy =                       -227.7945949445111182
  Basis Set: 6-31G*
  Basis Set:
  @DF-RHF Final Energy:  -227.79461376748534
    Total Energy =                       -227.7946137674853162
  Basis Set: 6-31G*
  Basis Set:
  Basis Set: 6-31G*
  Basis Set:
  @DF-RHF Final Energy:  -227.79302933637427
    Total Energy =                       -227.7930293363742749
  Basis Set: 6-31G*
  Basis Set:
  Basis Set: 6-31G*
  Basis Set:
  @DF-RHF Final Energy:  -227.79461287931588
    Total Energy =                       -227.7946128793158493
  Basis Set: 6-31G*
  Basis Set:
  Charge       = 0
  Multiplicity = 1
  Basis Set: 6-31G*
  Basis Set:

    Orbital Energies (a.u.)
    -----------------------

    Doubly Occupied:

       1A    -20.609776     2A    -20.554219     3A    -11.385653
       4A    -11.250115     5A     -1.467677     6A     -1.372618
       7A     -1.025759     8A     -0.836594     9A     -0.718005
      10A     -0.667344    11A     -0.658292    12A     -0.600261
      13A     -0.575702    14A     -0.538930    15A     -0.482496
      16A     -0.447418

  @DF-RHF Final Energy:  -227.79462059403591

   => Energetics <=

    Nuclear Repulsion Energy =            122.0437354149000271
    One-Electron Energy =                -553.2949941289372191
    Two-Electron Energy =                 203.4566381200012302
    DFT Exchange-Correlation Energy =       0.0000000000000000
    Empirical Dispersion Energy =           0.0000000000000000
    PCM Polarization Energy =               0.0000000000000000
    EFP Energy =                            0.0000000000000000
    Total Energy =                       -227.7946205940359619
    Molecular point group: c1
  Basis Set: 6-31G*
  Basis Set:

  -Total Gradient:
     Atom            X                  Y                   Z
    ------   -----------------  -----------------  -----------------
       1        0.000179714539     0.000133372763     0.006376255105
       2       -0.001015191482     0.000799442698    -0.009561870094
       3        0.002353668176    -0.002984701323     0.006386105230
       4       -0.001439793481     0.002222409720    -0.003141568818
       5       -0.000076760386    -0.000107789312    -0.000037935551
       6        0.000009430769    -0.000019170234    -0.000004084468
       7        0.000006766857    -0.000028379876    -0.000003782430
       8       -0.000017834990    -0.000015184437    -0.000013118975

  **** Optimization is complete! (in 9 steps) ****
    Final optimized geometry and variables:
    Molecular point group: c1

    Geometry (in Angstrom), charge = 0, multiplicity = 1:

    H           -0.997970109427    -1.532436733360     0.140065479224
    O           -1.137060224195    -0.594529359428     0.126706998634
    C            0.021167544111     0.088773713964     0.078597028100
    C            1.074542038946    -0.508844168494    -0.823372201833
    O            0.127486945858     1.129967413980     0.622619496020
    H            1.276004209980    -1.546475604688    -0.573890786393
    H            1.986881254828     0.062533259641    -0.745424894701
    H            0.711318908557    -0.479704467987    -1.845194639610

  Mulliken Charges: (a.u.)
   Center  Symbol    Alpha    Beta     Spin     Total
       1     H     0.26982  0.26982  0.00000  0.46035
       2     O     4.34951  4.34951  0.00000 -0.69902
       3     C     2.63233  2.63233  0.00000  0.73533
       4     C     3.29927  3.29927  0.00000 -0.59853
       5     O     4.25206  4.25206  0.00000 -0.50413
       6     H     0.41245  0.41245  0.00000  0.17510
       7     H     0.38988  0.38988  0.00000  0.22024
       8     H     0.39467  0.39467  0.00000  0.21065

   Total alpha = 16.00000, Total beta = 16.00000, Total charge = -0.00000
