                              Psi4 1.0.54 Driver

  ==> Input File <==

--------------------------------------------------------------------------
set {
	reference rhf
	basis cc-pvtz
}

set_num_threads( 4 )
memory 2 gb

molecule MOL {
0 1

O	 0.817174	 0.788990	 0.931435
C	 1.121787	 0.124983	 0.000110
C	 0.394626	 0.081548	 -1.319289
O	 2.167739	 -0.685178	 -0.000678
C	 -0.821346	 0.994604	 -1.379839
H	 1.114669	 0.334211	 -2.090768
H	 0.119166	 -0.952372	 -1.499824
C	 -1.532727	 0.926558	 -2.728029
H	 -0.513782	 2.014500	 -1.177957
H	 -1.510512	 0.726375	 -0.586966
C	 -2.751745	 1.839599	 -2.800447
H	 -0.836302	 1.193094	 -3.518718
H	 -1.838354	 -0.097692	 -2.924857
H	 -2.473459	 2.875939	 -2.641888
H	 -3.236195	 1.770864	 -3.767536
H	 -3.482834	 1.575735	 -2.043833
C	 3.449556	 -0.089977	 -0.000570
H	 3.585694	 0.522473	 -0.879546
H	 4.155805	 -0.904274	 -0.001389
H	 3.586173	 0.521118	 0.879272

	symmetry c1
}
set optking {
	frozen_dihedral = ("
		1 2 4 17
	")
}

ee,wfn = optimize('scf', return_wfn=True)
oeprop( wfn, 'DIPOLE', 'QUADRUPOLE', 'MULLIKEN_CHARGES')
f=open( 'psi4out.xyz', 'w' )
f.write( "20  " )
f.write( str(ee) + "\n" )
f.write( MOL.save_string_xyz() )
f.close()
--------------------------------------------------------------------------

    Molecular point group: c1
  Charge       = 0
  Multiplicity = 1
  Basis Set: CC-PVTZ
  Basis Set:
  @DF-RHF Final Energy:  -384.06607249018128
    Total Energy =                       -384.0660724901811136
    Molecular point group: c1
  Basis Set: CC-PVTZ
  Basis Set:
  Basis Set: CC-PVTZ
  Basis Set:
  @DF-RHF Final Energy:  -383.97124543803812
    Total Energy =                       -383.9712454380377267
  Basis Set: CC-PVTZ
  Basis Set:
  Basis Set: CC-PVTZ
  Basis Set:
  @DF-RHF Final Energy:  -384.05135691392314
    Total Energy =                       -384.0513569139234278
  Basis Set: CC-PVTZ
  Basis Set:
  Basis Set: CC-PVTZ
  Basis Set:
  @DF-RHF Final Energy:  -384.06520278589375
    Total Energy =                       -384.0652027858934616
  Basis Set: CC-PVTZ
  Basis Set:
  @DF-RHF Final Energy:  -384.06408071808113
    Total Energy =                       -384.0640807180811862
  Basis Set: CC-PVTZ
  Basis Set:
  @DF-RHF Final Energy:  -384.06705533498291
    Total Energy =                       -384.0670553349833654
  Basis Set: CC-PVTZ
  Basis Set:
  Basis Set: CC-PVTZ
  Basis Set:
  @DF-RHF Final Energy:  -384.06720512242453
    Total Energy =                       -384.0672051224244115
  Basis Set: CC-PVTZ
  Basis Set:
  Basis Set: CC-PVTZ
  Basis Set:
  @DF-RHF Final Energy:  -384.06721038065808
    Total Energy =                       -384.0672103806577979
  Basis Set: CC-PVTZ
  Basis Set:
  Charge       = 0
  Multiplicity = 1
  Basis Set: CC-PVTZ
  Basis Set:

    Orbital Energies (a.u.)
    -----------------------

    Doubly Occupied:

       1A    -20.579664     2A    -20.544295     3A    -11.367512
       4A    -11.286112     5A    -11.237008     6A    -11.220353
       7A    -11.219393     8A    -11.210198     9A     -1.462761
      10A     -1.368733    11A     -1.091154    12A     -1.021760
      13A     -0.969524    14A     -0.893833    15A     -0.807180
      16A     -0.766843    17A     -0.698114    18A     -0.681134
      19A     -0.676078    20A     -0.644353    21A     -0.613488
      22A     -0.592749    23A     -0.586865    24A     -0.548386
      25A     -0.537383    26A     -0.513790    27A     -0.503023
      28A     -0.487615    29A     -0.478758    30A     -0.472288
      31A     -0.454980    32A     -0.436405

  @DF-RHF Final Energy:  -384.06721094313349

   => Energetics <=

    Nuclear Repulsion Energy =            381.3933543713926042
    One-Electron Energy =               -1278.9776737047209281
    Two-Electron Energy =                 513.5171083901948350
    DFT Exchange-Correlation Energy =       0.0000000000000000
    Empirical Dispersion Energy =           0.0000000000000000
    PCM Polarization Energy =               0.0000000000000000
    EFP Energy =                            0.0000000000000000
    Total Energy =                       -384.0672109431334320
    Molecular point group: c1
  Basis Set: CC-PVTZ
  Basis Set:

  -Total Gradient:
     Atom            X                  Y                   Z
    ------   -----------------  -----------------  -----------------
       1       -0.002753858026    -0.004812130572     0.004050124820
       2        0.003996702736     0.006246033661    -0.008386530942
       3       -0.000001292875     0.000034223129     0.000021884022
       4       -0.000981477848     0.000054378644     0.009588291600
       5       -0.000003429537    -0.000023413699    -0.000008591073
       6        0.000004710816     0.000003960758    -0.000002878932
       7       -0.000002449703    -0.000003809680    -0.000009026362
       8       -0.000001323348     0.000024935294    -0.000002802283
       9        0.000006112059    -0.000000220076    -0.000001735586
      10       -0.000002816987     0.000003248020     0.000003651353
      11       -0.000009660820    -0.000011410625     0.000004488959
      12        0.000002977194    -0.000001755476    -0.000001925736
      13        0.000000442180    -0.000007276772     0.000001399182
      14        0.000002772468     0.000003146589     0.000000339893
      15       -0.000001890258    -0.000002120853    -0.000003361341
      16        0.000001600610     0.000003487101    -0.000000443543
      17       -0.000215712311    -0.001495844984    -0.005246955266
      18        0.000003063015    -0.000005051564     0.000009387480
      19       -0.000032595350     0.000014668608    -0.000005991616
      20       -0.000011874011    -0.000025047500    -0.000009324629

  **** Optimization is complete! (in 9 steps) ****
    Final optimized geometry and variables:
    Molecular point group: c1

    Geometry (in Angstrom), charge = 0, multiplicity = 1:

    O            0.537750715418     0.929493906824     1.546510461834
    C            0.895646835809     0.100721887864     0.790539558379
    C            0.060224592155    -0.487502704391    -0.314813993646
    O            2.100663891960    -0.492548214440     0.895433517566
    C           -1.345160629494     0.086891095173    -0.411755639871
    H            0.609469760012    -0.343917238361    -1.241680205390
    H            0.040957488172    -1.560750165876    -0.153816774726
    C           -2.156063734055    -0.541519426573    -1.541377879897
    H           -1.284608083135     1.159991909909    -0.556019892631
    H           -1.855861066614    -0.060449088808     0.533266232871
    C           -3.567004665640     0.027286201854    -1.644442834607
    H           -1.638372267418    -0.392333975067    -2.485411110120
    H           -2.211626707469    -1.616538694956    -1.391947238826
    H           -3.544907378916     1.096052098101    -1.828482018538
    H           -4.118629874837    -0.436929317965    -2.453644641663
    H           -4.122258230924    -0.137306317287    -0.727354694868
    C            3.229369035879     0.300932092086     0.600056751619
    H            3.225237028705     0.596703409157    -0.443233080995
    H            4.097034631066    -0.309200488957     0.791330636238
    H            3.257261176588     1.180508228762     1.228139346775

  Mulliken Charges: (a.u.)
   Center  Symbol    Alpha    Beta     Spin     Total
       1     O     4.17445  4.17445  0.00000 -0.34889
       2     C     2.79098  2.79098  0.00000  0.41804
       3     C     3.11078  3.11078  0.00000 -0.22157
       4     O     4.16855  4.16855  0.00000 -0.33709
       5     C     3.08271  3.08271  0.00000 -0.16543
       6     H     0.44467  0.44467  0.00000  0.11067
       7     H     0.43688  0.43688  0.00000  0.12623
       8     C     3.08613  3.08613  0.00000 -0.17227
       9     H     0.44734  0.44734  0.00000  0.10532
      10     H     0.44529  0.44529  0.00000  0.10941
      11     C     3.14934  3.14934  0.00000 -0.29868
      12     H     0.45560  0.45560  0.00000  0.08880
      13     H     0.45456  0.45456  0.00000  0.09087
      14     H     0.45400  0.45400  0.00000  0.09200
      15     H     0.44815  0.44815  0.00000  0.10370
      16     H     0.45340  0.45340  0.00000  0.09321
      17     C     3.03554  3.03554  0.00000 -0.07108
      18     H     0.46719  0.46719  0.00000  0.06563
      19     H     0.44461  0.44461  0.00000  0.11078
      20     H     0.44983  0.44983  0.00000  0.10034

   Total alpha = 32.00000, Total beta = 32.00000, Total charge = -0.00000

*** Psi4 exiting successfully. Buy a developer a beer!
