  ==> Input File <==

--------------------------------------------------------------------------
set {
	reference rhf
	basis 6-31G*
}

set_num_threads( 4 )
memory 2 gb

molecule MOL {
0 1

H	 2.591676	 2.013956	 0.335017
O	 3.341076	 1.666752	 -0.126416
C	 3.569581	 0.339145	 0.272707
C	 2.539767	 -0.640285	 -0.279495
H	 4.553106	 0.084646	 -0.100901
H	 3.608576	 0.269204	 1.359154
C	 1.115811	 -0.397273	 0.226630
H	 2.556196	 -0.582511	 -1.364741
H	 2.852081	 -1.648031	 -0.010655
C	 0.115918	 -1.429151	 -0.302766
H	 0.797950	 0.599468	 -0.066350
H	 1.109961	 -0.420744	 1.316472
C	 -0.715200	 -2.132935	 0.776248
H	 -0.552169	 -0.947783	 -1.014658
H	 0.662375	 -2.184502	 -0.863596
C	 -1.692423	 -1.226811	 1.530209
H	 -1.279530	 -2.934526	 0.304232
H	 -0.046334	 -2.613789	 1.488452
C	 -2.572147	 -1.992493	 2.520791
H	 -2.327647	 -0.708637	 0.813204
H	 -1.147782	 -0.454789	 2.068400
C	 -3.544101	 -1.089434	 3.279377
H	 -3.132295	 -2.757742	 1.987764
H	 -1.938950	 -2.518749	 3.232128
H	 -4.213535	 -0.573250	 2.597002
H	 -4.154369	 -1.661343	 3.971567
H	 -3.012719	 -0.335102	 3.852946

	symmetry c1
}
set optking {
	frozen_dihedral = ("
		14 10 7 4
	")
}

ee = optimize('scf')
oeprop('DIPOLE', 'QUADRUPOLE', 'MULLIKEN_CHARGES')
f=open( 'psi4out.xyz', 'w' )
f.write( "27  " )
f.write( str(ee) + "\n" )
f.write( MOL.save_string_xyz() )
f.close()
--------------------------------------------------------------------------

    Molecular point group: c1
  Charge       = 0
  Multiplicity = 1
  Basis Set: 6-31G*
  Basis Set:
  @DF-RHF Final Energy:  -388.27662866592726
    Total Energy =                       -388.2766286659270918
    Molecular point group: c1
  Basis Set: 6-31G*
  Basis Set:
  Basis Set: 6-31G*
  Basis Set:
  @DF-RHF Final Energy:  -388.27693526751744
    Total Energy =                       -388.2769352675177288
  Basis Set: 6-31G*
  Basis Set:
  Basis Set: 6-31G*
  Basis Set:
  @DF-RHF Final Energy:  -388.27705947239917
    Total Energy =                       -388.2770594723983777
  Basis Set: 6-31G*
  Basis Set:
  Basis Set: 6-31G*
  Basis Set:
  @DF-RHF Final Energy:  -388.27705217811814
    Total Energy =                       -388.2770521781185380
  Basis Set: 6-31G*
  Basis Set:
  Basis Set: 6-31G*
  Basis Set:
  @DF-RHF Final Energy:  -388.27705540208296
    Total Energy =                       -388.2770554020826239
  Basis Set: 6-31G*
  Basis Set:
  Basis Set: 6-31G*
  Basis Set:
  @DF-RHF Final Energy:  -388.27706438932023
    Total Energy =                       -388.2770643893204578
  Basis Set: 6-31G*
  Basis Set:
  Basis Set: 6-31G*
  Basis Set:
  @DF-RHF Final Energy:  -388.27706709822860
    Total Energy =                       -388.2770670982284855
  Basis Set: 6-31G*
  Basis Set:
  Charge       = 0
  Multiplicity = 1
  Basis Set: 6-31G*
  Basis Set:

    Orbital Energies (a.u.)
    -----------------------

    Doubly Occupied:

       1A    -20.552236     2A    -11.266898     3A    -11.220120
       4A    -11.217023     5A    -11.216497     6A    -11.215932
       7A    -11.215657     8A    -11.214677     9A    -11.209916
      10A     -1.358985    11A     -1.094584    12A     -1.060815
      13A     -1.011617    14A     -0.947500    15A     -0.888267
      16A     -0.821516    17A     -0.802724    18A     -0.777046
      19A     -0.693081    20A     -0.656205    21A     -0.632952
      22A     -0.614915    23A     -0.595868    24A     -0.587793
      25A     -0.580237    26A     -0.550068    27A     -0.546139
      28A     -0.529195    29A     -0.503516    30A     -0.499596
      31A     -0.484088    32A     -0.474820    33A     -0.465704
      34A     -0.458293    35A     -0.453774    36A     -0.441915
      37A     -0.422753

  @DF-RHF Final Energy:  -388.27706720176735

   => Energetics <=

    Nuclear Repulsion Energy =            459.1129240701149570
    One-Electron Energy =               -1436.2141370246984025
    Two-Electron Energy =                 588.8241457528165483
    DFT Exchange-Correlation Energy =       0.0000000000000000
    Empirical Dispersion Energy =           0.0000000000000000
    PCM Polarization Energy =               0.0000000000000000
    EFP Energy =                            0.0000000000000000
    Total Energy =                       -388.2770672017668403
    Molecular point group: c1
  Basis Set: 6-31G*
  Basis Set:

  -Total Gradient:
     Atom            X                  Y                   Z
    ------   -----------------  -----------------  -----------------
       1        0.000003699143    -0.000010685470     0.000002897815
       2        0.000025612019     0.000014022673    -0.000023217196
       3       -0.000043286336     0.000015339442     0.000029628342
       4        0.000348585702    -0.001017223745     0.001250764239
       5       -0.000012687709     0.000015419806    -0.000009452000
       6        0.000013088209    -0.000014555739     0.000006058677
       7       -0.000775270176     0.001535577285    -0.001311006549
       8       -0.000006087911    -0.000013150445    -0.000007234519
       9        0.000002029220     0.000000371523     0.000006160348
      10        0.001856302302    -0.000968925392    -0.001670945286
      11        0.000008950625     0.000004093614     0.000018888970
      12        0.000002462154     0.000012673361     0.000010578572
      13       -0.000043837623     0.000006327765    -0.000036863308
      14       -0.001399641343     0.000434582414     0.001725353729
      15       -0.000037145563    -0.000013908868    -0.000011227867
      16        0.000039804897    -0.000001385314     0.000001165772
      17        0.000007956283    -0.000012123906    -0.000005722823
      18       -0.000009632865     0.000019608331     0.000016931930
      19       -0.000001113695    -0.000017475206     0.000006022232
      20        0.000006799652    -0.000004493912     0.000007643648
      21        0.000026818589     0.000018561417    -0.000003486004
      22       -0.000010050567    -0.000004046318    -0.000006961416
      23        0.000001840354    -0.000006391828     0.000005940359
      24       -0.000000009446     0.000008327515     0.000000887519
      25       -0.000002310997     0.000004456878     0.000000141449
      26       -0.000004312864     0.000000184724    -0.000002315333
      27        0.000001437936    -0.000005180606    -0.000000631295

  **** Optimization is complete! (in 8 steps) ****
    Final optimized geometry and variables:
    Molecular point group: c1

    Geometry (in Angstrom), charge = 0, multiplicity = 1:

    H            2.308197829198     2.726049765867    -0.487442544773
    O            3.058817274423     2.393863228580    -0.957830839755
    C            3.293716174785     1.057780165012    -0.592190069618
    C            2.265313462248     0.088370420942    -1.163397016708
    H            4.276271922853     0.816473001955    -0.976946659124
    H            3.338873611592     0.961217162549     0.492130441558
    C            0.844304151877     0.302176981531    -0.633837475255
    H            2.271193316665     0.176905302585    -2.246863029368
    H            2.583984281661    -0.925368817815    -0.926365026300
    C           -0.175014025521    -0.712483265092    -1.200821268427
    H            0.519616273428     1.313754508281    -0.860144347380
    H            0.869846541764     0.226753668745     0.451929027479
    C           -1.010559739401    -1.430345043676    -0.133840304684
    H           -0.855908949230    -0.208850065046    -1.882252256381
    H            0.349162430176    -1.460354188377    -1.789179870929
    C           -1.992441244130    -0.519549797146     0.607263199940
    H           -1.570272343056    -2.233154649671    -0.609336015177
    H           -0.344401635502    -1.907414213757     0.583644993860
    C           -2.817143780083    -1.257394323618     1.663872405444
    H           -2.664876689319    -0.059562259420    -0.115431264617
    H           -1.455098293163     0.297643271804     1.084187303290
    C           -3.807995011298    -0.349032216054     2.391065797623
    H           -3.357362098001    -2.075401955239     1.192056150295
    H           -2.146876743798    -1.713690317554     2.389328805392
    H           -4.514431594282     0.096304419988     1.696193808433
    H           -4.377272078310    -0.900996672883     3.132592430450
    H           -3.295221224170     0.460282791933     2.903390775528

  Mulliken Charges: (a.u.)
   Center  Symbol    Alpha    Beta     Spin     Total
       1     H     0.28003  0.28003  0.00000  0.43994
       2     O     4.37091  4.37091  0.00000 -0.74182
       3     C     2.99773  2.99773  0.00000  0.00454
       4     C     3.16333  3.16333  0.00000 -0.32666
       5     H     0.41440  0.41440  0.00000  0.17120
       6     H     0.43224  0.43224  0.00000  0.13553
       7     C     3.16371  3.16371  0.00000 -0.32741
       8     H     0.41454  0.41454  0.00000  0.17092
       9     H     0.42407  0.42407  0.00000  0.15185
      10     C     3.15569  3.15569  0.00000 -0.31139
      11     H     0.42292  0.42292  0.00000  0.15416
      12     H     0.42280  0.42280  0.00000  0.15440
      13     C     3.15514  3.15514  0.00000 -0.31029
      14     H     0.41973  0.41973  0.00000  0.16053
      15     H     0.41749  0.41749  0.00000  0.16502
      16     C     3.15204  3.15204  0.00000 -0.30409
      17     H     0.42180  0.42180  0.00000  0.15639
      18     H     0.42455  0.42455  0.00000  0.15089
      19     C     3.15116  3.15116  0.00000 -0.30232
      20     H     0.42411  0.42411  0.00000  0.15178
      21     H     0.42329  0.42329  0.00000  0.15341
      22     C     3.23920  3.23920  0.00000 -0.47839
      23     H     0.42274  0.42274  0.00000  0.15451
      24     H     0.42330  0.42330  0.00000  0.15340
      25     H     0.42161  0.42161  0.00000  0.15679
      26     H     0.41914  0.41914  0.00000  0.16173
      27     H     0.42231  0.42231  0.00000  0.15538

   Total alpha = 37.00000, Total beta = 37.00000, Total charge = -0.00000
