  ==> Input File <==

--------------------------------------------------------------------------
set {
	reference rhf
	basis cc-pvtz
}

set_num_threads( 4 )
memory 2 gb

molecule MOL {
0 1

H	 1.651322	 -0.822465	 0.000000
O	 0.729993	 -1.034364	 0.000000
C	 0.037305	 0.100061	 0.000000
C	 -1.423941	 -0.133557	 -0.241371
O	 0.546391	 1.152481	 0.173320
H	 -1.558061	 -0.628527	 -1.194515
H	 -1.946377	 0.808633	 -0.233414
H	 -1.817121	 -0.786711	 0.526919

	symmetry c1
}
set optking {
	frozen_dihedral = ("
		4 3 2 1
	")
}

ee = optimize('scf')
oeprop('DIPOLE', 'QUADRUPOLE', 'MULLIKEN_CHARGES')
f=open( 'psi4out.xyz', 'w' )
f.write( "8  " )
f.write( str(ee) + "\n" )
f.write( MOL.save_string_xyz() )
f.close()
--------------------------------------------------------------------------

    Molecular point group: c1
  Charge       = 0
  Multiplicity = 1
  Basis Set: CC-PVTZ
  Basis Set:
  @DF-RHF Final Energy:  -227.90409437330902
    Total Energy =                       -227.9040943733090785
    Molecular point group: c1
  Basis Set: CC-PVTZ
  Basis Set:
  Basis Set: CC-PVTZ
  Basis Set:
  @DF-RHF Final Energy:  -227.90326766912125
    Total Energy =                       -227.9032676691211918
  Basis Set: CC-PVTZ
  Basis Set:
  Basis Set: CC-PVTZ
  Basis Set:
  @DF-RHF Final Energy:  -227.90415109594034
    Total Energy =                       -227.9041510959402785
  Basis Set: CC-PVTZ
  Basis Set:
  Basis Set: CC-PVTZ
  Basis Set:
  @DF-RHF Final Energy:  -227.90416314078004
    Total Energy =                       -227.9041631407800139
  Basis Set: CC-PVTZ
  Basis Set:
  Basis Set: CC-PVTZ
  Basis Set:
  @DF-RHF Final Energy:  -227.90418763378378
    Total Energy =                       -227.9041876337837778
  Basis Set: CC-PVTZ
  Basis Set:
  Charge       = 0
  Multiplicity = 1
  Basis Set: CC-PVTZ
  Basis Set:

    Orbital Energies (a.u.)
    -----------------------

    Doubly Occupied:

       1A    -20.606660     2A    -20.542487     3A    -11.378473
       4A    -11.239335     5A     -1.479919     6A     -1.371817
       7A     -1.028402     8A     -0.834593     9A     -0.707084
      10A     -0.686163    11A     -0.657769    12A     -0.584788
      13A     -0.574552    14A     -0.562362    15A     -0.486154
      16A     -0.452471

  @DF-RHF Final Energy:  -227.90418848830512

   => Energetics <=

    Nuclear Repulsion Energy =            122.7807862980516376
    One-Electron Energy =                -554.9838918768649592
    Two-Electron Energy =                 204.2989170905081551
    DFT Exchange-Correlation Energy =       0.0000000000000000
    Empirical Dispersion Energy =           0.0000000000000000
    PCM Polarization Energy =               0.0000000000000000
    EFP Energy =                            0.0000000000000000
    Total Energy =                       -227.9041884883051807
    Molecular point group: c1
  Basis Set: CC-PVTZ
  Basis Set:

  -Total Gradient:
     Atom            X                  Y                   Z
    ------   -----------------  -----------------  -----------------
       1       -0.000049568569    -0.000180438256    -0.003522748764
       2        0.000173851812     0.000079443614     0.003369726764
       3       -0.000423614461     0.000081958897     0.002399703272
       4        0.000359236286     0.000094628221    -0.002279750282
       5       -0.000068226160    -0.000036391455    -0.000001260917
       6        0.000004025344    -0.000004389009     0.000021795078
       7       -0.000003142304    -0.000009040992    -0.000000951069
       8        0.000007438053    -0.000025771023     0.000013485918

  **** Optimization is complete! (in 6 steps) ****
    Final optimized geometry and variables:
    Molecular point group: c1

    Geometry (in Angstrom), charge = 0, multiplicity = 1:

    H            1.643724158366    -0.834571298085     0.069867404195
    O            0.720714235164    -1.038505014187     0.083340876494
    C            0.035528714388     0.099876056905     0.020541183238
    C           -1.427911666473    -0.136590216593    -0.204773650250
    O            0.556230356875     1.157356205113     0.101319322493
    H           -1.561738034925    -0.565023851849    -1.190264782593
    H           -1.961276427531     0.797009178396    -0.134287782845
    H           -1.807881754862    -0.846519466970     0.517618221398

  Mulliken Charges: (a.u.)
   Center  Symbol    Alpha    Beta     Spin     Total
       1     H     0.38027  0.38027  0.00000  0.23946
       2     O     4.16173  4.16173  0.00000 -0.32346
       3     C     2.80261  2.80261  0.00000  0.39479
       4     C     3.13944  3.13944  0.00000 -0.27889
       5     O     4.19040  4.19040  0.00000 -0.38079
       6     H     0.44443  0.44443  0.00000  0.11113
       7     H     0.43733  0.43733  0.00000  0.12533
       8     H     0.44379  0.44379  0.00000  0.11243

   Total alpha = 16.00000, Total beta = 16.00000, Total charge =  0.00000
