  ==> Input File <==

--------------------------------------------------------------------------
set {
	reference rhf
	basis 6-31G*
}

set_num_threads( 4 )
memory 2 gb

molecule MOL {
0 1

O	 0.687587	 0.393122	 2.649294
C	 1.241269	 -0.270356	 1.833026
C	 1.245376	 -0.013843	 0.345420
O	 1.946931	 -1.353184	 2.134946
C	 0.455112	 1.231400	 -0.050772
H	 2.283464	 0.047582	 0.035918
H	 0.843963	 -0.901671	 -0.136583
C	 -0.998893	 1.219485	 0.433193
H	 0.482531	 1.345121	 -1.130325
H	 0.957290	 2.103070	 0.354729
C	 -1.883438	 0.145884	 -0.207175
H	 -1.431207	 2.195402	 0.224832
H	 -1.019646	 1.105716	 1.516076
C	 -3.347647	 0.245583	 0.225435
H	 -1.822183	 0.231698	 -1.291012
H	 -1.510341	 -0.844814	 0.042401
C	 -4.239992	 -0.825570	 -0.404234
H	 -3.732888	 1.230466	 -0.033079
H	 -3.408585	 0.170602	 1.310038
C	 -5.701275	 -0.716658	 0.029921
H	 -4.179496	 -0.752714	 -1.488058
H	 -3.859041	 -1.810759	 -0.143352
H	 -6.308102	 -1.488908	 -0.432678
H	 -6.122175	 0.245478	 -0.248167
H	 -5.799072	 -0.820114	 1.106957
C	 2.023430	 -1.709388	 3.503212
H	 2.483732	 -0.917843	 4.076869
H	 2.629716	 -2.600942	 3.542655
H	 1.038272	 -1.908664	 3.899811

	symmetry c1
}
set optking {
	frozen_dihedral = ("
		6 3 5 9
	")
}

ee = optimize('scf')
oeprop('DIPOLE', 'QUADRUPOLE', 'MULLIKEN_CHARGES')
f=open( 'psi4out.xyz', 'w' )
f.write( "29  " )
f.write( str(ee) + "\n" )
f.write( MOL.save_string_xyz() )
f.close()
--------------------------------------------------------------------------

    Molecular point group: c1
  Charge       = 0
  Multiplicity = 1
  Basis Set: 6-31G*
  Basis Set:
  @DF-RHF Final Energy:  -501.03963529035752
    Total Energy =                       -501.0396352903578645
    Molecular point group: c1
  Basis Set: 6-31G*
  Basis Set:
  Basis Set: 6-31G*
  Basis Set:
  @DF-RHF Final Energy:  -501.04225692013449
    Total Energy =                       -501.0422569201350598
  Basis Set: 6-31G*
  Basis Set:
  Basis Set: 6-31G*
  Basis Set:
  @DF-RHF Final Energy:  -501.04124223033205
    Total Energy =                       -501.0412422303319318
  Basis Set: 6-31G*
  Basis Set:
  Basis Set: 6-31G*
  Basis Set:
  @DF-RHF Final Energy:  -501.04275710287482
    Total Energy =                       -501.0427571028750435
  Basis Set: 6-31G*
  Basis Set:
  @DF-RHF Final Energy:  -501.04301392339687
    Total Energy =                       -501.0430139233964155
  Basis Set: 6-31G*
  Basis Set:
  @DF-RHF Final Energy:  -501.04311544553605
    Total Energy =                       -501.0431154455357046
  Basis Set: 6-31G*
  Basis Set:
  Basis Set: 6-31G*
  Basis Set:
  @DF-RHF Final Energy:  -501.04315147321483
    Total Energy =                       -501.0431514732144933
  Basis Set: 6-31G*
  Basis Set:
  Basis Set: 6-31G*
  Basis Set:
  @DF-RHF Final Energy:  -501.04316965003090
    Total Energy =                       -501.0431696500304497
  Basis Set: 6-31G*
  Basis Set:
  Charge       = 0
  Multiplicity = 1
  Basis Set: 6-31G*
  Basis Set:

    Orbital Energies (a.u.)
    -----------------------

    Doubly Occupied:

       1A    -20.605043     2A    -20.544965     3A    -11.372690
       4A    -11.281376     5A    -11.234972     6A    -11.221283
       7A    -11.214060     8A    -11.213476     9A    -11.211936
      10A    -11.210949    11A    -11.207515    12A     -1.470131
      13A     -1.362823    14A     -1.095724    15A     -1.065225
      16A     -1.017113    17A     -0.977149    18A     -0.927501
      19A     -0.861207    20A     -0.800871    21A     -0.788975
      22A     -0.762520    23A     -0.695367    24A     -0.682458
      25A     -0.670274    26A     -0.651030    27A     -0.623945
      28A     -0.615781    29A     -0.587445    30A     -0.579458
      31A     -0.564081    32A     -0.548616    33A     -0.537176
      34A     -0.525762    35A     -0.520608    36A     -0.501593
      37A     -0.499103    38A     -0.478861    39A     -0.470028
      40A     -0.461689    41A     -0.457471    42A     -0.454354
      43A     -0.436706    44A     -0.432060

  @DF-RHF Final Energy:  -501.04317210458953

   => Energetics <=

    Nuclear Repulsion Energy =            630.3275579333371752
    One-Electron Energy =               -1931.8587205013643597
    Two-Electron Energy =                 800.4879904634370860
    DFT Exchange-Correlation Energy =       0.0000000000000000
    Empirical Dispersion Energy =           0.0000000000000000
    PCM Polarization Energy =               0.0000000000000000
    EFP Energy =                            0.0000000000000000
    Total Energy =                       -501.0431721045900986
    Molecular point group: c1
  Basis Set: 6-31G*
  Basis Set:

  -Total Gradient:
     Atom            X                  Y                   Z
    ------   -----------------  -----------------  -----------------
       1       -0.000055714590    -0.000079933263     0.000022554966
       2        0.000085268422     0.000063638960    -0.000041277674
       3       -0.001085375826    -0.001345104630    -0.002304328216
       4       -0.000019332700     0.000022606481     0.000051007567
       5        0.002230822012     0.001620487175     0.000574896332
       6        0.000537364043     0.000882604631     0.001826435616
       7       -0.000005021068    -0.000010512911     0.000003119401
       8        0.000035872317    -0.000019133648     0.000003323075
       9       -0.001716676808    -0.001173264592    -0.000137722040
      10       -0.000012905234     0.000001998776    -0.000003203932
      11        0.000008402236    -0.000005291053     0.000015932470
      12        0.000019075836     0.000001135103    -0.000030838514
      13       -0.000033392503     0.000009422463     0.000048708389
      14        0.000005820159    -0.000014277535     0.000026088180
      15       -0.000030698060     0.000044457077    -0.000003368634
      16        0.000025738374     0.000002942078    -0.000044692771
      17        0.000002518803    -0.000006910187     0.000007221091
      18       -0.000005585431    -0.000000749645    -0.000013446461
      19        0.000002390910     0.000013868342    -0.000000886669
      20        0.000001480527    -0.000001625131     0.000003654824
      21       -0.000000009457     0.000000437374    -0.000000864273
      22       -0.000001814598    -0.000001455982    -0.000001383927
      23       -0.000000174163     0.000000634526    -0.000000633935
      24        0.000001677677    -0.000000453251     0.000000520395
      25       -0.000001860097    -0.000000796711     0.000000374075
      26        0.000020525318    -0.000000688456    -0.000027218500
      27       -0.000001659105    -0.000000623182     0.000007234669
      28        0.000001861438    -0.000004228985     0.000020072831
      29       -0.000008598429     0.000000816174    -0.000001278341

  **** Optimization is complete! (in 9 steps) ****
    Final optimized geometry and variables:
    Molecular point group: c1

    Geometry (in Angstrom), charge = 0, multiplicity = 1:

    O            1.985681314918     0.790880782147     1.691095811043
    C            2.112338632146    -0.039836770304     0.849098906967
    C            1.988673144095     0.196020590207    -0.638378201784
    O            2.430067036236    -1.299231979938     1.117505992660
    C            1.169671245862     1.435612829380    -1.006589138792
    H            3.011501038502     0.320248196659    -0.988867635229
    H            1.611253524695    -0.704350651987    -1.105309638954
    C           -0.295630489747     1.419003021190    -0.551407537060
    H            1.190945789486     1.532543165429    -2.089563385716
    H            1.657420081681     2.311575255881    -0.594652943180
    C           -1.145390525176     0.307880272825    -1.174972269956
    H           -0.733381256377     2.379623773685    -0.813792708257
    H           -0.340174322871     1.352653563632     0.530873467120
    C           -2.620015641147     0.394549993516    -0.775907675606
    H           -1.063895494458     0.355358566524    -2.260182141017
    H           -0.760581767905    -0.667113370574    -0.883148154890
    C           -3.478615595796    -0.717823688376    -1.380497056000
    H           -3.018695579430     1.360793104014    -1.080407758260
    H           -2.701145723799     0.361043086228     0.309237856485
    C           -4.950269998509    -0.621540320332    -0.979532481675
    H           -3.397705594764    -0.686085387400    -2.465069258846
    H           -3.084172893181    -1.684357593887    -1.073822393296
    H           -5.532755280863    -1.423239742623    -1.423080331552
    H           -5.383924528240     0.320460303508    -1.303270377332
    H           -5.067698198378    -0.684774191686     0.098628823552
    C            2.638191744447    -1.633644253536     2.477859245819
    H            3.448927359232    -1.052047215720     2.892532587002
    H            2.886849920923    -2.683380140619     2.488961899245
    H            1.741849745070    -1.454740977810     3.053982634212

  Mulliken Charges: (a.u.)
   Center  Symbol    Alpha    Beta     Spin     Total
       1     O     4.28778  4.28778  0.00000 -0.57556
       2     C     2.60535  2.60535  0.00000  0.78930
       3     C     3.21178  3.21178  0.00000 -0.42356
       4     O     4.30615  4.30615  0.00000 -0.61230
       5     C     3.15388  3.15388  0.00000 -0.30777
       6     H     0.39819  0.39819  0.00000  0.20362
       7     H     0.39859  0.39859  0.00000  0.20282
       8     C     3.16210  3.16210  0.00000 -0.32421
       9     H     0.41968  0.41968  0.00000  0.16064
      10     H     0.40724  0.40724  0.00000  0.18553
      11     C     3.15501  3.15501  0.00000 -0.31002
      12     H     0.42071  0.42071  0.00000  0.15858
      13     H     0.40757  0.40757  0.00000  0.18487
      14     C     3.15013  3.15013  0.00000 -0.30026
      15     H     0.42506  0.42506  0.00000  0.14988
      16     H     0.42474  0.42474  0.00000  0.15051
      17     C     3.15133  3.15133  0.00000 -0.30266
      18     H     0.42366  0.42366  0.00000  0.15268
      19     H     0.42274  0.42274  0.00000  0.15451
      20     C     3.23927  3.23927  0.00000 -0.47854
      21     H     0.42354  0.42354  0.00000  0.15293
      22     H     0.42358  0.42358  0.00000  0.15284
      23     H     0.41970  0.41970  0.00000  0.16060
      24     H     0.42173  0.42173  0.00000  0.15654
      25     H     0.42161  0.42161  0.00000  0.15678
      26     C     3.09265  3.09265  0.00000 -0.18531
      27     H     0.40904  0.40904  0.00000  0.18192
      28     H     0.40835  0.40835  0.00000  0.18330
      29     H     0.40883  0.40883  0.00000  0.18234

   Total alpha = 44.00000, Total beta = 44.00000, Total charge =  0.00000
