  ==> Input File <==

--------------------------------------------------------------------------
set {
	reference rhf
	basis 6-31G*
}

set_num_threads( 1 )
memory 2 gb

molecule MOL {
0 1

H	 -4.236494	 0.538104	 0.039757
O	 -3.517110	 -0.026191	 -0.205115
C	 -2.306886	 0.532354	 0.237577
C	 -1.177863	 -0.397191	 -0.171080
H	 -2.156308	 1.517575	 -0.201710
H	 -2.315015	 0.655684	 1.319734
C	 0.198102	 0.111031	 0.262842
H	 -1.208843	 -0.518759	 -1.250427
H	 -1.368741	 -1.376554	 0.258909
C	 1.331804	 -0.827780	 -0.158768
H	 0.361943	 1.100838	 -0.156218
H	 0.217265	 0.229072	 1.345532
C	 2.723619	 -0.410569	 0.329459
H	 1.342964	 -0.912588	 -1.244120
H	 1.116806	 -1.824343	 0.220779
C	 3.115745	 1.026425	 -0.019284
H	 3.456591	 -1.086471	 -0.104127
H	 2.783497	 -0.550150	 1.407001
H	 3.052921	 1.198912	 -1.090424
H	 2.476107	 1.752941	 0.470832
H	 4.136358	 1.232660	 0.288237

	symmetry c1
}
set optking {
	frozen_dihedral = ("
		2 3 4 8,
		8 4 7 10,
		4 7 10 14,
		1 2 3 5
	")
}

ee = energy('scf')
oeprop('DIPOLE', 'QUADRUPOLE', 'MULLIKEN_CHARGES')
f=open( 'psi4out.xyz', 'w' )
f.write( "21  " )
f.write( str(ee) + "\n" )
f.write( MOL.save_string_xyz() )
f.close()
--------------------------------------------------------------------------

    Molecular point group: c1

    Geometry (in Angstrom), charge = 0, multiplicity = 1:

       Center              X                  Y                   Z               Mass
    ------------   -----------------  -----------------  -----------------  -----------------
           H         -4.217663884817     0.518863400096     0.002519529435     1.007825032070
           O         -3.498279884817    -0.045431599904    -0.242352470565    15.994914619560
           C         -2.288055884817     0.513113400096     0.200339529435    12.000000000000
           C         -1.159032884817    -0.416431599904    -0.208317470565    12.000000000000
           H         -2.137477884817     1.498334400096    -0.238947470565     1.007825032070
           H         -2.296184884817     0.636443400096     1.282496529435     1.007825032070
           C          0.216932115183     0.091790400096     0.225604529435    12.000000000000
           H         -1.190012884817    -0.537999599904    -1.287664470565     1.007825032070
           H         -1.349910884817    -1.395794599904     0.221671529435     1.007825032070
           C          1.350634115183    -0.847020599904    -0.196005470565    12.000000000000
           H          0.380773115183     1.081597400096    -0.193455470565     1.007825032070
           H          0.236095115183     0.209831400096     1.308294529435     1.007825032070
           C          2.742449115183    -0.429809599904     0.292221529435    12.000000000000
           H          1.361794115183    -0.931828599904    -1.281357470565     1.007825032070
           H          1.135636115183    -1.843583599904     0.183541529435     1.007825032070
           C          3.134575115183     1.007184400096    -0.056521470565    12.000000000000
           H          3.475421115183    -1.105711599904    -0.141364470565     1.007825032070
           H          2.802327115183    -0.569390599904     1.369763529435     1.007825032070
           H          3.071751115183     1.179671400096    -1.127661470565     1.007825032070
           H          2.494937115183     1.733700400096     0.433594529435     1.007825032070
           H          4.155188115183     1.213419400096     0.250999529435     1.007825032070

  Charge       = 0
  Multiplicity = 1
  Basis Set: 6-31G*
  Basis Set:

    Orbital Energies (a.u.)
    -----------------------

    Doubly Occupied:

       1A    -20.551800     2A    -11.267000     3A    -11.215531
       4A    -11.215165     5A    -11.213587     6A    -11.210567
       7A    -11.208180     8A     -1.358624     9A     -1.086586
      10A     -1.032904    11A     -0.953671    12A     -0.877430
      13A     -0.808160    14A     -0.776233    15A     -0.692338
      16A     -0.661827    17A     -0.625077    18A     -0.604436
      19A     -0.586064    20A     -0.571296    21A     -0.536018
      22A     -0.520981    23A     -0.509488    24A     -0.486560
      25A     -0.480426    26A     -0.458432    27A     -0.456380
      28A     -0.443467    29A     -0.433939

  @DF-RHF Final Energy:  -310.21213208136493

   => Energetics <=

    Nuclear Repulsion Energy =            313.2405207478081479
    One-Electron Energy =               -1041.2216617556900928
    Two-Electron Energy =                 417.7690089265169604
    DFT Exchange-Correlation Energy =       0.0000000000000000
    Empirical Dispersion Energy =           0.0000000000000000
    PCM Polarization Energy =               0.0000000000000000
    EFP Energy =                            0.0000000000000000
    Total Energy =                       -310.2121320813649277

  Mulliken Charges: (a.u.)
   Center  Symbol    Alpha    Beta     Spin     Total
       1     H     0.28119  0.28119  0.00000  0.43763
       2     O     4.37180  4.37180  0.00000 -0.74360
       3     C     2.98968  2.98968  0.00000  0.02064
       4     C     3.15877  3.15877  0.00000 -0.31754
       5     H     0.43296  0.43296  0.00000  0.13409
       6     H     0.43291  0.43291  0.00000  0.13418
       7     C     3.16317  3.16317  0.00000 -0.32635
       8     H     0.41482  0.41482  0.00000  0.17037
       9     H     0.41490  0.41490  0.00000  0.17019
      10     C     3.15147  3.15147  0.00000 -0.30294
      11     H     0.42064  0.42064  0.00000  0.15871
      12     H     0.42427  0.42427  0.00000  0.15147
      13     C     3.15180  3.15180  0.00000 -0.30361
      14     H     0.42295  0.42295  0.00000  0.15410
      15     H     0.42089  0.42089  0.00000  0.15823
      16     C     3.24256  3.24256  0.00000 -0.48512
      17     H     0.42061  0.42061  0.00000  0.15877
      18     H     0.42334  0.42334  0.00000  0.15332
      19     H     0.42221  0.42221  0.00000  0.15558
      20     H     0.41994  0.41994  0.00000  0.16012
      21     H     0.41912  0.41912  0.00000  0.16177

   Total alpha = 29.00000, Total beta = 29.00000, Total charge = -0.00000
