  ==> Input File <==

--------------------------------------------------------------------------
set {
	reference rhf
	basis 6-31G*
}

set_num_threads( 1 )
memory 2 gb

molecule MOL {
0 1

O	 1.846825	 1.296220	 0.000415
C	 1.705091	 0.115954	 0.001797
C	 0.381791	 -0.609817	 0.001258
O	 2.721346	 -0.737485	 -0.000216
C	 -0.823008	 0.326187	 0.001381
H	 0.371250	 -1.265087	 -0.865474
H	 0.370908	 -1.265746	 0.867490
C	 -1.530566	 0.361304	 1.356811
H	 -1.519193	 0.013001	 -0.770259
H	 -0.499451	 1.325620	 -0.272031
C	 -2.742244	 1.294781	 1.374574
H	 -1.849402	 -0.644347	 1.627008
H	 -0.826633	 0.673758	 2.126702
C	 -3.448074	 1.330381	 2.729487
H	 -3.447608	 0.982438	 0.607734
H	 -2.425214	 2.299941	 1.105718
H	 -3.807812	 0.344576	 3.010542
H	 -4.301896	 2.000508	 2.710281
H	 -2.777091	 1.672142	 3.512616
C	 4.024888	 -0.184556	 -0.001949
H	 4.179030	 0.422472	 -0.882452
H	 4.701782	 -1.024608	 -0.003642
H	 4.181981	 0.421185	 0.878906

	symmetry c1
}
set optking {
	frozen_dihedral = ("
		15 11 8 12,
		9 5 8 12,
		1 2 3 6,
		1 2 4 20
	")
}

ee = energy('scf')
oeprop('DIPOLE', 'QUADRUPOLE', 'MULLIKEN_CHARGES')
f=open( 'psi4out.xyz', 'w' )
f.write( "23  " )
f.write( str(ee) + "\n" )
f.write( MOL.save_string_xyz() )
f.close()
--------------------------------------------------------------------------

    Molecular point group: c1

    Geometry (in Angstrom), charge = 0, multiplicity = 1:

       Center              X                  Y                   Z               Mass
    ------------   -----------------  -----------------  -----------------  -----------------
           O          1.568784967849     0.938415185924    -0.609299407776    15.994914619560
           C          1.427050967849    -0.241850814076    -0.607917407776    12.000000000000
           C          0.103750967849    -0.967621814076    -0.608456407776    12.000000000000
           O          2.443305967849    -1.095289814076    -0.609930407776    15.994914619560
           C         -1.101048032151    -0.031617814076    -0.608333407776    12.000000000000
           H          0.093209967849    -1.622891814076    -1.475188407776     1.007825032070
           H          0.092867967849    -1.623550814076     0.257775592224     1.007825032070
           C         -1.808606032151     0.003499185924     0.747096592224    12.000000000000
           H         -1.797233032151    -0.344803814076    -1.379973407776     1.007825032070
           H         -0.777491032151     0.967815185924    -0.881745407776     1.007825032070
           C         -3.020284032151     0.936976185924     0.764859592224    12.000000000000
           H         -2.127442032151    -1.002151814076     1.017293592224     1.007825032070
           H         -1.104673032151     0.315953185924     1.516987592224     1.007825032070
           C         -3.726114032151     0.972576185924     2.119772592224    12.000000000000
           H         -3.725648032151     0.624633185924    -0.001980407776     1.007825032070
           H         -2.703254032151     1.942136185924     0.496003592224     1.007825032070
           H         -4.085852032151    -0.013228814076     2.400827592224     1.007825032070
           H         -4.579936032151     1.642703185924     2.100566592224     1.007825032070
           H         -3.055131032151     1.314337185924     2.902901592224     1.007825032070
           C          3.746847967849    -0.542360814076    -0.611663407776    12.000000000000
           H          3.900989967849     0.064667185924    -1.492166407776     1.007825032070
           H          4.423741967849    -1.382412814076    -0.613356407776     1.007825032070
           H          3.903940967849     0.063380185924     0.269191592224     1.007825032070

  Charge       = 0
  Multiplicity = 1
  Basis Set: 6-31G*
  Basis Set:

    Orbital Energies (a.u.)
    -----------------------

    Doubly Occupied:

       1A    -20.604385     2A    -20.546465     3A    -11.372990
       4A    -11.281255     5A    -11.234144     6A    -11.215675
       7A    -11.215043     8A    -11.213740     9A    -11.207547
      10A     -1.470121    11A     -1.363917    12A     -1.091600
      13A     -1.042031    14A     -0.986351    15A     -0.930526
      16A     -0.843098    17A     -0.794527    18A     -0.766569
      19A     -0.703666    20A     -0.680982    21A     -0.672694
      22A     -0.640543    23A     -0.613424    24A     -0.599624
      25A     -0.569568    26A     -0.556455    27A     -0.553513
      28A     -0.530439    29A     -0.523307    30A     -0.500183
      31A     -0.486637    32A     -0.468085    33A     -0.462526
      34A     -0.457061    35A     -0.451067    36A     -0.439459

  @DF-RHF Final Energy:  -422.97217775671299

   => Energetics <=

    Nuclear Repulsion Energy =            457.6888431076981760
    One-Electron Energy =               -1483.1437309927289334
    Two-Electron Energy =                 602.4827101283158299
    DFT Exchange-Correlation Energy =       0.0000000000000000
    Empirical Dispersion Energy =           0.0000000000000000
    PCM Polarization Energy =               0.0000000000000000
    EFP Energy =                            0.0000000000000000
    Total Energy =                       -422.9721777567149275

  Mulliken Charges: (a.u.)
   Center  Symbol    Alpha    Beta     Spin     Total
       1     O     4.28511  4.28511  0.00000 -0.57021
       2     C     2.60997  2.60997  0.00000  0.78006
       3     C     3.21084  3.21084  0.00000 -0.42168
       4     O     4.30603  4.30603  0.00000 -0.61206
       5     C     3.16209  3.16209  0.00000 -0.32419
       6     H     0.39729  0.39729  0.00000  0.20541
       7     H     0.39800  0.39800  0.00000  0.20400
       8     C     3.15474  3.15474  0.00000 -0.30949
       9     H     0.41952  0.41952  0.00000  0.16097
      10     H     0.39482  0.39482  0.00000  0.21037
      11     C     3.15260  3.15260  0.00000 -0.30520
      12     H     0.42495  0.42495  0.00000  0.15011
      13     H     0.42007  0.42007  0.00000  0.15986
      14     C     3.23955  3.23955  0.00000 -0.47909
      15     H     0.42347  0.42347  0.00000  0.15307
      16     H     0.41947  0.41947  0.00000  0.16106
      17     H     0.42258  0.42258  0.00000  0.15483
      18     H     0.41910  0.41910  0.00000  0.16180
      19     H     0.42106  0.42106  0.00000  0.15789
      20     C     3.09229  3.09229  0.00000 -0.18458
      21     H     0.40899  0.40899  0.00000  0.18203
      22     H     0.40838  0.40838  0.00000  0.18324
      23     H     0.40909  0.40909  0.00000  0.18182

   Total alpha = 36.00000, Total beta = 36.00000, Total charge = -0.00000
