                              Psi4 1.0.54 Driver

  ==> Input File <==

--------------------------------------------------------------------------
set {
	reference rhf
	basis cc-pvtz
}

set_num_threads( 4 )
memory 2 gb

molecule MOL {
0 1

O	 -1.489469	 -0.516488	 2.207603
C	 -1.960885	 -0.834852	 1.168933
C	 -3.177892	 -1.709973	 1.037244
O	 -1.481217	 -0.452708	 0.001092
H	 -3.998622	 -1.239174	 1.561487
H	 -3.445633	 -1.875481	 0.005952
H	 -2.975979	 -2.655063	 1.523155
C	 -0.332055	 0.384012	 -0.000250
C	 0.892252	 -0.506059	 -0.000295
H	 -0.360822	 1.020205	 -0.874146
H	 -0.359817	 1.021310	 0.872861
C	 2.188199	 0.299473	 -0.001416
H	 0.857046	 -1.152781	 -0.871031
H	 0.857910	 -1.151798	 0.871202
C	 3.437151	 -0.577593	 -0.000991
H	 2.209565	 0.950707	 -0.871712
H	 2.210062	 0.952234	 0.867721
C	 4.732399	 0.226982	 -0.000914
H	 3.417321	 -1.229122	 -0.869998
H	 3.416993	 -1.228707	 0.868337
H	 4.797903	 0.863451	 -0.876963
H	 5.598517	 -0.424436	 -0.000420
H	 4.797415	 0.864118	 0.874691

	symmetry c1
}
set optking {
	frozen_dihedral = ("
		2 4 8 10
	")
}

ee,wfn = optimize('scf', return_wfn=True)
oeprop( wfn, 'DIPOLE', 'QUADRUPOLE', 'MULLIKEN_CHARGES')
f=open( 'psi4out.xyz', 'w' )
f.write( "23  " )
f.write( str(ee) + "\n" )
f.write( MOL.save_string_xyz() )
f.close()
--------------------------------------------------------------------------

    Molecular point group: c1
  Charge       = 0
  Multiplicity = 1
  Basis Set: CC-PVTZ
  Basis Set:
  @DF-RHF Final Energy:  -423.13249027195525
    Total Energy =                       -423.1324902719550209
    Molecular point group: c1
  Basis Set: CC-PVTZ
  Basis Set:
  Basis Set: CC-PVTZ
  Basis Set:
  @DF-RHF Final Energy:  -423.13329036469753
    Total Energy =                       -423.1332903646972454
  Basis Set: CC-PVTZ
  Basis Set:
  Basis Set: CC-PVTZ
  Basis Set:
  @DF-RHF Final Energy:  -423.13379817287529
    Total Energy =                       -423.1337981728757995
  Basis Set: CC-PVTZ
  Basis Set:
  Basis Set: CC-PVTZ
  Basis Set:
  @DF-RHF Final Energy:  -423.13387257537619
    Total Energy =                       -423.1338725753757899
  Basis Set: CC-PVTZ
  Basis Set:
  Basis Set: CC-PVTZ
  Basis Set:
  @DF-RHF Final Energy:  -423.13387691041203
    Total Energy =                       -423.1338769104120274
  Basis Set: CC-PVTZ
  Basis Set:
  Charge       = 0
  Multiplicity = 1
  Basis Set: CC-PVTZ
  Basis Set:

    Orbital Energies (a.u.)
    -----------------------

    Doubly Occupied:

       1A    -20.595394     2A    -20.529485     3A    -11.367555
       4A    -11.278927     5A    -11.230501     6A    -11.219666
       7A    -11.218829     8A    -11.217426     9A    -11.209288
      10A     -1.469923    11A     -1.364225    12A     -1.092610
      13A     -1.041728    14A     -1.003055    15A     -0.931910
      16A     -0.851005    17A     -0.799097    18A     -0.767886
      19A     -0.701273    20A     -0.682033    21A     -0.659012
      22A     -0.650794    23A     -0.604801    24A     -0.590431
      25A     -0.585148    26A     -0.574041    27A     -0.550260
      28A     -0.540449    29A     -0.522902    30A     -0.512759
      31A     -0.485718    32A     -0.479690    33A     -0.474333
      34A     -0.469097    35A     -0.440875    36A     -0.439505

  @DF-RHF Final Energy:  -423.13387801737440

   => Energetics <=

    Nuclear Repulsion Energy =            456.6288472989476759
    One-Electron Energy =               -1481.2221911063061270
    Two-Electron Energy =                 601.4594657899842787
    DFT Exchange-Correlation Energy =       0.0000000000000000
    Empirical Dispersion Energy =           0.0000000000000000
    PCM Polarization Energy =               0.0000000000000000
    EFP Energy =                            0.0000000000000000
    Total Energy =                       -423.1338780173741725
    Molecular point group: c1
  Basis Set: CC-PVTZ
  Basis Set:

  -Total Gradient:
     Atom            X                  Y                   Z
    ------   -----------------  -----------------  -----------------
       1        0.000013169423     0.000005847996    -0.000011731689
       2       -0.000273879658     0.000368079921    -0.000064970270
       3        0.000000206185    -0.000013900235     0.000019255756
       4        0.000332745674    -0.000497572973     0.000088601650
       5        0.000000920576    -0.000000096802     0.000000711027
       6        0.000006384365     0.000002381059     0.000007447676
       7       -0.000012406257     0.000003854868    -0.000005236799
       8        0.000263098509    -0.000226013611    -0.000301030661
       9       -0.000081559840    -0.000026267456     0.000008936381
      10       -0.000279532700     0.000361058350     0.000241783717
      11        0.000008395527     0.000007471783     0.000010787005
      12        0.000005252831     0.000025344958    -0.000001894316
      13        0.000008263926    -0.000001695953     0.000002369581
      14        0.000005080209    -0.000007801864     0.000002576911
      15        0.000009057241    -0.000008283781     0.000004037679
      16        0.000001309859     0.000000860545    -0.000000094834
      17        0.000003021164     0.000005424369     0.000003119726
      18       -0.000007840054     0.000003558416    -0.000002553765
      19        0.000000047982    -0.000002110343    -0.000003179741
      20       -0.000001742458    -0.000000979106     0.000004365720
      21        0.000002658864     0.000004222454    -0.000005383688
      22       -0.000002992859    -0.000004210907    -0.000000633733
      23        0.000000341486     0.000000828314     0.000002716672

  **** Optimization is complete! (in 6 steps) ****
    Final optimized geometry and variables:
    Molecular point group: c1

    Geometry (in Angstrom), charge = 0, multiplicity = 1:

    O           -1.902816513474    -0.127850429092     1.695852569387
    C           -2.314037184802    -0.475566225245     0.640804666234
    C           -3.529735186805    -1.345910213486     0.468634592177
    O           -1.763426125461    -0.145296785359    -0.512024940410
    H           -4.374784896956    -0.849234761922     0.926311701144
    H           -3.737850392066    -1.546973535939    -0.570003551513
    H           -3.366278731163    -2.273968898131     0.999850715766
    C           -0.610543125886     0.688978693148    -0.508178632309
    C            0.665527159792    -0.127645023981    -0.432804009291
    H           -0.663921372044     1.240763685209    -1.435679140730
    H           -0.676313562097     1.382926290963     0.315257002408
    C            1.911060234666     0.751780944590    -0.497565756031
    H            0.672963716239    -0.842010266716    -1.250330036305
    H            0.664512295588    -0.696074911143     0.490401340570
    C            3.210513445832    -0.045569731155    -0.428973805166
    H            1.897744794074     1.333866210413    -1.416314390677
    H            1.888934583912     1.468903089593     0.319095935361
    C            4.454909707523     0.833357516851    -0.492143590294
    H            3.234012614213    -0.763168274659    -1.244368411300
    H            3.225156681209    -0.626176258851     0.488869611438
    H            4.486187835876     1.402551114179    -1.415324379348
    H            5.358611473335     0.237236454233    -0.440997101769
    H            4.477520096270     1.539327530040     0.331260314807

  Mulliken Charges: (a.u.)
   Center  Symbol    Alpha    Beta     Spin     Total
       1     O     4.20463  4.20463  0.00000 -0.40927
       2     C     2.80906  2.80906  0.00000  0.38188
       3     C     3.14042  3.14042  0.00000 -0.28083
       4     O     4.15416  4.15416  0.00000 -0.30833
       5     H     0.44215  0.44215  0.00000  0.11569
       6     H     0.44152  0.44152  0.00000  0.11695
       7     H     0.44270  0.44270  0.00000  0.11459
       8     C     2.98462  2.98462  0.00000  0.03077
       9     C     3.09385  3.09385  0.00000 -0.18771
      10     H     0.44228  0.44228  0.00000  0.11544
      11     H     0.44726  0.44726  0.00000  0.10548
      12     C     3.09791  3.09791  0.00000 -0.19582
      13     H     0.45154  0.45154  0.00000  0.09691
      14     H     0.44453  0.44453  0.00000  0.11094
      15     C     3.08384  3.08384  0.00000 -0.16767
      16     H     0.45504  0.45504  0.00000  0.08992
      17     H     0.45071  0.45071  0.00000  0.09858
      18     C     3.15020  3.15020  0.00000 -0.30039
      19     H     0.45413  0.45413  0.00000  0.09173
      20     H     0.45209  0.45209  0.00000  0.09582
      21     H     0.45541  0.45541  0.00000  0.08919
      22     H     0.44775  0.44775  0.00000  0.10450
      23     H     0.45418  0.45418  0.00000  0.09164

   Total alpha = 36.00000, Total beta = 36.00000, Total charge =  0.00000

*** Psi4 exiting successfully. Buy a developer a beer!
