  ==> Input File <==

--------------------------------------------------------------------------
set {
	reference rhf
	basis cc-pvtz
}

set_num_threads( 4 )
memory 2 gb

molecule MOL {
0 1

H	 1.142197	 -0.502793	 -1.230803
O	 1.675515	 -0.612943	 -0.465627
C	 1.135873	 0.113391	 0.608264
C	 0.027642	 1.012027	 0.090274
H	 1.902972	 0.727968	 1.072615
H	 0.756163	 -0.561896	 1.370018
C	 -1.138737	 0.285728	 -0.581921
H	 0.464661	 1.708096	 -0.618252
H	 -0.340737	 1.603071	 0.925246
C	 -1.933983	 -0.631436	 0.343653
H	 -0.763151	 -0.285569	 -1.422081
H	 -1.808359	 1.035291	 -0.992333
H	 -2.789188	 -1.049673	 -0.174718
H	 -1.335629	 -1.461368	 0.700418
H	 -2.305435	 -0.092167	 1.209725

	symmetry c1
}
set optking {
	frozen_dihedral = ("
		1 2 3 4
	")
}

ee = optimize('scf')
oeprop('DIPOLE', 'QUADRUPOLE', 'MULLIKEN_CHARGES')
f=open( 'psi4out.xyz', 'w' )
f.write( "15  " )
f.write( str(ee) + "\n" )
f.write( MOL.save_string_xyz() )
f.close()
--------------------------------------------------------------------------

    Molecular point group: c1
  Charge       = 0
  Multiplicity = 1
  Basis Set: CC-PVTZ
  Basis Set:
  @DF-RHF Final Energy:  -232.23236055132077
    Total Energy =                       -232.2323605513207099
    Molecular point group: c1
  Basis Set: CC-PVTZ
  Basis Set:
  Basis Set: CC-PVTZ
  Basis Set:
  @DF-RHF Final Energy:  -232.23379039208277
    Total Energy =                       -232.2337903920827102
  Basis Set: CC-PVTZ
  Basis Set:
  Basis Set: CC-PVTZ
  Basis Set:
  @DF-RHF Final Energy:  -232.23447022236303
    Total Energy =                       -232.2344702223630293
  Basis Set: CC-PVTZ
  Basis Set:
  Basis Set: CC-PVTZ
  Basis Set:
  @DF-RHF Final Energy:  -232.23448089890405
    Total Energy =                       -232.2344808989040530
  Basis Set: CC-PVTZ
  Basis Set:
  Basis Set: CC-PVTZ
  Basis Set:
  @DF-RHF Final Energy:  -232.23450907199853
    Total Energy =                       -232.2345090719987297
  Basis Set: CC-PVTZ
  Basis Set:
  Basis Set: CC-PVTZ
  Basis Set:
  @DF-RHF Final Energy:  -232.23451160805791
    Total Energy =                       -232.2345116080579146
  Basis Set: CC-PVTZ
  Basis Set:
  Charge       = 0
  Multiplicity = 1
  Basis Set: CC-PVTZ
  Basis Set:

    Orbital Energies (a.u.)
    -----------------------

    Doubly Occupied:

       1A    -20.542689     2A    -11.264121     3A    -11.225359
       4A    -11.222320     5A    -11.212986     6A     -1.361117
       7A     -1.075359     8A     -0.977566     9A     -0.884026
      10A     -0.794066    11A     -0.675599    12A     -0.649641
      13A     -0.632680    14A     -0.588090    15A     -0.578665
      16A     -0.548705    17A     -0.507798    18A     -0.485618
      19A     -0.481540    20A     -0.458750    21A     -0.432079

  @DF-RHF Final Energy:  -232.23451178188742

   => Energetics <=

    Nuclear Repulsion Energy =            191.6641925402552147
    One-Electron Energy =                -694.5998609043051601
    Two-Electron Energy =                 270.7011565821626391
    DFT Exchange-Correlation Energy =       0.0000000000000000
    Empirical Dispersion Energy =           0.0000000000000000
    PCM Polarization Energy =               0.0000000000000000
    EFP Energy =                            0.0000000000000000
    Total Energy =                       -232.2345117818873064
    Molecular point group: c1
  Basis Set: CC-PVTZ
  Basis Set:

  -Total Gradient:
     Atom            X                  Y                   Z
    ------   -----------------  -----------------  -----------------
       1        0.000219266804     0.000312395218    -0.000094321238
       2       -0.000347038536    -0.000494385425     0.000136155164
       3        0.000300954663     0.000364822813    -0.000079760811
       4       -0.000179022119    -0.000177703429     0.000036113458
       5       -0.000007528381     0.000005203938     0.000013970053
       6        0.000004597281    -0.000011728452    -0.000014432479
       7       -0.000001636036     0.000001295750    -0.000006147949
       8        0.000002074640     0.000002934079    -0.000000218270
       9       -0.000000955611    -0.000003722786    -0.000001331936
      10        0.000003173668    -0.000003994620     0.000009818840
      11       -0.000006696293     0.000001326930    -0.000003721428
      12        0.000009814327     0.000005277332    -0.000001561484
      13        0.000003983303     0.000001741326    -0.000002342453
      14        0.000003875081    -0.000002309250     0.000006105002
      15       -0.000004862790    -0.000001153425     0.000001675531

  **** Optimization is complete! (in 7 steps) ****
    Final optimized geometry and variables:
    Molecular point group: c1

    Geometry (in Angstrom), charge = 0, multiplicity = 1:

    H            1.315310933240    -0.567583351523    -1.222825852767
    O            1.780215041281    -0.635066980557    -0.411042471630
    C            1.137478880627     0.104517612952     0.596458974948
    C            0.020731804144     1.003979990454     0.086353089159
    H            1.888187597261     0.717271470949     1.081556563072
    H            0.756330826675    -0.583989685487     1.342928721297
    C           -1.165097528595     0.290085126880    -0.570269578904
    H            0.445279996967     1.712053535080    -0.620565722031
    H           -0.341144647992     1.589724470422     0.926677121212
    C           -1.942113341362    -0.637642671700     0.359755580136
    H           -0.834004511521    -0.274070990891    -1.438670852552
    H           -1.838027334833     1.048129213820    -0.957434723065
    H           -2.810861711614    -1.044355342567    -0.144430023444
    H           -1.338443056901    -1.472696605417     0.693207102727
    H           -2.289521357125    -0.105891792339     1.239527824851

  Mulliken Charges: (a.u.)
   Center  Symbol    Alpha    Beta     Spin     Total
       1     H     0.39066  0.39066  0.00000  0.21867
       2     O     4.20972  4.20972  0.00000 -0.41943
       3     C     2.95773  2.95773  0.00000  0.08453
       4     C     3.11650  3.11650  0.00000 -0.23300
       5     H     0.45939  0.45939  0.00000  0.08122
       6     H     0.47223  0.47223  0.00000  0.05554
       7     C     3.08892  3.08892  0.00000 -0.17784
       8     H     0.44418  0.44418  0.00000  0.11163
       9     H     0.45196  0.45196  0.00000  0.09609
      10     C     3.15275  3.15275  0.00000 -0.30550
      11     H     0.46120  0.46120  0.00000  0.07761
      12     H     0.44577  0.44577  0.00000  0.10847
      13     H     0.44549  0.44549  0.00000  0.10901
      14     H     0.44957  0.44957  0.00000  0.10086
      15     H     0.45393  0.45393  0.00000  0.09213

   Total alpha = 21.00000, Total beta = 21.00000, Total charge = -0.00000
