  ==> Input File <==

--------------------------------------------------------------------------
set {
	reference rhf
	basis 6-31G*
}

set_num_threads( 4 )
memory 2 gb

molecule MOL {
0 1

H	 1.474353	 1.141003	 1.257397
C	 0.583868	 1.255642	 0.654737
O	 0.000000	 0.000000	 0.521119
H	 -0.087298	 1.957074	 1.147909
H	 0.864077	 1.670089	 -0.312427
C	 -1.165642	 0.000000	 -0.238270
H	 -1.228672	 0.883184	 -0.872070
H	 -2.003012	 0.000000	 0.445920
H	 -1.228672	 -0.883184	 -0.872070

	symmetry c1
}
set optking {
	frozen_dihedral = ("
		2 3 6 7
	")
}

ee = optimize('scf')
oeprop('DIPOLE', 'QUADRUPOLE', 'MULLIKEN_CHARGES')
f=open( 'psi4out.xyz', 'w' )
f.write( "9  " )
f.write( str(ee) + "\n" )
f.write( MOL.save_string_xyz() )
f.close()
--------------------------------------------------------------------------

    Molecular point group: c1
  Charge       = 0
  Multiplicity = 1
  Basis Set: 6-31G*
  Basis Set:
  @DF-RHF Final Energy:  -154.06075954814469
    Total Energy =                       -154.0607595481446879
    Molecular point group: c1
  Basis Set: 6-31G*
  Basis Set:
  Basis Set: 6-31G*
  Basis Set:
  @DF-RHF Final Energy:  -154.06138837955154
    Total Energy =                       -154.0613883795514880
  Basis Set: 6-31G*
  Basis Set:
  Basis Set: 6-31G*
  Basis Set:
  @DF-RHF Final Energy:  -154.06153198800868
    Total Energy =                       -154.0615319880087100
  Basis Set: 6-31G*
  Basis Set:
  Charge       = 0
  Multiplicity = 1
  Basis Set: 6-31G*
  Basis Set:

    Orbital Energies (a.u.)
    -----------------------

    Doubly Occupied:

       1A    -20.553106     2A    -11.265598     3A    -11.264784
       4A     -1.375223     5A     -0.974908     6A     -0.872931
       7A     -0.657486     8A     -0.653515     9A     -0.643445
      10A     -0.557169    11A     -0.528496    12A     -0.473593
      13A     -0.412625

  @DF-RHF Final Energy:  -154.06153300491792

   => Energetics <=

    Nuclear Repulsion Energy =             84.5452298857396585
    One-Electron Energy =                -376.7477655551918474
    Two-Electron Energy =                 138.1410026645343407
    DFT Exchange-Correlation Energy =       0.0000000000000000
    Empirical Dispersion Energy =           0.0000000000000000
    PCM Polarization Energy =               0.0000000000000000
    EFP Energy =                            0.0000000000000000
    Total Energy =                       -154.0615330049178340
    Molecular point group: c1
  Basis Set: 6-31G*
  Basis Set:

  -Total Gradient:
     Atom            X                  Y                   Z
    ------   -----------------  -----------------  -----------------
       1       -0.000006255493    -0.000016214686     0.000012057568
       2        0.001197119489    -0.000298330910    -0.001880002686
       3       -0.002108809608     0.000863989478     0.003122887600
       4       -0.000017240117    -0.000059326299    -0.000012863681
       5       -0.000015387934     0.000001589454    -0.000000766406
       6        0.002126373492    -0.001861703106    -0.003272000926
       7       -0.001232128237     0.001363600883     0.002006576037
       8       -0.000015750300    -0.000004550223     0.000002730513
       9        0.000072078707     0.000010945410     0.000021381980

  **** Optimization is complete! (in 4 steps) ****
    Final optimized geometry and variables:
    Molecular point group: c1

    Geometry (in Angstrom), charge = 0, multiplicity = 1:

    H            1.692653063746     0.688512184180     0.942096592289
    C            0.797569054160     0.824321608685     0.350569931234
    O            0.197044116697    -0.423458351682     0.210419080546
    H            0.146422360474     1.531999012408     0.860957066120
    H            1.074520555101     1.244042100053    -0.614414713903
    C           -0.977857896559    -0.437853819536    -0.543403732825
    H           -1.058515044366     0.436265040116    -1.184007723661
    H           -1.848516440446    -0.451359814533     0.107734404322
    H           -0.987129257848    -1.330472942051    -1.155830090833

  Mulliken Charges: (a.u.)
   Center  Symbol    Alpha    Beta     Spin     Total
       1     H     0.41252  0.41252  0.00000  0.17495
       2     C     3.07926  3.07926  0.00000 -0.15852
       3     O     4.29917  4.29917  0.00000 -0.59835
       4     H     0.43046  0.43046  0.00000  0.13908
       5     H     0.42965  0.42965  0.00000  0.14069
       6     C     3.07784  3.07784  0.00000 -0.15568
       7     H     0.43077  0.43077  0.00000  0.13847
       8     H     0.42462  0.42462  0.00000  0.15076
       9     H     0.41570  0.41570  0.00000  0.16860

   Total alpha = 13.00000, Total beta = 13.00000, Total charge =  0.00000
