                              Psi4 1.0.54 Driver

  ==> Input File <==

--------------------------------------------------------------------------
set {
	reference rhf
	basis cc-pvtz
}

set_num_threads( 4 )
memory 2 gb

molecule MOL {
0 1

H	 -3.436473	 1.252944	 -1.023892
O	 -3.458596	 0.315260	 -0.960865
C	 -3.176635	 -0.080824	 0.355601
C	 -1.763371	 0.265266	 0.799691
H	 -3.321825	 -1.153438	 0.379502
H	 -3.895468	 0.357385	 1.043382
C	 -0.673390	 -0.426948	 -0.013392
H	 -1.631049	 1.344913	 0.747560
H	 -1.664587	 -0.001624	 1.849167
C	 -0.524024	 0.139169	 -1.423063
H	 -0.888148	 -1.488443	 -0.068348
H	 0.273175	 -0.334808	 0.513894
C	 0.571867	 -0.554585	 -2.229771
H	 -1.475242	 0.053531	 -1.939532
H	 -0.303901	 1.203058	 -1.363548
C	 0.814886	 0.030744	 -3.621956
H	 0.333536	 -1.611633	 -2.323034
H	 1.500733	 -0.503240	 -1.668352
C	 -0.345247	 -0.143539	 -4.599126
H	 1.697205	 -0.441398	 -4.043112
H	 1.052553	 1.087383	 -3.530045
H	 -0.609324	 -1.190806	 -4.706698
H	 -0.080359	 0.231648	 -5.581119
H	 -1.231500	 0.389298	 -4.276255

	symmetry c1
}
set optking {
	frozen_dihedral = ("
		11 7 4 3
	")
}

ee,wfn = optimize('scf', return_wfn=True)
oeprop( wfn, 'DIPOLE', 'QUADRUPOLE', 'MULLIKEN_CHARGES')
f=open( 'psi4out.xyz', 'w' )
f.write( "24  " )
f.write( str(ee) + "\n" )
f.write( MOL.save_string_xyz() )
f.close()
--------------------------------------------------------------------------

    Molecular point group: c1
  Charge       = 0
  Multiplicity = 1
  Basis Set: CC-PVTZ
  Basis Set:
  @DF-RHF Final Energy:  -349.37546235493272
    Total Energy =                       -349.3754623549325515
    Molecular point group: c1
  Basis Set: CC-PVTZ
  Basis Set:
  Basis Set: CC-PVTZ
  Basis Set:
  @DF-RHF Final Energy:  -349.37751852611626
    Total Energy =                       -349.3775185261165461
  Basis Set: CC-PVTZ
  Basis Set:
  Basis Set: CC-PVTZ
  Basis Set:
  @DF-RHF Final Energy:  -349.37768533166133
    Total Energy =                       -349.3776853316617235
  Basis Set: CC-PVTZ
  Basis Set:
  Basis Set: CC-PVTZ
  Basis Set:
  @DF-RHF Final Energy:  -349.37771484307473
    Total Energy =                       -349.3777148430745001
  Basis Set: CC-PVTZ
  Basis Set:
  Basis Set: CC-PVTZ
  Basis Set:
  @DF-RHF Final Energy:  -349.37771726637845
    Total Energy =                       -349.3777172663784540
  Basis Set: CC-PVTZ
  Basis Set:
  Charge       = 0
  Multiplicity = 1
  Basis Set: CC-PVTZ
  Basis Set:

    Orbital Energies (a.u.)
    -----------------------

    Doubly Occupied:

       1A    -20.547366     2A    -11.266615     3A    -11.216930
       4A    -11.211855     5A    -11.209045     6A    -11.206352
       7A    -11.203016     8A    -11.201092     9A     -1.365242
      10A     -1.086538    11A     -1.047243    12A     -0.984508
      13A     -0.914609    14A     -0.854591    15A     -0.797033
      16A     -0.773354    17A     -0.682854    18A     -0.650177
      19A     -0.631833    20A     -0.609743    21A     -0.603815
      22A     -0.577832    23A     -0.549670    24A     -0.543311
      25A     -0.524629    26A     -0.509602    27A     -0.492002
      28A     -0.485249    29A     -0.468570    30A     -0.456880
      31A     -0.453728    32A     -0.437617    33A     -0.419592

  @DF-RHF Final Energy:  -349.37771735634055

   => Energetics <=

    Nuclear Repulsion Energy =            394.5276169050698627
    One-Electron Energy =               -1255.8456790830246064
    Two-Electron Energy =                 511.9403448216144170
    DFT Exchange-Correlation Energy =       0.0000000000000000
    Empirical Dispersion Energy =           0.0000000000000000
    PCM Polarization Energy =               0.0000000000000000
    EFP Energy =                            0.0000000000000000
    Total Energy =                       -349.3777173563403267
    Molecular point group: c1
  Basis Set: CC-PVTZ
  Basis Set:

  -Total Gradient:
     Atom            X                  Y                   Z
    ------   -----------------  -----------------  -----------------
       1        0.000014506096    -0.000009938287     0.000011673594
       2       -0.000112082354    -0.000042095630    -0.000040649806
       3       -0.000042792159     0.000069711571     0.000053969473
       4        0.000070870767     0.000006958688    -0.000092427750
       5        0.000006856975     0.000036362239    -0.000028835872
       6       -0.000018811139    -0.000030825576     0.000002698734
       7        0.000098715496    -0.000056441247     0.000124650670
       8       -0.000035003020    -0.000028790824    -0.000019477185
       9        0.000042921690     0.000031710739     0.000033456938
      10        0.000155788713    -0.000013194321     0.000089340194
      11       -0.000079890085     0.000057500737    -0.000075612410
      12        0.000030993583    -0.000033936163    -0.000006213503
      13       -0.000112461145    -0.000045559638    -0.000084874539
      14        0.000002418872    -0.000028905333     0.000042277484
      15       -0.000052883705     0.000041596016    -0.000012564147
      16        0.000012021830     0.000059716978     0.000036946715
      17        0.000002680959     0.000010538146    -0.000010009126
      18       -0.000015229477    -0.000002668771     0.000009795055
      19       -0.000003747301    -0.000029280701    -0.000011395525
      20        0.000001977112     0.000016625702     0.000001158763
      21       -0.000011695201     0.000002781056     0.000003617984
      22       -0.000009019355     0.000006902764     0.000006471975
      23        0.000011543619    -0.000014632650     0.000001472800
      24        0.000042319232    -0.000004135496    -0.000035470517

  **** Optimization is complete! (in 6 steps) ****
    Final optimized geometry and variables:
    Molecular point group: c1

    Geometry (in Angstrom), charge = 0, multiplicity = 1:

    H           -2.458164191529     1.481195712797     0.655616958494
    O           -2.515719000528     0.543114181062     0.636818500340
    C           -2.109228536696     0.016068327463     1.872332938249
    C           -0.657668591922     0.300394302686     2.237856099053
    H           -2.270213721351    -1.052481281955     1.804809826638
    H           -2.754678014193     0.388056740098     2.664338666502
    C            0.407175560707    -0.401058014998     1.389672487983
    H           -0.490306237961     1.376350901889     2.224961091055
    H           -0.530169519124    -0.008715581738     3.272045620809
    C            0.600420502576     0.148215231369    -0.023617970876
    H            0.170668338877    -1.461105565745     1.334227860426
    H            1.354220006616    -0.332522091973     1.918139036595
    C            1.745190825432    -0.540968197932    -0.764023681484
    H           -0.321078140128     0.045967729249    -0.578789609307
    H            0.809466670448     1.215119554809     0.036230028565
    C            2.035375120780     0.018875411066    -2.157789985456
    H            1.531646806274    -1.604590862813    -0.845440357554
    H            2.648871196773    -0.459484047635    -0.165573843881
    C            0.927532301793    -0.215409277476    -3.181983548675
    H            2.950617680062    -0.434346751260    -2.526584941572
    H            2.236022456344     1.084487940892    -2.081045557549
    H            0.703711157977    -1.273127542587    -3.277093965976
    H            1.224897838413     0.147319792792    -4.159486080705
    H            0.009950946156     0.292059292070    -2.910952526917

  Mulliken Charges: (a.u.)
   Center  Symbol    Alpha    Beta     Spin     Total
       1     H     0.39445  0.39445  0.00000  0.21110
       2     O     4.20239  4.20239  0.00000 -0.40478
       3     C     2.98113  2.98113  0.00000  0.03773
       4     C     3.10798  3.10798  0.00000 -0.21596
       5     H     0.45688  0.45688  0.00000  0.08624
       6     H     0.45736  0.45736  0.00000  0.08528
       7     C     3.09426  3.09426  0.00000 -0.18852
       8     H     0.45733  0.45733  0.00000  0.08535
       9     H     0.44643  0.44643  0.00000  0.10714
      10     C     3.09739  3.09739  0.00000 -0.19478
      11     H     0.45430  0.45430  0.00000  0.09139
      12     H     0.44887  0.44887  0.00000  0.10226
      13     C     3.09429  3.09429  0.00000 -0.18858
      14     H     0.43793  0.43793  0.00000  0.12413
      15     H     0.46026  0.46026  0.00000  0.07947
      16     C     3.08954  3.08954  0.00000 -0.17909
      17     H     0.45480  0.45480  0.00000  0.09041
      18     H     0.45137  0.45137  0.00000  0.09725
      19     C     3.15221  3.15221  0.00000 -0.30443
      20     H     0.44946  0.44946  0.00000  0.10108
      21     H     0.45613  0.45613  0.00000  0.08773
      22     H     0.45524  0.45524  0.00000  0.08952
      23     H     0.44771  0.44771  0.00000  0.10459
      24     H     0.45226  0.45226  0.00000  0.09547

   Total alpha = 33.00000, Total beta = 33.00000, Total charge = -0.00000

*** Psi4 exiting successfully. Buy a developer a beer!
