  ==> Input File <==

--------------------------------------------------------------------------
set {
	reference rhf
	basis cc-pvtz
}

set_num_threads( 4 )
memory 2 gb

molecule MOL {
0 1

H	 -0.939693	 0.000281	 1.681345
O	 -0.046262	 -0.000157	 1.387678
C	 -0.000837	 0.000006	 -0.025491
C	 -1.401003	 0.250763	 -0.582092
C	 0.973036	 1.074313	 -0.505679
C	 0.492792	 -1.386988	 -0.413778
H	 -1.404422	 0.220679	 -1.665549
H	 -1.767538	 1.226221	 -0.276796
H	 -2.090697	 -0.498532	 -0.214204
H	 1.056564	 1.074330	 -1.586332
H	 0.639157	 2.061121	 -0.199400
H	 1.955894	 0.905266	 -0.083922
H	 0.561592	 -1.485278	 -1.490762
H	 -0.185210	 -2.144037	 -0.040413
H	 1.470943	 -1.569556	 0.012959

	symmetry c1
}
set optking {
	frozen_dihedral = ("
		4 3 2 1
	")
}

ee = optimize('scf')
oeprop('DIPOLE', 'QUADRUPOLE', 'MULLIKEN_CHARGES')
f=open( 'psi4out.xyz', 'w' )
f.write( "15  " )
f.write( str(ee) + "\n" )
f.write( MOL.save_string_xyz() )
f.close()
--------------------------------------------------------------------------

    Molecular point group: c1
  Charge       = 0
  Multiplicity = 1
  Basis Set: CC-PVTZ
  Basis Set:
  @DF-RHF Final Energy:  -232.24395489915861
    Total Energy =                       -232.2439548991584957
    Molecular point group: c1
  Basis Set: CC-PVTZ
  Basis Set:
  Basis Set: CC-PVTZ
  Basis Set:
  @DF-RHF Final Energy:  -232.24464472687993
    Total Energy =                       -232.2446447268800966
  Basis Set: CC-PVTZ
  Basis Set:
  Basis Set: CC-PVTZ
  Basis Set:
  @DF-RHF Final Energy:  -232.24485389010346
    Total Energy =                       -232.2448538901032862
  Basis Set: CC-PVTZ
  Basis Set:
  Basis Set: CC-PVTZ
  Basis Set:
  @DF-RHF Final Energy:  -232.24485944135100
    Total Energy =                       -232.2448594413509113
  Basis Set: CC-PVTZ
  Basis Set:
  Charge       = 0
  Multiplicity = 1
  Basis Set: CC-PVTZ
  Basis Set:

    Orbital Energies (a.u.)
    -----------------------

    Doubly Occupied:

       1A    -20.540352     2A    -11.281131     3A    -11.216152
       4A    -11.203559     5A    -11.203354     6A     -1.362864
       7A     -1.065750     8A     -0.946291     9A     -0.936671
      10A     -0.778602    11A     -0.671923    12A     -0.624584
      13A     -0.622777    14A     -0.576420    15A     -0.557356
      16A     -0.534787    17A     -0.517059    18A     -0.511346
      19A     -0.503206    20A     -0.458404    21A     -0.426522

  @DF-RHF Final Energy:  -232.24486006050793

   => Energetics <=

    Nuclear Repulsion Energy =            200.5769717298709622
    One-Electron Energy =                -712.5654454909213200
    Two-Electron Energy =                 279.7436137005423120
    DFT Exchange-Correlation Energy =       0.0000000000000000
    Empirical Dispersion Energy =           0.0000000000000000
    PCM Polarization Energy =               0.0000000000000000
    EFP Energy =                            0.0000000000000000
    Total Energy =                       -232.2448600605080742
    Molecular point group: c1
  Basis Set: CC-PVTZ
  Basis Set:

  -Total Gradient:
     Atom            X                  Y                   Z
    ------   -----------------  -----------------  -----------------
       1        0.000034590620     0.000929433076    -0.000034615477
       2       -0.000034853975    -0.001356184535     0.000066685063
       3        0.000121825965     0.000999825357     0.000009752529
       4       -0.000141764181    -0.000563262701     0.000008809005
       5        0.000002742978    -0.000021897569    -0.000020724919
       6       -0.000002249714     0.000018723046    -0.000024275695
       7       -0.000011114494     0.000003710803    -0.000008435098
       8        0.000014627224    -0.000011588887     0.000005943415
       9       -0.000009635197    -0.000007191957    -0.000015416129
      10        0.000017784890    -0.000008084277    -0.000000621653
      11       -0.000004222123    -0.000014153483    -0.000009416524
      12        0.000009585597     0.000012140775     0.000013411602
      13        0.000009467443     0.000006180042     0.000002004750
      14       -0.000006072725     0.000008118983    -0.000009004815
      15       -0.000000712308     0.000004231328     0.000015903947

  **** Optimization is complete! (in 5 steps) ****
    Final optimized geometry and variables:
    Molecular point group: c1

    Geometry (in Angstrom), charge = 0, multiplicity = 1:

    H           -0.899862002918     0.080528973287     1.712139608559
    O           -0.018475715429     0.052951448678     1.391612154457
    C            0.002519533231    -0.001109769639    -0.025010285009
    C           -1.396957788770     0.251595967267    -0.578307428896
    C            0.973363088919     1.076518959093    -0.494793867498
    C            0.498348293140    -1.385924026255    -0.433567357726
    H           -1.397608587618     0.224928864529    -1.660882907829
    H           -1.762219938602     1.224070628408    -0.266153719556
    H           -2.091263643422    -0.505734171250    -0.227739846837
    H            1.087317237193     1.058493844152    -1.572793536454
    H            0.620417835662     2.057407567418    -0.200589385764
    H            1.945646262681     0.920808169815    -0.044329561784
    H            0.583228727611    -1.472294263883    -1.511150825162
    H           -0.182895835585    -2.151592232230    -0.081070434298
    H            1.470385077011    -1.575458410927     0.004114576468

  Mulliken Charges: (a.u.)
   Center  Symbol    Alpha    Beta     Spin     Total
       1     H     0.39197  0.39197  0.00000  0.21605
       2     O     4.21517  4.21517  0.00000 -0.43034
       3     C     2.88030  2.88030  0.00000  0.23940
       4     C     3.16279  3.16279  0.00000 -0.32559
       5     C     3.13952  3.13952  0.00000 -0.27905
       6     C     3.14041  3.14041  0.00000 -0.28083
       7     H     0.45046  0.45046  0.00000  0.09908
       8     H     0.44704  0.44704  0.00000  0.10592
       9     H     0.45047  0.45047  0.00000  0.09905
      10     H     0.45956  0.45956  0.00000  0.08088
      11     H     0.45287  0.45287  0.00000  0.09427
      12     H     0.44759  0.44759  0.00000  0.10482
      13     H     0.45932  0.45932  0.00000  0.08136
      14     H     0.45433  0.45433  0.00000  0.09133
      15     H     0.44819  0.44819  0.00000  0.10363

   Total alpha = 21.00000, Total beta = 21.00000, Total charge = -0.00000
