  ==> Input File <==

--------------------------------------------------------------------------
set {
	reference rhf
	basis 6-31G*
}

set_num_threads( 4 )
memory 2 gb

molecule MOL {
0 1

H	 -2.273092	 1.173159	 0.000295
O	 -1.438904	 1.618192	 0.000114
C	 -0.409536	 0.736003	 0.000030
C	 0.580867	 0.936157	 0.948839
C	 -0.335916	 -0.323656	 -0.901438
H	 0.484972	 1.765570	 1.624759
C	 1.661372	 0.076869	 1.009203
C	 0.761622	 -1.171832	 -0.817798
C	 -1.417471	 -0.540251	 -1.936007
H	 2.426415	 0.237624	 1.747688
C	 1.757888	 -0.984644	 0.123849
H	 0.833252	 -1.995253	 -1.507140
H	 -1.513137	 0.309763	 -2.608515
H	 -1.194910	 -1.406111	 -2.546521
H	 -2.389546	 -0.712309	 -1.478336
H	 2.595464	 -1.656932	 0.165030

	symmetry c1
}
set optking {
	frozen_dihedral = ("
		4 3 2 1
	")
}

ee = optimize('scf')
oeprop('DIPOLE', 'QUADRUPOLE', 'MULLIKEN_CHARGES')
f=open( 'psi4out.xyz', 'w' )
f.write( "16  " )
f.write( str(ee) + "\n" )
f.write( MOL.save_string_xyz() )
f.close()
--------------------------------------------------------------------------

    Molecular point group: c1
  Charge       = 0
  Multiplicity = 1
  Basis Set: 6-31G*
  Basis Set:
  @DF-RHF Final Energy:  -344.59164990249474
    Total Energy =                       -344.5916499024943960
    Molecular point group: c1
  Basis Set: 6-31G*
  Basis Set:
  Basis Set: 6-31G*
  Basis Set:
  @DF-RHF Final Energy:  -344.59205421692974
    Total Energy =                       -344.5920542169299097
  Basis Set: 6-31G*
  Basis Set:
  Basis Set: 6-31G*
  Basis Set:
  @DF-RHF Final Energy:  -344.59211651211496
    Total Energy =                       -344.5921165121150125
  Basis Set: 6-31G*
  Basis Set:
  Basis Set: 6-31G*
  Basis Set:
  @DF-RHF Final Energy:  -344.59212911772204
    Total Energy =                       -344.5921291177219814
  Basis Set: 6-31G*
  Basis Set:
  Basis Set: 6-31G*
  Basis Set:
  @DF-RHF Final Energy:  -344.59213070699934
    Total Energy =                       -344.5921307069992281
  Basis Set: 6-31G*
  Basis Set:
  Charge       = 0
  Multiplicity = 1
  Basis Set: 6-31G*
  Basis Set:

    Orbital Energies (a.u.)
    -----------------------

    Doubly Occupied:

       1A    -20.580512     2A    -11.286641     3A    -11.235238
       4A    -11.229892     5A    -11.229290     6A    -11.227285
       7A    -11.223215     8A    -11.221966     9A     -1.396346
      10A     -1.148750    11A     -1.046626    12A     -1.003604
      13A     -0.937303    14A     -0.824802    15A     -0.813098
      16A     -0.726684    17A     -0.672300    18A     -0.647059
      19A     -0.619324    20A     -0.593418    21A     -0.572449
      22A     -0.569605    23A     -0.549733    24A     -0.528138
      25A     -0.501170    26A     -0.483040    27A     -0.467153
      28A     -0.328677    29A     -0.312763

  @DF-RHF Final Energy:  -344.59213084157443

   => Energetics <=

    Nuclear Repulsion Energy =            349.9153501260381063
    One-Electron Energy =               -1161.0628011471023910
    Two-Electron Energy =                 466.5553201794899678
    DFT Exchange-Correlation Energy =       0.0000000000000000
    Empirical Dispersion Energy =           0.0000000000000000
    PCM Polarization Energy =               0.0000000000000000
    EFP Energy =                            0.0000000000000000
    Total Energy =                       -344.5921308415743169
    Molecular point group: c1
  Basis Set: 6-31G*
  Basis Set:

  -Total Gradient:
     Atom            X                  Y                   Z
    ------   -----------------  -----------------  -----------------
       1       -0.000022493379     0.000066484941     0.001698580828
       2       -0.000285067968    -0.000389922183    -0.001733461584
       3        0.000952070126     0.000986746914    -0.000775706720
       4       -0.000647839585    -0.000649013836     0.000814684858
       5       -0.000009428229    -0.000000060657    -0.000008377455
       6       -0.000000905886    -0.000007888252    -0.000004705212
       7        0.000009896037    -0.000019108195    -0.000004770869
       8       -0.000019093700     0.000028557752    -0.000019395425
       9       -0.000007032620    -0.000004282671     0.000024238372
      10        0.000005022273    -0.000000968536     0.000002614286
      11        0.000010695706    -0.000000751098     0.000019877806
      12       -0.000000075006    -0.000005396532    -0.000003159815
      13        0.000007552143    -0.000005018293     0.000000093001
      14        0.000004861185    -0.000004177720    -0.000012957991
      15        0.000006841428     0.000004414743     0.000002230084
      16       -0.000005002521     0.000000383619     0.000000215835

  **** Optimization is complete! (in 6 steps) ****
    Final optimized geometry and variables:
    Molecular point group: c1

    Geometry (in Angstrom), charge = 0, multiplicity = 1:

    H           -2.334829037767     1.101291588735     0.173833254575
    O           -1.501643318606     1.552217068408     0.170374617885
    C           -0.469997079416     0.657533498884     0.220328209650
    C            0.518195602721     0.862472998614     1.165844589929
    C           -0.403166008839    -0.408880216406    -0.673677708987
    H            0.425260935139     1.697358970507     1.835500657558
    C            1.602337523671     0.003082504038     1.229311087748
    C            0.686355216339    -1.264318870308    -0.582753748964
    C           -1.486879403848    -0.611029393081    -1.705828916157
    H            2.371498922889     0.167503592019     1.962574211672
    C            1.686608915338    -1.067041184979     0.356084122691
    H            0.756027183946    -2.094134031242    -1.264491580706
    H           -1.656008415205     0.294574352984    -2.278742439229
    H           -1.219858013744    -1.402475397033    -2.395266321985
    H           -2.435103304410    -0.889447216741    -1.249046751877
    H            2.522500508380    -1.741649191024     0.400845720103

  Mulliken Charges: (a.u.)
   Center  Symbol    Alpha    Beta     Spin     Total
       1     H     0.27122  0.27122  0.00000  0.45756
       2     O     4.38507  4.38507  0.00000 -0.77015
       3     C     2.82834  2.82834  0.00000  0.34332
       4     C     3.11453  3.11453  0.00000 -0.22907
       5     C     3.00198  3.00198  0.00000 -0.00395
       6     H     0.39250  0.39250  0.00000  0.21500
       7     C     3.09947  3.09947  0.00000 -0.19895
       8     C     3.11058  3.11058  0.00000 -0.22115
       9     C     3.25909  3.25909  0.00000 -0.51817
      10     H     0.39892  0.39892  0.00000  0.20216
      11     C     3.10370  3.10370  0.00000 -0.20740
      12     H     0.40126  0.40126  0.00000  0.19747
      13     H     0.40321  0.40321  0.00000  0.19358
      14     H     0.40975  0.40975  0.00000  0.18050
      15     H     0.41991  0.41991  0.00000  0.16018
      16     H     0.40047  0.40047  0.00000  0.19907

   Total alpha = 29.00000, Total beta = 29.00000, Total charge =  0.00000
