  ==> Input File <==

--------------------------------------------------------------------------
set {
	reference rhf
	basis 6-31G*
}

set_num_threads( 4 )
memory 2 gb

molecule MOL {
0 1

O	 -0.644987	 -1.652990	 1.664992
C	 -1.514987	 -1.440192	 0.882411
C	 -2.775474	 -2.260464	 0.784449
O	 -1.481751	 -0.454642	 0.000584
H	 -3.283566	 -2.233162	 1.740984
H	 -3.433286	 -1.897333	 0.008654
H	 -2.505502	 -3.290827	 0.586090
C	 -0.334255	 0.388708	 0.000906
C	 0.891947	 -0.504646	 0.000751
H	 -0.365390	 1.025305	 -0.873475
H	 -0.365484	 1.024911	 0.875569
C	 2.191998	 0.301789	 0.000897
H	 0.855148	 -1.151283	 -0.871571
H	 0.855132	 -1.151660	 0.872805
C	 3.441114	 -0.581407	 0.000108
H	 2.215074	 0.954890	 -0.869742
H	 2.215465	 0.953923	 0.872248
C	 4.739576	 0.224112	 -0.001102
H	 3.419457	 -1.233487	 -0.870178
H	 3.420834	 -1.233096	 0.870717
H	 4.804918	 0.861552	 -0.878265
H	 5.606527	 -0.429058	 -0.001824
H	 4.806469	 0.861674	 0.875853

	symmetry c1
}
set optking {
	frozen_dihedral = ("
		2 4 8 10
	")
}

ee = optimize('scf')
oeprop('DIPOLE', 'QUADRUPOLE', 'MULLIKEN_CHARGES')
f=open( 'psi4out.xyz', 'w' )
f.write( "23  " )
f.write( str(ee) + "\n" )
f.write( MOL.save_string_xyz() )
f.close()
--------------------------------------------------------------------------

    Molecular point group: c1
  Charge       = 0
  Multiplicity = 1
  Basis Set: 6-31G*
  Basis Set:
  @DF-RHF Final Energy:  -422.95574166523528
    Total Energy =                       -422.9557416652348820
    Molecular point group: c1
  Basis Set: 6-31G*
  Basis Set:
  Basis Set: 6-31G*
  Basis Set:
  @DF-RHF Final Energy:  -422.97129504131539
    Total Energy =                       -422.9712950413154431
  Basis Set: 6-31G*
  Basis Set:
  Basis Set: 6-31G*
  Basis Set:
  @DF-RHF Final Energy:  -422.97374790838143
    Total Energy =                       -422.9737479083810285
  Basis Set: 6-31G*
  Basis Set:
  Basis Set: 6-31G*
  Basis Set:
  @DF-RHF Final Energy:  -422.97110045660844
    Total Energy =                       -422.9711004566089514
  Basis Set: 6-31G*
  Basis Set:
  @DF-RHF Final Energy:  -422.97428093497507
    Total Energy =                       -422.9742809349742174
  @DF-RHF Final Energy:  -422.97436448675569
    Total Energy =                       -422.9743644867555759
  @DF-RHF Final Energy:  -422.97437129498621
    Total Energy =                       -422.9743712949870087
  @DF-RHF Final Energy:  -422.97437434456486
    Total Energy =                       -422.9743743445648079
  @DF-RHF Final Energy:  -422.97437752441732
    Total Energy =                       -422.9743775244171502
  @DF-RHF Final Energy:  -422.97294652451023
    Total Energy =                       -422.9729465245100073
  @DF-RHF Final Energy:  -422.97440808039954
    Total Energy =                       -422.9744080803993711
  @DF-RHF Final Energy:  -422.97439232543388
    Total Energy =                       -422.9743923254341098
  @DF-RHF Final Energy:  -422.96728997598603
    Total Energy =                       -422.9672899759854090
  @DF-RHF Final Energy:  -422.96120219421408
    Total Energy =                       -422.9612021942136835
  @DF-RHF Final Energy:  -422.97417390258312
    Total Energy =                       -422.9741739025823790
  @DF-RHF Final Energy:  -422.97460156503604
    Total Energy =                       -422.9746015650364370
  @DF-RHF Final Energy:  -422.97468581904502
    Total Energy =                       -422.9746858190444527
  @DF-RHF Final Energy:  -422.97486981294782
    Total Energy =                       -422.9748698129483273
  @DF-RHF Final Energy:  -422.97504833198502
    Total Energy =                       -422.9750483319858176
  @DF-RHF Final Energy:  -422.97520489299450
    Total Energy =                       -422.9752048929947250
  @DF-RHF Final Energy:  -422.97524998720735
    Total Energy =                       -422.9752499872078033
  @DF-RHF Final Energy:  -422.97527554660451
    Total Energy =                       -422.9752755466042800
  @DF-RHF Final Energy:  -422.97528252146992
    Total Energy =                       -422.9752825214691256
  @DF-RHF Final Energy:  -422.97528434206470
    Total Energy =                       -422.9752843420649242
  @DF-RHF Final Energy:  -422.96936429575578
    Total Energy =                       -422.9693642957552129
  Basis Set: 6-31G*
  Basis Set:
  @DF-RHF Final Energy:  -422.97456541787807
    Total Energy =                       -422.9745654178777841
  Basis Set: 6-31G*
  Basis Set:
  Basis Set: 6-31G*
  Basis Set:
  @DF-RHF Final Energy:  -422.97526074243694
    Total Energy =                       -422.9752607424366033
  Basis Set: 6-31G*
  Basis Set:
  Basis Set: 6-31G*
  Basis Set:
  @DF-RHF Final Energy:  -422.97528792808686
    Total Energy =                       -422.9752879280868001
  Basis Set: 6-31G*
  Basis Set:
  Charge       = 0
  Multiplicity = 1
  Basis Set: 6-31G*
  Basis Set:

    Orbital Energies (a.u.)
    -----------------------

    Doubly Occupied:

       1A    -20.599808     2A    -20.542847     3A    -11.374844
       4A    -11.285156     5A    -11.231799     6A    -11.221587
       7A    -11.218794     8A    -11.217426     9A    -11.210973
      10A     -1.464259    11A     -1.361848    12A     -1.090895
      13A     -1.040784    14A     -1.001762    15A     -0.931199
      16A     -0.854605    17A     -0.798732    18A     -0.754549
      19A     -0.698590    20A     -0.676332    21A     -0.662516
      22A     -0.647001    23A     -0.607768    24A     -0.588881
      25A     -0.580663    26A     -0.568975    27A     -0.553542
      28A     -0.538395    29A     -0.521415    30A     -0.513541
      31A     -0.488883    32A     -0.475542    33A     -0.469220
      34A     -0.468359    35A     -0.439834    36A     -0.431091

  @DF-RHF Final Energy:  -422.97528873022327

   => Energetics <=

    Nuclear Repulsion Energy =            458.4484213437374365
    One-Electron Energy =               -1484.5825869326467910
    Two-Electron Energy =                 603.1588768586857441
    DFT Exchange-Correlation Energy =       0.0000000000000000
    Empirical Dispersion Energy =           0.0000000000000000
    PCM Polarization Energy =               0.0000000000000000
    EFP Energy =                            0.0000000000000000
    Total Energy =                       -422.9752887302236104
    Molecular point group: c1
  Basis Set: 6-31G*
  Basis Set:

  -Total Gradient:
     Atom            X                  Y                   Z
    ------   -----------------  -----------------  -----------------
       1       -0.000030305445     0.000004182336    -0.000047383764
       2        0.002715786681    -0.004209962476    -0.003343749424
       3        0.000001814016    -0.000044443594     0.000012397466
       4       -0.003381847231     0.005448478659     0.004591602837
       5       -0.000031353036    -0.000013460497    -0.000004178392
       6        0.000004151698     0.000010761657     0.000011535004
       7        0.000010358592     0.000004483066     0.000028719467
       8       -0.002132694794     0.003516571202     0.001318557522
       9       -0.000081595414     0.000115618776     0.000143533719
      10        0.003059782261    -0.004795354030    -0.002580435446
      11       -0.000062628048     0.000058347409    -0.000078680134
      12       -0.000033584623     0.000020524041    -0.000034049015
      13        0.000025983620    -0.000036493273    -0.000014849354
      14       -0.000036930674    -0.000046090437    -0.000024801295
      15        0.000004154961    -0.000022812288     0.000012911751
      16       -0.000014677338    -0.000009499199     0.000008263066
      17       -0.000004331794     0.000002120258     0.000004263494
      18       -0.000004735581    -0.000003583183     0.000005003745
      19        0.000002474402     0.000003264817    -0.000003235986
      20        0.000000357239    -0.000009140302    -0.000000769832
      21        0.000002140374     0.000003889164    -0.000003535216
      22       -0.000009776638    -0.000001185958     0.000000486007
      23       -0.000002543224     0.000003783848    -0.000001606221

  **** Optimization is complete! (in 29 steps) ****
    Final optimized geometry and variables:
    Molecular point group: c1

    Geometry (in Angstrom), charge = 0, multiplicity = 1:

    O           -1.556104469829    -0.924352417369     1.553499877766
    C           -2.184825201733    -0.754800802550     0.559247497716
    C           -3.416409338397    -1.535451975922     0.183997971424
    O           -1.910642363373     0.165140356736    -0.353724435898
    H           -3.653167614822    -2.238453098717     0.968663989386
    H           -4.247229578353    -0.857782130325     0.026657903468
    H           -3.243226597463    -2.063684543335    -0.746709022452
    C           -0.696030996375     0.913457691604    -0.307898596101
    C            0.575025449407     0.073684040447    -0.226400767836
    H           -0.689186539672     1.427502331271    -1.258533274873
    H           -0.753315902259     1.630985357948     0.500015065000
    C            1.815479521260     0.940933071503    -0.459044701010
    H            0.524382649767    -0.702406403452    -0.987289617973
    H            0.642724550011    -0.418415237064     0.732669699595
    C            3.119160708208     0.144793009562    -0.374945168706
    H            1.752429201439     1.421917459875    -1.433927356099
    H            1.840723143623     1.743153077938     0.276895322615
    C            4.359495554229     1.007606680899    -0.603264818815
    H            3.097347188556    -0.658117981056    -1.108473192327
    H            3.184972297170    -0.333166651438     0.599456725998
    H            4.339087881081     1.473014439562    -1.584738563066
    H            5.266832215580     0.415450743213    -0.537234016475
    H            4.427464969008     1.800214395351     0.136499291565

  Mulliken Charges: (a.u.)
   Center  Symbol    Alpha    Beta     Spin     Total
       1     O     4.28405  4.28405  0.00000 -0.56811
       2     C     2.61760  2.61760  0.00000  0.76480
       3     C     3.28158  3.28158  0.00000 -0.56316
       4     O     4.31609  4.31609  0.00000 -0.63217
       5     H     0.39763  0.39763  0.00000  0.20475
       6     H     0.40016  0.40016  0.00000  0.19968
       7     H     0.40160  0.40160  0.00000  0.19680
       8     C     2.98783  2.98783  0.00000  0.02434
       9     C     3.18160  3.18160  0.00000 -0.36320
      10     H     0.41094  0.41094  0.00000  0.17813
      11     H     0.41134  0.41134  0.00000  0.17732
      12     C     3.16012  3.16012  0.00000 -0.32024
      13     H     0.41948  0.41948  0.00000  0.16104
      14     H     0.39188  0.39188  0.00000  0.21624
      15     C     3.15107  3.15107  0.00000 -0.30215
      16     H     0.42393  0.42393  0.00000  0.15214
      17     H     0.42115  0.42115  0.00000  0.15770
      18     C     3.23986  3.23986  0.00000 -0.47971
      19     H     0.42195  0.42195  0.00000  0.15609
      20     H     0.41916  0.41916  0.00000  0.16168
      21     H     0.42187  0.42187  0.00000  0.15626
      22     H     0.41808  0.41808  0.00000  0.16384
      23     H     0.42103  0.42103  0.00000  0.15794

   Total alpha = 36.00000, Total beta = 36.00000, Total charge = -0.00000
