  ==> Input File <==

--------------------------------------------------------------------------
set {
	reference rhf
	basis 6-31G*
}

set_num_threads( 4 )
memory 2 gb

molecule MOL {
0 1

H	 -3.862222	 -1.908212	 -0.835154
C	 -2.792518	 -1.799826	 -0.862904
C	 -2.069928	 -2.341250	 -1.915459
C	 -2.140934	 -1.119382	 0.153643
H	 -2.576493	 -2.868727	 -2.703194
C	 -0.694529	 -2.201478	 -1.950445
H	 -2.702735	 -0.700358	 0.968753
C	 -0.764211	 -0.978234	 0.120713
H	 -0.119233	 -2.613877	 -2.757063
C	 -0.037141	 -1.519715	 -0.932819
H	 -0.255870	 -0.452461	 0.905234
C	 1.445565	 -1.396970	 -1.017522
O	 1.970282	 -0.730723	 0.000018
O	 2.101128	 -1.847563	 -1.904123
C	 3.377318	 -0.566646	 -0.000065
H	 3.695437	 -0.028981	 -0.881264
H	 3.789299	 -1.563704	 0.000236
H	 3.695516	 -0.028316	 0.880770

	symmetry c1
}
set optking {
	frozen_dihedral = ("
		12 13 15 16
	")
}

ee = optimize('scf')
oeprop('DIPOLE', 'QUADRUPOLE', 'MULLIKEN_CHARGES')
f=open( 'psi4out.xyz', 'w' )
f.write( "18  " )
f.write( str(ee) + "\n" )
f.write( MOL.save_string_xyz() )
f.close()
--------------------------------------------------------------------------

    Molecular point group: c1
  Charge       = 0
  Multiplicity = 1
  Basis Set: 6-31G*
  Basis Set:
  @DF-RHF Final Energy:  -457.34901328407710
    Total Energy =                       -457.3490132840769320
    Molecular point group: c1
  Basis Set: 6-31G*
  Basis Set:
  Basis Set: 6-31G*
  Basis Set:
  @DF-RHF Final Energy:  -457.35022650397013
    Total Energy =                       -457.3502265039695658
  Basis Set: 6-31G*
  Basis Set:
  Basis Set: 6-31G*
  Basis Set:
  @DF-RHF Final Energy:  -457.35051001856863
    Total Energy =                       -457.3505100185687979
  Basis Set: 6-31G*
  Basis Set:
  Basis Set: 6-31G*
  Basis Set:
  @DF-RHF Final Energy:  -457.34995224172246
    Total Energy =                       -457.3499522417222352
  Basis Set: 6-31G*
  Basis Set:
  Basis Set: 6-31G*
  Basis Set:
  @DF-RHF Final Energy:  -457.35066358276379
    Total Energy =                       -457.3506635827640139
  Basis Set: 6-31G*
  Basis Set:
  Basis Set: 6-31G*
  Basis Set:
  @DF-RHF Final Energy:  -457.35066704402647
    Total Energy =                       -457.3506670440267499
  Basis Set: 6-31G*
  Basis Set:
  Charge       = 0
  Multiplicity = 1
  Basis Set: 6-31G*
  Basis Set:

    Orbital Energies (a.u.)
    -----------------------

    Doubly Occupied:

       1A    -20.607659     2A    -20.544432     3A    -11.377898
       4A    -11.282945     5A    -11.245593     6A    -11.245276
       7A    -11.244154     8A    -11.241715     9A    -11.237477
      10A    -11.236715    11A     -1.472831    12A     -1.363897
      13A     -1.165297    14A     -1.048112    15A     -1.024816
      16A     -0.978154    17A     -0.860201    18A     -0.834330
      19A     -0.777775    20A     -0.739940    21A     -0.683339
      22A     -0.677438    23A     -0.671907    24A     -0.631081
      25A     -0.623952    26A     -0.597787    27A     -0.584654
      28A     -0.561474    29A     -0.529352    30A     -0.516625
      31A     -0.503418    32A     -0.498950    33A     -0.459214
      34A     -0.444413    35A     -0.344866    36A     -0.340990

  @DF-RHF Final Energy:  -457.35066736437136

   => Energetics <=

    Nuclear Repulsion Energy =            493.0119430654996222
    One-Electron Energy =               -1600.3278728996922382
    Two-Electron Energy =                 649.9652624698212549
    DFT Exchange-Correlation Energy =       0.0000000000000000
    Empirical Dispersion Energy =           0.0000000000000000
    PCM Polarization Energy =               0.0000000000000000
    EFP Energy =                            0.0000000000000000
    Total Energy =                       -457.3506673643712475
    Molecular point group: c1
  Basis Set: 6-31G*
  Basis Set:

  -Total Gradient:
     Atom            X                  Y                   Z
    ------   -----------------  -----------------  -----------------
       1        0.000003619479     0.000000620279     0.000000101203
       2        0.000002779535     0.000000964166    -0.000001154262
       3       -0.000003691041    -0.000003445746     0.000005320785
       4       -0.000002806285    -0.000000294880    -0.000003648548
       5       -0.000000380858     0.000002086131     0.000003158778
       6       -0.000007377028     0.000003185675    -0.000004925736
       7       -0.000002097714    -0.000002016734    -0.000000985693
       8       -0.000005484734     0.000006206654     0.000011457149
       9       -0.000000684863     0.000001999606     0.000005157296
      10        0.000021695077    -0.000005853403    -0.000020276330
      11       -0.000005684740    -0.000005986554    -0.000008257846
      12       -0.000038264163     0.000013556939    -0.000035707609
      13        0.000031444722    -0.000089246592    -0.000010623744
      14       -0.000012121284     0.000037722840     0.000056743852
      15        0.000000077091     0.000105315749     0.000039946957
      16        0.000013125085    -0.000053644497    -0.000006627338
      17        0.000006226469     0.000003237771     0.000000634135
      18       -0.000000374754    -0.000014407406    -0.000030313044

  **** Optimization is complete! (in 7 steps) ****
    Final optimized geometry and variables:
    Molecular point group: c1

    Geometry (in Angstrom), charge = 0, multiplicity = 1:

    H           -4.030198677892    -0.467449478224    -0.008720306987
    C           -2.960283576291    -0.361973322594    -0.037837563952
    C           -2.240702377885    -0.903436245242    -1.092479173960
    C           -2.305435188138     0.314753133364     0.979040208629
    H           -2.749849476859    -1.428057629138    -1.880497100753
    C           -0.865045424011    -0.767396615733    -1.129239390027
    H           -2.864958439000     0.733742845015     1.795710049273
    C           -0.928361340470     0.452125102829     0.944332580713
    H           -0.292132132495    -1.179888178681    -1.937467166418
    C           -0.204277091764    -0.089366383819    -0.111274149443
    H           -0.417666075938     0.975016765813     1.729207086552
    C            1.278742886110     0.029379391103    -0.197995064497
    O            1.807031970057     0.691941923762     0.819932937174
    O            1.931694081630    -0.421241632686    -1.086566556950
    C            3.214304292805     0.853105136758     0.817318696923
    H            3.532118929163     1.392239346350    -0.063040947613
    H            3.705256517326    -0.108814772900     0.842867175913
    H            3.446940771371     1.416666368314     1.707229509395

  Mulliken Charges: (a.u.)
   Center  Symbol    Alpha    Beta     Spin     Total
       1     H     0.39539  0.39539  0.00000  0.20922
       2     C     3.08999  3.08999  0.00000 -0.17997
       3     C     3.10713  3.10713  0.00000 -0.21426
       4     C     3.10718  3.10718  0.00000 -0.21435
       5     H     0.39536  0.39536  0.00000  0.20927
       6     C     3.08639  3.08639  0.00000 -0.17279
       7     H     0.39625  0.39625  0.00000  0.20749
       8     C     3.08716  3.08716  0.00000 -0.17432
       9     H     0.37595  0.37595  0.00000  0.24809
      10     C     3.07711  3.07711  0.00000 -0.15423
      11     H     0.38042  0.38042  0.00000  0.23915
      12     C     2.57969  2.57969  0.00000  0.84062
      13     O     4.31478  4.31478  0.00000 -0.62956
      14     O     4.29185  4.29185  0.00000 -0.58369
      15     C     3.09256  3.09256  0.00000 -0.18512
      16     H     0.40728  0.40728  0.00000  0.18544
      17     H     0.40754  0.40754  0.00000  0.18492
      18     H     0.40796  0.40796  0.00000  0.18408

   Total alpha = 36.00000, Total beta = 36.00000, Total charge = -0.00000
