  ==> Input File <==

--------------------------------------------------------------------------
set {
	reference rhf
	basis cc-pvtz
}

set_num_threads( 4 )
memory 2 gb

molecule MOL {
0 1

H	 -1.766177	 0.465300	 -2.649872
O	 -1.985567	 0.230401	 -1.766928
C	 -1.019035	 0.721403	 -0.880997
C	 0.267506	 -0.075861	 -0.964501
H	 -0.808902	 1.770910	 -1.061296
H	 -1.431097	 0.636169	 0.114303
O	 1.172093	 0.457955	 -0.054438
H	 0.670326	 -0.027323	 -1.977554
H	 0.062121	 -1.121393	 -0.744828
C	 2.395478	 -0.199028	 -0.000366
H	 2.505946	 -0.901710	 -0.823354
H	 3.174616	 0.545641	 -0.071768
H	 2.513730	 -0.742241	 0.934223

	symmetry c1
}
set optking {
	frozen_dihedral = ("
		4 7 10 13
	")
}

ee = optimize('scf')
oeprop('DIPOLE', 'QUADRUPOLE', 'MULLIKEN_CHARGES')
f=open( 'psi4out.xyz', 'w' )
f.write( "13  " )
f.write( str(ee) + "\n" )
f.write( MOL.save_string_xyz() )
f.close()
--------------------------------------------------------------------------

    Molecular point group: c1
  Charge       = 0
  Multiplicity = 1
  Basis Set: CC-PVTZ
  Basis Set:
  @DF-RHF Final Energy:  -268.05865419055351
    Total Energy =                       -268.0586541905537388
    Molecular point group: c1
  Basis Set: CC-PVTZ
  Basis Set:
  Basis Set: CC-PVTZ
  Basis Set:
  @DF-RHF Final Energy:  -268.05890848953732
    Total Energy =                       -268.0589084895373162
  Basis Set: CC-PVTZ
  Basis Set:
  Basis Set: CC-PVTZ
  Basis Set:
  @DF-RHF Final Energy:  -268.05896342905032
    Total Energy =                       -268.0589634290502659
  Basis Set: CC-PVTZ
  Basis Set:
  Charge       = 0
  Multiplicity = 1
  Basis Set: CC-PVTZ
  Basis Set:

    Orbital Energies (a.u.)
    -----------------------

    Doubly Occupied:

       1A    -20.552709     2A    -20.552533     3A    -11.269694
       4A    -11.267359     5A    -11.266935     6A     -1.387833
       7A     -1.368387     8A     -1.019419     9A     -0.914241
      10A     -0.842427    11A     -0.711030    12A     -0.673589
      13A     -0.661338    14A     -0.637696    15A     -0.598353
      16A     -0.569771    17A     -0.550604    18A     -0.491154
      19A     -0.483369    20A     -0.441148    21A     -0.419235

  @DF-RHF Final Energy:  -268.05896392842982

   => Energetics <=

    Nuclear Repulsion Energy =            190.1782167180713827
    One-Electron Energy =                -743.1167220053516758
    Two-Electron Energy =                 284.8795413588505880
    DFT Exchange-Correlation Energy =       0.0000000000000000
    Empirical Dispersion Energy =           0.0000000000000000
    PCM Polarization Energy =               0.0000000000000000
    EFP Energy =                            0.0000000000000000
    Total Energy =                       -268.0589639284297618
    Molecular point group: c1
  Basis Set: CC-PVTZ
  Basis Set:

  -Total Gradient:
     Atom            X                  Y                   Z
    ------   -----------------  -----------------  -----------------
       1       -0.000015992826    -0.000005484496    -0.000008534460
       2       -0.000067581507     0.000011880371    -0.000053388990
       3        0.000013046027    -0.000034971878    -0.000026438188
       4        0.000375575618     0.000740394994    -0.000817760550
       5       -0.000005025924     0.000003623338     0.000011540542
       6        0.000025535288     0.000001107554    -0.000003902153
       7       -0.000327207416    -0.000782530947     0.001431761104
       8        0.000007964193     0.000017127082     0.000027975418
       9       -0.000000067273     0.000014181395    -0.000011461915
      10       -0.000616298948    -0.001190926843    -0.001175716052
      11        0.000001396804    -0.000006300482    -0.000002277630
      12        0.000008134304    -0.000000694421    -0.000001335466
      13        0.000600521663     0.001232594333     0.000629538342

  **** Optimization is complete! (in 4 steps) ****
    Final optimized geometry and variables:
    Molecular point group: c1

    Geometry (in Angstrom), charge = 0, multiplicity = 1:

    H           -1.933266841928     0.257403022636    -1.885147957002
    O           -2.148744281337     0.019235487071    -1.002118527398
    C           -1.172950000692     0.498826119795    -0.119719463887
    C            0.106913205790    -0.307577886180    -0.214931173918
    H           -0.955753020067     1.547525197987    -0.296390900141
    H           -1.579363042812     0.412311731755     0.877770417866
    O            1.020018367877     0.222089368959     0.690608915412
    H            0.501140411382    -0.257717609144    -1.230576633018
    H           -0.107368762168    -1.351372040742     0.002769587118
    C            2.257937184596    -0.417601172580     0.763635142629
    H            2.397464786863    -1.125659751923    -0.046177626190
    H            3.043684799597     0.325561104401     0.706177016318
    H            2.355407263816    -0.942906578987     1.707614687311

  Mulliken Charges: (a.u.)
   Center  Symbol    Alpha    Beta     Spin     Total
       1     H     0.39416  0.39416  0.00000  0.21168
       2     O     4.20214  4.20214  0.00000 -0.40427
       3     C     2.97524  2.97524  0.00000  0.04952
       4     C     2.96482  2.96482  0.00000  0.07036
       5     H     0.46716  0.46716  0.00000  0.06568
       6     H     0.45278  0.45278  0.00000  0.09444
       7     O     4.18011  4.18011  0.00000 -0.36021
       8     H     0.48143  0.48143  0.00000  0.03714
       9     H     0.46980  0.46980  0.00000  0.06039
      10     C     3.02747  3.02747  0.00000 -0.05494
      11     H     0.47144  0.47144  0.00000  0.05712
      12     H     0.45477  0.45477  0.00000  0.09047
      13     H     0.45869  0.45869  0.00000  0.08262

   Total alpha = 21.00000, Total beta = 21.00000, Total charge = -0.00000
