  ==> Input File <==

--------------------------------------------------------------------------
set {
	reference rhf
	basis cc-pvtz
}

set_num_threads( 4 )
memory 2 gb

molecule MOL {
0 1

H	 -3.268214	 -0.875720	 0.463107
C	 -2.806015	 0.000007	 0.024886
N	 -1.391133	 0.000016	 0.301321
H	 -3.029448	 0.000055	 -1.045738
H	 -3.268126	 0.875758	 0.463150
C	 -0.979242	 1.158848	 1.063574
C	 -0.595735	 -0.135432	 -0.899732
H	 -1.168915	 2.085646	 0.514103
H	 -1.555513	 1.198465	 1.980322
C	 0.497202	 1.079968	 1.404025
H	 -0.892023	 -1.040687	 -1.416275
H	 -0.759262	 0.703138	 -1.583038
C	 0.880708	 -0.214312	 -0.559280
H	 0.793489	 1.985223	 1.920568
H	 0.660728	 0.241398	 2.087331
N	 1.292600	 0.944520	 0.202973
H	 1.456980	 -0.253929	 -1.476028
H	 1.070382	 -1.141110	 -0.009809
C	 2.707482	 0.944529	 0.479408
H	 2.983260	 1.855747	 0.995345
H	 3.265142	 0.904346	 -0.447934
H	 3.019211	 0.098264	 1.098131

	symmetry c1
}
set optking {
	frozen_dihedral = ("
		6 3 2 4
	")
}

ee = optimize('scf')
oeprop('DIPOLE', 'QUADRUPOLE', 'MULLIKEN_CHARGES')
f=open( 'psi4out.xyz', 'w' )
f.write( "22  " )
f.write( str(ee) + "\n" )
f.write( MOL.save_string_xyz() )
f.close()
--------------------------------------------------------------------------

    Molecular point group: c1
  Charge       = 0
  Multiplicity = 1
  Basis Set: CC-PVTZ
  Basis Set:
  @DF-RHF Final Energy:  -344.34392899669513
    Total Energy =                       -344.3439289966952401
    Molecular point group: c1
  Basis Set: CC-PVTZ
  Basis Set:
  Basis Set: CC-PVTZ
  Basis Set:
  @DF-RHF Final Energy:  -344.34451268341758
    Total Energy =                       -344.3445126834180883
  Basis Set: CC-PVTZ
  Basis Set:
  Basis Set: CC-PVTZ
  Basis Set:
  @DF-RHF Final Energy:  -344.34463299525555
    Total Energy =                       -344.3446329952550968
  Basis Set: CC-PVTZ
  Basis Set:
  Basis Set: CC-PVTZ
  Basis Set:
  @DF-RHF Final Energy:  -344.34463762574990
    Total Energy =                       -344.3446376257494421
  Basis Set: CC-PVTZ
  Basis Set:
  Charge       = 0
  Multiplicity = 1
  Basis Set: CC-PVTZ
  Basis Set:

    Orbital Energies (a.u.)
    -----------------------

    Doubly Occupied:

       1A    -15.537074     2A    -15.533740     3A    -11.237290
       4A    -11.237261     5A    -11.236271     6A    -11.236251
       7A    -11.234021     8A    -11.233858     9A     -1.254984
      10A     -1.203117    11A     -1.025540    12A     -0.991753
      13A     -0.912709    14A     -0.867676    15A     -0.836599
      16A     -0.754238    17A     -0.665836    18A     -0.636063
      19A     -0.631739    20A     -0.624875    21A     -0.620540
      22A     -0.580228    23A     -0.551614    24A     -0.550535
      25A     -0.542617    26A     -0.519674    27A     -0.498067
      28A     -0.487701    29A     -0.466215    30A     -0.456397
      31A     -0.350890    32A     -0.341398

  @DF-RHF Final Energy:  -344.34463826059260

   => Energetics <=

    Nuclear Repulsion Energy =            421.3727327400233094
    One-Electron Energy =               -1301.7211981543430284
    Two-Electron Energy =                 536.0038271537266610
    DFT Exchange-Correlation Energy =       0.0000000000000000
    Empirical Dispersion Energy =           0.0000000000000000
    PCM Polarization Energy =               0.0000000000000000
    EFP Energy =                            0.0000000000000000
    Total Energy =                       -344.3446382605930012
    Molecular point group: c1
  Basis Set: CC-PVTZ
  Basis Set:

  -Total Gradient:
     Atom            X                  Y                   Z
    ------   -----------------  -----------------  -----------------
       1        0.000016635550     0.000020915834     0.000003871037
       2       -0.000163928812     0.001255404649     0.000301406232
       3        0.000195805941     0.000318266941    -0.001036808442
       4        0.000060594338    -0.001143305685    -0.000021004822
       5        0.000008263675     0.000002886786     0.000006266322
       6       -0.000127921009    -0.000479331892     0.000744624501
       7       -0.000023815624     0.000003941087     0.000001126573
       8        0.000004140451    -0.000005373889     0.000002335340
       9        0.000005821406     0.000005186208    -0.000002271573
      10        0.000007948735     0.000023517119     0.000007710978
      11        0.000006744196     0.000003570917    -0.000000980209
      12       -0.000004193951    -0.000000603135     0.000002706309
      13        0.000014508732    -0.000008180474    -0.000003172681
      14        0.000016639520     0.000003139363     0.000004320964
      15       -0.000011855964     0.000003685178    -0.000002908447
      16       -0.000016914994    -0.000005918517    -0.000000207174
      17        0.000010476012     0.000002229117     0.000001376528
      18       -0.000004619941    -0.000004843315    -0.000003867312
      19        0.000001000381     0.000007419979    -0.000006361243
      20        0.000003361250    -0.000001354333     0.000000595668
      21        0.000003578586    -0.000000844491     0.000001779575
      22       -0.000002268474    -0.000000407449    -0.000000538123

  **** Optimization is complete! (in 5 steps) ****
    Final optimized geometry and variables:
    Molecular point group: c1

    Geometry (in Angstrom), charge = 0, multiplicity = 1:

    H           -3.207464020916    -1.402435566633     0.199545415244
    C           -2.774968772329    -0.496900785264    -0.213079142010
    N           -1.344512347488    -0.440518509015     0.032223465350
    H           -3.000141480137    -0.482906713647    -1.275150569671
    H           -3.285866483727     0.347323176649     0.235413729157
    C           -0.925023570841     0.705232800222     0.807753474750
    C           -0.543167797365    -0.599708137053    -1.159984028911
    H           -1.103148743461     1.643207068330     0.273109924911
    H           -1.498960178322     0.737960842559     1.725921069749
    C            0.549775193555     0.607727558265     1.151317417211
    H           -0.842211292003    -1.509903159948    -1.666217707283
    H           -0.691384526314     0.229657594664    -1.858117984599
    C            0.930047342776    -0.691015359268    -0.808562027527
    H            0.855243325887     1.507787857308     1.671898434609
    H            0.701035097870    -0.235264871565     1.832281365715
    N            1.347733628378     0.466100238735    -0.047171263052
    H            1.512432128121    -0.739467715853    -1.721194658396
    H            1.106906464927    -1.617658569487    -0.254252984489
    C            2.761568668150     0.456259540069     0.233666815382
    H            3.042418528671     1.366117599752     0.749389803497
    H            3.322027718771     0.410723259470    -0.691808689780
    H            3.065418274179    -0.391444479026     0.854558048693

  Mulliken Charges: (a.u.)
   Center  Symbol    Alpha    Beta     Spin     Total
       1     H     0.45019  0.45019  0.00000  0.09961
       2     C     3.09213  3.09213  0.00000 -0.18426
       3     N     3.61545  3.61545  0.00000 -0.23090
       4     H     0.46193  0.46193  0.00000  0.07613
       5     H     0.45992  0.45992  0.00000  0.08016
       6     C     3.03556  3.03556  0.00000 -0.07112
       7     C     3.03558  3.03558  0.00000 -0.07116
       8     H     0.46853  0.46853  0.00000  0.06293
       9     H     0.45349  0.45349  0.00000  0.09303
      10     C     3.03706  3.03706  0.00000 -0.07411
      11     H     0.45341  0.45341  0.00000  0.09319
      12     H     0.46842  0.46842  0.00000  0.06315
      13     C     3.03728  3.03728  0.00000 -0.07455
      14     H     0.45411  0.45411  0.00000  0.09177
      15     H     0.46875  0.46875  0.00000  0.06250
      16     N     3.61294  3.61294  0.00000 -0.22587
      17     H     0.45412  0.45412  0.00000  0.09177
      18     H     0.46871  0.46871  0.00000  0.06257
      19     C     3.09824  3.09824  0.00000 -0.19647
      20     H     0.45199  0.45199  0.00000  0.09603
      21     H     0.45198  0.45198  0.00000  0.09603
      22     H     0.47021  0.47021  0.00000  0.05959

   Total alpha = 32.00000, Total beta = 32.00000, Total charge = -0.00000
