                              Psi4 1.0.54 Driver

  ==> Input File <==

--------------------------------------------------------------------------
set {
	reference rhf
	basis cc-pvtz
}

set_num_threads( 4 )
memory 2 gb

molecule MOL {
0 1

O	 -2.440701	 -0.934798	 -0.415053
C	 -1.922978	 0.063265	 -0.045005
C	 -2.632749	 1.372204	 0.158357
O	 -0.637375	 0.157174	 0.243149
H	 -2.187724	 2.129143	 -0.474664
H	 -3.677681	 1.257276	 -0.079438
H	 -2.516788	 1.693160	 1.185542
C	 0.162530	 -1.009518	 0.097799
C	 1.587210	 -0.664190	 0.477086
H	 0.096803	 -1.356267	 -0.924704
H	 -0.233803	 -1.785900	 0.736810
C	 1.747667	 0.708524	 1.124908
H	 2.183272	 -0.709876	 -0.430305
H	 1.970562	 -1.433242	 1.140740
C	 3.198404	 1.031857	 1.466132
H	 1.357092	 1.467672	 0.452417
H	 1.144903	 0.754234	 2.024591
H	 3.284078	 2.012062	 1.920273
H	 3.822803	 1.022972	 0.578754
H	 3.606692	 0.307953	 2.163471

	symmetry c1
}
set optking {
	frozen_dihedral = ("
		12 9 8 10
	")
}

ee,wfn = optimize('scf', return_wfn=True)
oeprop( wfn, 'DIPOLE', 'QUADRUPOLE', 'MULLIKEN_CHARGES')
f=open( 'psi4out.xyz', 'w' )
f.write( "20  " )
f.write( str(ee) + "\n" )
f.write( MOL.save_string_xyz() )
f.close()
--------------------------------------------------------------------------

    Molecular point group: c1
  Charge       = 0
  Multiplicity = 1
  Basis Set: CC-PVTZ
  Basis Set:
  @DF-RHF Final Energy:  -384.07774411277069
    Total Energy =                       -384.0777441127704606
    Molecular point group: c1
  Basis Set: CC-PVTZ
  Basis Set:
  Basis Set: CC-PVTZ
  Basis Set:
  @DF-RHF Final Energy:  -383.96431684256106
    Total Energy =                       -383.9643168425606632
  Basis Set: CC-PVTZ
  Basis Set:
  Basis Set: CC-PVTZ
  Basis Set:
  @DF-RHF Final Energy:  -384.06138348448479
    Total Energy =                       -384.0613834844845087
  Basis Set: CC-PVTZ
  Basis Set:
  Basis Set: CC-PVTZ
  Basis Set:
  @DF-RHF Final Energy:  -384.07872671269337
    Total Energy =                       -384.0787267126936513
  Basis Set: CC-PVTZ
  Basis Set:
  Basis Set: CC-PVTZ
  Basis Set:
  @DF-RHF Final Energy:  -384.07917782390359
    Total Energy =                       -384.0791778239033647
  Basis Set: CC-PVTZ
  Basis Set:
  Basis Set: CC-PVTZ
  Basis Set:
  @DF-RHF Final Energy:  -384.07906482802923
    Total Energy =                       -384.0790648280290043
  Basis Set: CC-PVTZ
  Basis Set:
  Basis Set: CC-PVTZ
  Basis Set:
  @DF-RHF Final Energy:  -384.07930086619569
    Total Energy =                       -384.0793008661951262
  Basis Set: CC-PVTZ
  Basis Set:
  Charge       = 0
  Multiplicity = 1
  Basis Set: CC-PVTZ
  Basis Set:

    Orbital Energies (a.u.)
    -----------------------

    Doubly Occupied:

       1A    -20.593607     2A    -20.532405     3A    -11.366359
       4A    -11.281037     5A    -11.231538     6A    -11.224217
       7A    -11.217966     8A    -11.210472     9A     -1.470796
      10A     -1.364815    11A     -1.082729    12A     -1.028749
      13A     -0.979959    14A     -0.882201    15A     -0.818948
      16A     -0.762083    17A     -0.693533    18A     -0.691825
      19A     -0.669799    20A     -0.635705    21A     -0.595469
      22A     -0.594357    23A     -0.574169    24A     -0.547663
      25A     -0.545944    26A     -0.534450    27A     -0.508623
      28A     -0.483444    29A     -0.479309    30A     -0.469869
      31A     -0.446117    32A     -0.441822

  @DF-RHF Final Energy:  -384.07930076848328

   => Energetics <=

    Nuclear Repulsion Energy =            387.0456459425939215
    One-Electron Energy =               -1290.3299430833451424
    Two-Electron Energy =                 519.2049963722683970
    DFT Exchange-Correlation Energy =       0.0000000000000000
    Empirical Dispersion Energy =           0.0000000000000000
    PCM Polarization Energy =               0.0000000000000000
    EFP Energy =                            0.0000000000000000
    Total Energy =                       -384.0793007684828808
    Molecular point group: c1
  Basis Set: CC-PVTZ
  Basis Set:

  -Total Gradient:
     Atom            X                  Y                   Z
    ------   -----------------  -----------------  -----------------
       1        0.000080153126     0.000129787631     0.000084815183
       2       -0.000080073806    -0.000082313020    -0.000059926880
       3        0.000019922361    -0.000030163108     0.000042838212
       4       -0.000051056907    -0.000006455981    -0.000144766490
       5       -0.000008618004    -0.000007744813    -0.000030252937
       6        0.000036976423    -0.000015465623    -0.000012670568
       7        0.000011119858    -0.000004191620    -0.000022824861
       8        0.000479437663    -0.003263036571    -0.000913999863
       9       -0.000776881349    -0.001692500215     0.002320029248
      10       -0.000320143884     0.003282792657     0.000262440236
      11        0.000009943715    -0.000013804296    -0.000039791194
      12        0.000520541812     0.001622052283    -0.001482318132
      13        0.000031979648    -0.000016408884     0.000012110413
      14       -0.000030212424     0.000001735111     0.000013897896
      15        0.000033268440     0.000049591513     0.000015200466
      16       -0.000034308166     0.000052840280     0.000004492189
      17        0.000103756339    -0.000021668053    -0.000010946357
      18        0.000005129138     0.000007939492    -0.000026292750
      19       -0.000002053478     0.000002627999    -0.000013275268
      20       -0.000028880511     0.000004385218     0.000001241452

  **** Optimization is complete! (in 8 steps) ****
    Final optimized geometry and variables:
    Molecular point group: c1

    Geometry (in Angstrom), charge = 0, multiplicity = 1:

    O           -2.270467822259    -0.487095378497    -1.335309879983
    C           -1.779797717636     0.272598335930    -0.571506713025
    C           -2.485128127017     1.453911848301     0.032683927540
    O           -0.533310581547     0.181674425412    -0.146491553122
    H           -1.966312551871     2.363967656297    -0.240115136184
    H           -3.502298249889     1.487238166468    -0.322093505758
    H           -2.467902640239     1.376309579562     1.111983963868
    C            0.256152484891    -0.894126165537    -0.642690313209
    C            1.674480115430    -0.827470036156    -0.052936879591
    H            0.280217132815    -0.807844302997    -1.718450585395
    H           -0.236595696473    -1.820948578349    -0.390526244776
    C            1.885759273766     0.154253949423     1.099179824695
    H            2.368337265031    -0.568804709938    -0.845960404357
    H            1.951928344348    -1.823954224608     0.273332787645
    C            3.317929318810     0.113284757467     1.621969045221
    H            1.647861466286     1.157742405897     0.769873675980
    H            1.199018518804    -0.071254824723     1.907845862689
    H            3.456640973708     0.821343865691     2.430619593864
    H            4.028931078671     0.361360431415     0.840701282072
    H            3.572773441726    -0.871950798181     1.998183763628

  Mulliken Charges: (a.u.)
   Center  Symbol    Alpha    Beta     Spin     Total
       1     O     4.19817  4.19817  0.00000 -0.39635
       2     C     2.81161  2.81161  0.00000  0.37677
       3     C     3.13843  3.13843  0.00000 -0.27686
       4     O     4.14756  4.14756  0.00000 -0.29513
       5     H     0.44619  0.44619  0.00000  0.10762
       6     H     0.43750  0.43750  0.00000  0.12499
       7     H     0.44594  0.44594  0.00000  0.10812
       8     C     2.98389  2.98389  0.00000  0.03223
       9     C     3.10451  3.10451  0.00000 -0.20901
      10     H     0.44930  0.44930  0.00000  0.10141
      11     H     0.45067  0.45067  0.00000  0.09866
      12     C     3.07393  3.07393  0.00000 -0.14786
      13     H     0.45061  0.45061  0.00000  0.09877
      14     H     0.44986  0.44986  0.00000  0.10029
      15     C     3.15230  3.15230  0.00000 -0.30460
      16     H     0.44924  0.44924  0.00000  0.10153
      17     H     0.45204  0.45204  0.00000  0.09593
      18     H     0.44739  0.44739  0.00000  0.10523
      19     H     0.45534  0.45534  0.00000  0.08932
      20     H     0.45552  0.45552  0.00000  0.08896

   Total alpha = 32.00000, Total beta = 32.00000, Total charge =  0.00000

*** Psi4 exiting successfully. Buy a developer a beer!
