  ==> Input File <==

--------------------------------------------------------------------------
set {
	reference rhf
	basis cc-pvtz
}

set_num_threads( 4 )
memory 2 gb

molecule MOL {
0 1

O	 0.395927	 1.296676	 -0.000076
C	 0.503051	 0.114301	 -0.000074
C	 -0.701422	 -0.805636	 -0.000109
C	 1.858118	 -0.556123	 0.000212
C	 -0.582077	 -1.983212	 -0.954652
H	 -0.852630	 -1.147553	 1.020510
H	 -1.574450	 -0.202477	 -0.235609
H	 0.272744	 -2.598181	 -0.707020
H	 -1.472480	 -2.598572	 -0.905961
H	 -0.455478	 -1.644744	 -1.974281
H	 1.961106	 -1.191101	 -0.872843
H	 2.636688	 0.191085	 -0.000109
H	 1.961070	 -1.190284	 0.873873

	symmetry c1
}
set optking {
	frozen_dihedral = ("
		6 3 2 1
	")
}

ee = optimize('scf')
oeprop('DIPOLE', 'QUADRUPOLE', 'MULLIKEN_CHARGES')
f=open( 'psi4out.xyz', 'w' )
f.write( "13  " )
f.write( str(ee) + "\n" )
f.write( MOL.save_string_xyz() )
f.close()
--------------------------------------------------------------------------

    Molecular point group: c1
  Charge       = 0
  Multiplicity = 1
  Basis Set: CC-PVTZ
  Basis Set:
  @DF-RHF Final Energy:  -231.07946592745421
    Total Energy =                       -231.0794659274541232
    Molecular point group: c1
  Basis Set: CC-PVTZ
  Basis Set:
  Basis Set: CC-PVTZ
  Basis Set:
  @DF-RHF Final Energy:  -231.07921112501225
    Total Energy =                       -231.0792111250120513
  Basis Set: CC-PVTZ
  Basis Set:
  Basis Set: CC-PVTZ
  Basis Set:
  @DF-RHF Final Energy:  -231.07970044386010
    Total Energy =                       -231.0797004438599913
  Basis Set: CC-PVTZ
  Basis Set:
  Basis Set: CC-PVTZ
  Basis Set:
  @DF-RHF Final Energy:  -231.08068161347560
    Total Energy =                       -231.0806816134755763
  Basis Set: CC-PVTZ
  Basis Set:
  Basis Set: CC-PVTZ
  Basis Set:
  @DF-RHF Final Energy:  -231.08072722776626
    Total Energy =                       -231.0807272277663174
  Basis Set: CC-PVTZ
  Basis Set:
  Basis Set: CC-PVTZ
  Basis Set:
  @DF-RHF Final Energy:  -231.08073345905859
    Total Energy =                       -231.0807334590584787
  Basis Set: CC-PVTZ
  Basis Set:
  Charge       = 0
  Multiplicity = 1
  Basis Set: CC-PVTZ
  Basis Set:

    Orbital Energies (a.u.)
    -----------------------

    Doubly Occupied:

       1A    -20.537911     2A    -11.320805     3A    -11.232661
       4A    -11.228026     5A    -11.227398     6A     -1.398076
       7A     -1.069035     8A     -0.994982     9A     -0.890896
      10A     -0.733684    11A     -0.655133    12A     -0.648334
      13A     -0.621440    14A     -0.590262    15A     -0.559921
      16A     -0.545301    17A     -0.530054    18A     -0.508052
      19A     -0.484393    20A     -0.402317

  @DF-RHF Final Energy:  -231.08073579833558

   => Energetics <=

    Nuclear Repulsion Energy =            177.1901990374315687
    One-Electron Energy =                -664.1845092543927649
    Two-Electron Energy =                 255.9135744186255295
    DFT Exchange-Correlation Energy =       0.0000000000000000
    Empirical Dispersion Energy =           0.0000000000000000
    PCM Polarization Energy =               0.0000000000000000
    EFP Energy =                            0.0000000000000000
    Total Energy =                       -231.0807357983356667
    Molecular point group: c1
  Basis Set: CC-PVTZ
  Basis Set:

  -Total Gradient:
     Atom            X                  Y                   Z
    ------   -----------------  -----------------  -----------------
       1       -0.000046140964     0.000018588158     0.000956726617
       2       -0.000061760116     0.000123943724    -0.001316350163
       3        0.000645684255    -0.000881162534     0.000175365013
       4       -0.000009661257     0.000011990290     0.000068901445
       5        0.000018006949    -0.000004154028    -0.000003590189
       6       -0.000545435233     0.000744133907     0.000168438348
       7       -0.000000203095     0.000011117496    -0.000003359543
       8        0.000001056456    -0.000006887467    -0.000004595830
       9        0.000003391717     0.000013032158     0.000014968816
      10        0.000001403727     0.000007657355    -0.000000692221
      11       -0.000001440708    -0.000018783509    -0.000028777030
      12       -0.000015289918    -0.000008940717    -0.000012599872
      13        0.000010388188    -0.000010534831    -0.000014435389

  **** Optimization is complete! (in 7 steps) ****
    Final optimized geometry and variables:
    Molecular point group: c1

    Geometry (in Angstrom), charge = 0, multiplicity = 1:

    O            0.087538758260     1.687810270812     0.176215277253
    C            0.215117457381     0.506791581497     0.179100667599
    C           -0.997710462541    -0.404811415033     0.194681619053
    C            1.586368749098    -0.129062816336     0.211226769942
    C           -0.923757566475    -1.619380803699    -0.728749060591
    H           -1.125828207291    -0.731844906876     1.224101343186
    H           -1.853334495579     0.210119441548    -0.047388889607
    H           -0.122172364570    -2.293391287507    -0.453773509044
    H           -1.850576832533    -2.176768308788    -0.681410227342
    H           -0.772331979285    -1.320271324429    -1.759816718205
    H            1.796072607325    -0.603017479679    -0.741144999680
    H            2.328776052262     0.630612371840     0.400553716701
    H            1.638694606881    -0.898054041994     0.973702560292

  Mulliken Charges: (a.u.)
   Center  Symbol    Alpha    Beta     Spin     Total
       1     O     4.17148  4.17148  0.00000 -0.34296
       2     C     2.85637  2.85637  0.00000  0.28727
       3     C     3.09790  3.09790  0.00000 -0.19581
       4     C     3.16184  3.16184  0.00000 -0.32368
       5     C     3.15711  3.15711  0.00000 -0.31423
       6     H     0.44780  0.44780  0.00000  0.10440
       7     H     0.43691  0.43691  0.00000  0.12618
       8     H     0.45250  0.45250  0.00000  0.09500
       9     H     0.44164  0.44164  0.00000  0.11673
      10     H     0.44782  0.44782  0.00000  0.10436
      11     H     0.44747  0.44747  0.00000  0.10507
      12     H     0.43228  0.43228  0.00000  0.13544
      13     H     0.44888  0.44888  0.00000  0.10223

   Total alpha = 20.00000, Total beta = 20.00000, Total charge = -0.00000
