                              Psi4 1.0.54 Driver

  ==> Input File <==

--------------------------------------------------------------------------
set {
	reference rhf
	basis cc-pvtz
}

set_num_threads( 4 )
memory 2 gb

molecule MOL {
0 1

H	 -2.544554	 -1.295110	 3.194359
C	 -2.483549	 -1.022719	 2.160729
C	 -1.335628	 -1.117150	 1.535663
H	 -3.368883	 -0.679912	 1.662265
O	 -1.189946	 -0.765863	 0.237511
H	 -0.444152	 -1.467438	 2.023203
C	 0.026572	 -0.995256	 -0.379403
C	 1.057223	 0.049888	 -0.004615
H	 -0.054361	 -1.010670	 -1.459674
H	 0.397526	 -1.952058	 -0.044198
F	 2.203233	 -0.234060	 -0.590375
F	 0.698147	 1.254887	 -0.392621
F	 1.266440	 0.094219	 1.288722

	symmetry c1
}
set optking {
	frozen_dihedral = ("
		3 5 7 9
	")
}

ee,wfn = optimize('scf', return_wfn=True)
oeprop( wfn, 'DIPOLE', 'QUADRUPOLE', 'MULLIKEN_CHARGES')
f=open( 'psi4out.xyz', 'w' )
f.write( "13  " )
f.write( str(ee) + "\n" )
f.write( MOL.save_string_xyz() )
f.close()
--------------------------------------------------------------------------

    Molecular point group: c1
  Charge       = 0
  Multiplicity = 1
  Basis Set: CC-PVTZ
  Basis Set:
  @DF-RHF Final Energy:  -527.73949332014627
    Total Energy =                       -527.7394933201467211
    Molecular point group: c1
  Basis Set: CC-PVTZ
  Basis Set:
  Basis Set: CC-PVTZ
  Basis Set:
  @DF-RHF Final Energy:  -527.74127937771823
    Total Energy =                       -527.7412793777180013
  Basis Set: CC-PVTZ
  Basis Set:
  Basis Set: CC-PVTZ
  Basis Set:
  @DF-RHF Final Energy:  -527.74178516820848
    Total Energy =                       -527.7417851682082528
  Basis Set: CC-PVTZ
  Basis Set:
  Basis Set: CC-PVTZ
  Basis Set:
  @DF-RHF Final Energy:  -527.74182177563262
    Total Energy =                       -527.7418217756328431
  Basis Set: CC-PVTZ
  Basis Set:
  @DF-RHF Final Energy:  -527.74187145305666
    Total Energy =                       -527.7418714530570014
  Basis Set: CC-PVTZ
  Basis Set:
  @DF-RHF Final Energy:  -527.74190018532113
    Total Energy =                       -527.7419001853210148
  Basis Set: CC-PVTZ
  Basis Set:
  Basis Set: CC-PVTZ
  Basis Set:
  @DF-RHF Final Energy:  -527.74190797844358
    Total Energy =                       -527.7419079784442602
  Basis Set: CC-PVTZ
  Basis Set:
  Basis Set: CC-PVTZ
  Basis Set:
  @DF-RHF Final Energy:  -527.74191040893311
    Total Energy =                       -527.7419104089328812
  Basis Set: CC-PVTZ
  Basis Set:
  Charge       = 0
  Multiplicity = 1
  Basis Set: CC-PVTZ
  Basis Set:

    Orbital Energies (a.u.)
    -----------------------

    Doubly Occupied:

       1A    -26.342024     2A    -26.341116     3A    -26.338375
       4A    -20.603920     5A    -11.498178     6A    -11.320081
       7A    -11.297884     8A    -11.213881     9A     -1.750869
      10A     -1.647289    11A     -1.645784    12A     -1.444204
      13A     -1.087534    14A     -1.020956    15A     -0.932578
      16A     -0.843977    17A     -0.839765    18A     -0.829360
      19A     -0.795521    20A     -0.728532    21A     -0.719272
      22A     -0.702998    23A     -0.681825    24A     -0.668697
      25A     -0.662010    26A     -0.651304    27A     -0.642101
      28A     -0.588990    29A     -0.566450    30A     -0.527660
      31A     -0.516842    32A     -0.357098

  @DF-RHF Final Energy:  -527.74191104173451

   => Energetics <=

    Nuclear Repulsion Energy =            414.6377294070080666
    One-Electron Energy =               -1553.1451302326145196
    Two-Electron Energy =                 610.7654897838721126
    DFT Exchange-Correlation Energy =       0.0000000000000000
    Empirical Dispersion Energy =           0.0000000000000000
    PCM Polarization Energy =               0.0000000000000000
    EFP Energy =                            0.0000000000000000
    Total Energy =                       -527.7419110417343973
    Molecular point group: c1
  Basis Set: CC-PVTZ
  Basis Set:

  -Total Gradient:
     Atom            X                  Y                   Z
    ------   -----------------  -----------------  -----------------
       1        0.000010959381     0.000020264293     0.000003581229
       2       -0.000011806190     0.000003029336     0.000020016953
       3        0.000276475081     0.000873297274     0.000292501062
       4        0.000004616087     0.000000252527    -0.000001565968
       5       -0.000427844902    -0.001103526434    -0.000468186704
       6        0.000012394328     0.000022123709     0.000003225120
       7       -0.000110546644    -0.001036214999     0.000162245895
       8        0.000057860987     0.000003684984     0.000050998892
       9        0.000239249012     0.001217775964     0.000006607270
      10       -0.000007193330    -0.000011907212     0.000000739083
      11        0.000015634380    -0.000051570210     0.000013694283
      12       -0.000066616865     0.000077345435    -0.000015741486
      13        0.000006818670    -0.000014554674    -0.000068115634

  **** Optimization is complete! (in 9 steps) ****
    Final optimized geometry and variables:
    Molecular point group: c1

    Geometry (in Angstrom), charge = 0, multiplicity = 1:

    H           -2.754938824600    -0.868877894824     2.759444495643
    C           -2.624010481339    -0.527214668488     1.753211006886
    C           -1.562892562994    -0.896796295305     1.079084727733
    H           -3.369482951661     0.111636302228     1.321941769467
    O           -1.361164350171    -0.527312422008    -0.207299708153
    H           -0.804677804052    -1.529591450571     1.503137493525
    C           -0.125024403005    -0.767452697723    -0.779026693078
    C            0.893175059517     0.302991736782    -0.437921533038
    H           -0.251449238659    -0.747826890039    -1.850616793640
    H            0.286495914916    -1.726522452150    -0.486548458801
    F            2.024209899632     0.042613037782    -1.062405174514
    F            0.494076712659     1.496039142299    -0.806999924533
    F            1.152797451186     0.350686551793     0.851361743925

  Mulliken Charges: (a.u.)
   Center  Symbol    Alpha    Beta     Spin     Total
       1     H     0.42526  0.42526  0.00000  0.14947
       2     C     3.19584  3.19584  0.00000 -0.39168
       3     C     2.95957  2.95957  0.00000  0.08085
       4     H     0.42462  0.42462  0.00000  0.15076
       5     O     4.14460  4.14460  0.00000 -0.28920
       6     H     0.43393  0.43393  0.00000  0.13214
       7     C     3.02108  3.02108  0.00000 -0.04215
       8     C     2.67590  2.67590  0.00000  0.64820
       9     H     0.43488  0.43488  0.00000  0.13023
      10     H     0.45432  0.45432  0.00000  0.09137
      11     F     4.61238  4.61238  0.00000 -0.22476
      12     F     4.60699  4.60699  0.00000 -0.21398
      13     F     4.61062  4.61062  0.00000 -0.22124

   Total alpha = 32.00000, Total beta = 32.00000, Total charge = -0.00000

*** Psi4 exiting successfully. Buy a developer a beer!
