  ==> Input File <==

--------------------------------------------------------------------------
set {
	reference rhf
	basis 6-31G*
}

set_num_threads( 4 )
memory 2 gb

molecule MOL {
0 1

H	 -2.927673	 -1.376007	 0.424136
O	 -2.102716	 -1.041991	 0.102182
C	 -2.026376	 0.340750	 0.341611
C	 -0.673256	 0.843270	 -0.132153
H	 -2.818946	 0.862305	 -0.192008
H	 -2.150804	 0.552278	 1.402944
C	 0.486613	 -0.083066	 0.235839
H	 -0.715586	 0.970948	 -1.210718
H	 -0.508072	 1.829858	 0.297090
C	 1.840406	 0.433480	 -0.254303
H	 0.300215	 -1.068318	 -0.178947
H	 0.519509	 -0.203625	 1.318070
C	 3.000220	 -0.489290	 0.118523
H	 1.809207	 0.553576	 -1.335192
H	 2.021860	 1.424500	 0.157276
H	 2.864959	 -1.479103	 -0.307933
H	 3.946603	 -0.099227	 -0.243630
H	 3.080049	 -0.602997	 1.196117

	symmetry c1
}
set optking {
	frozen_dihedral = ("
		2 3 4 8
	")
}

ee = optimize('scf')
oeprop('DIPOLE', 'QUADRUPOLE', 'MULLIKEN_CHARGES')
f=open( 'psi4out.xyz', 'w' )
f.write( "18  " )
f.write( str(ee) + "\n" )
f.write( MOL.save_string_xyz() )
f.close()
--------------------------------------------------------------------------

    Molecular point group: c1
  Charge       = 0
  Multiplicity = 1
  Basis Set: 6-31G*
  Basis Set:
  @DF-RHF Final Energy:  -271.17753158249644
    Total Energy =                       -271.1775315824962149
    Molecular point group: c1
  Basis Set: 6-31G*
  Basis Set:
  Basis Set: 6-31G*
  Basis Set:
  @DF-RHF Final Energy:  -271.17790441808501
    Total Energy =                       -271.1779044180851770
  Basis Set: 6-31G*
  Basis Set:
  Basis Set: 6-31G*
  Basis Set:
  @DF-RHF Final Energy:  -271.17805792187926
    Total Energy =                       -271.1780579218790876
  Basis Set: 6-31G*
  Basis Set:
  Basis Set: 6-31G*
  Basis Set:
  @DF-RHF Final Energy:  -271.17806462131307
    Total Energy =                       -271.1780646213131831
  Basis Set: 6-31G*
  Basis Set:
  Charge       = 0
  Multiplicity = 1
  Basis Set: 6-31G*
  Basis Set:

    Orbital Energies (a.u.)
    -----------------------

    Doubly Occupied:

       1A    -20.552931     2A    -11.268494     3A    -11.212506
       4A    -11.209869     5A    -11.204975     6A    -11.203679
       7A     -1.359826     8A     -1.073512     9A     -1.007707
      10A     -0.913303    11A     -0.817273    12A     -0.782764
      13A     -0.701526    14A     -0.648953    15A     -0.620186
      16A     -0.580003    17A     -0.572040    18A     -0.554172
      19A     -0.520523    20A     -0.501886    21A     -0.488589
      22A     -0.465697    23A     -0.456429    24A     -0.444458
      25A     -0.429948

  @DF-RHF Final Energy:  -271.17806481350385

   => Energetics <=

    Nuclear Repulsion Energy =            249.5230284593117460
    One-Electron Energy =                -862.2196847946163416
    Two-Electron Energy =                 341.5185915218007153
    DFT Exchange-Correlation Energy =       0.0000000000000000
    Empirical Dispersion Energy =           0.0000000000000000
    PCM Polarization Energy =               0.0000000000000000
    EFP Energy =                            0.0000000000000000
    Total Energy =                       -271.1780648135039087
    Molecular point group: c1
  Basis Set: 6-31G*
  Basis Set:

  -Total Gradient:
     Atom            X                  Y                   Z
    ------   -----------------  -----------------  -----------------
       1        0.000013983708     0.000025175199     0.000005000446
       2        0.001619605204    -0.000755973974     0.003446735766
       3       -0.002446659298     0.002116795198    -0.004370940712
       4        0.002172930284    -0.006186333221     0.000212231018
       5        0.000004408945     0.000021455812     0.000006927408
       6        0.000011581388     0.000001574221    -0.000003049977
       7        0.000005070986     0.000027235335     0.000049636906
       8       -0.001374774824     0.004782096984     0.000667419927
       9       -0.000010036810    -0.000002550422     0.000005857970
      10        0.000010142995    -0.000009270751    -0.000011612394
      11       -0.000011189898     0.000014437848    -0.000006755983
      12        0.000019189162    -0.000032146404     0.000005002491
      13       -0.000003353964    -0.000000409067    -0.000002156865
      14        0.000017260021    -0.000009093937    -0.000005841979
      15       -0.000023233377     0.000001272289    -0.000003047644
      16       -0.000000399571    -0.000000744425     0.000002572666
      17       -0.000003967579     0.000003196849    -0.000000272453
      18       -0.000000557372     0.000003282469     0.000002293410

  **** Optimization is complete! (in 5 steps) ****
    Final optimized geometry and variables:
    Molecular point group: c1

    Geometry (in Angstrom), charge = 0, multiplicity = 1:

    H           -3.050380244760    -1.287277870971     0.361468355037
    O           -2.203965020242    -1.003305220667     0.047305016489
    C           -2.056620892769     0.375169203501     0.276554628072
    C           -0.701243591481     0.837916759130    -0.243277380828
    H           -2.850145052357     0.937488735027    -0.211242611445
    H           -2.121252841303     0.578099639573     1.344952078522
    C            0.464586659761    -0.072864601129     0.138136907796
    H           -0.752676789358     0.976147439010    -1.320543154464
    H           -0.528664108110     1.833906483036     0.163226401642
    C            1.816224076788     0.475862153307    -0.322554647037
    H            0.305308781222    -1.057636055342    -0.286101237185
    H            0.478011154521    -0.203832581167     1.219135656679
    C            2.985568363184    -0.433965477026     0.052366289728
    H            1.799994060009     0.613939889142    -1.401793143683
    H            1.975130947839     1.462549127888     0.108268763941
    H            2.873272724985    -1.418577550486    -0.392429990716
    H            3.930679454727    -0.022260197022    -0.288583492117
    H            3.050792384732    -0.564642085841     1.128964938487

  Mulliken Charges: (a.u.)
   Center  Symbol    Alpha    Beta     Spin     Total
       1     H     0.28056  0.28056  0.00000  0.43889
       2     O     4.36958  4.36958  0.00000 -0.73917
       3     C     2.99474  2.99474  0.00000  0.01051
       4     C     3.16468  3.16468  0.00000 -0.32937
       5     H     0.42925  0.42925  0.00000  0.14150
       6     H     0.43263  0.43263  0.00000  0.13473
       7     C     3.14890  3.14890  0.00000 -0.29780
       8     H     0.41815  0.41815  0.00000  0.16370
       9     H     0.42447  0.42447  0.00000  0.15106
      10     C     3.15244  3.15244  0.00000 -0.30488
      11     H     0.40688  0.40688  0.00000  0.18623
      12     H     0.42591  0.42591  0.00000  0.14818
      13     C     3.23875  3.23875  0.00000 -0.47750
      14     H     0.42346  0.42346  0.00000  0.15308
      15     H     0.42553  0.42553  0.00000  0.14894
      16     H     0.42090  0.42090  0.00000  0.15819
      17     H     0.42071  0.42071  0.00000  0.15858
      18     H     0.42244  0.42244  0.00000  0.15512

   Total alpha = 25.00000, Total beta = 25.00000, Total charge = -0.00000
