  ==> Input File <==

--------------------------------------------------------------------------
set {
	reference rhf
	basis 6-31G*
}

set_num_threads( 1 )
memory 2 gb

molecule MOL {
0 1

H	 -2.332866	 -0.526655	 0.057417
O	 -1.422729	 -0.573567	 -0.196946
C	 -0.731407	 0.539437	 0.309156
C	 0.680193	 0.672443	 -0.251532
H	 -1.319765	 1.404033	 0.030086
H	 -0.700012	 0.506517	 1.397677
C	 1.599139	 -0.492137	 0.118598
H	 0.616402	 0.758534	 -1.332349
H	 1.107032	 1.602637	 0.117369
H	 1.239738	 -1.428634	 -0.297334
H	 2.601428	 -0.335055	 -0.265730
H	 1.674954	 -0.608418	 1.197020

	symmetry c1
}
set optking {
	frozen_dihedral = ("
		8 4 3 2
	")
}

ee = energy('scf')
oeprop('DIPOLE', 'QUADRUPOLE', 'MULLIKEN_CHARGES')
f=open( 'psi4out.xyz', 'w' )
f.write( "12  " )
f.write( str(ee) + "\n" )
f.write( MOL.save_string_xyz() )
f.close()
--------------------------------------------------------------------------

    Molecular point group: c1

    Geometry (in Angstrom), charge = 0, multiplicity = 1:

       Center              X                  Y                   Z               Mass
    ------------   -----------------  -----------------  -----------------  -----------------
           H         -2.311689171201    -0.540749210464     0.059485673758     1.007825032070
           O         -1.401552171201    -0.587661210464    -0.194877326242    15.994914619560
           C         -0.710230171201     0.525342789536     0.311224673758    12.000000000000
           C          0.701369828799     0.658348789536    -0.249463326242    12.000000000000
           H         -1.298588171201     1.389938789536     0.032154673758     1.007825032070
           H         -0.678835171201     0.492422789536     1.399745673758     1.007825032070
           C          1.620315828799    -0.506231210464     0.120666673758    12.000000000000
           H          0.637578828799     0.744439789536    -1.330280326242     1.007825032070
           H          1.128208828799     1.588542789536     0.119437673758     1.007825032070
           H          1.260914828799    -1.442728210464    -0.295265326242     1.007825032070
           H          2.622604828799    -0.349149210464    -0.263661326242     1.007825032070
           H          1.696130828799    -0.622512210464     1.199088673758     1.007825032070

  Charge       = 0
  Multiplicity = 1
  Basis Set: 6-31G*
  Basis Set:

    Orbital Energies (a.u.)
    -----------------------

    Doubly Occupied:

       1A    -20.550598     2A    -11.267889     3A    -11.218005
       4A    -11.204896     5A     -1.358455     6A     -1.046743
       7A     -0.918124     8A     -0.799860     9A     -0.701020
      10A     -0.643887    11A     -0.584498    12A     -0.582680
      13A     -0.537281    14A     -0.498693    15A     -0.483892
      16A     -0.462183    17A     -0.430106

  @DF-RHF Final Energy:  -193.10845489744713

   => Energetics <=

    Nuclear Repulsion Energy =            132.4288509040791268
    One-Electron Energy =                -524.4972034411259756
    Two-Electron Energy =                 198.9598976395995180
    DFT Exchange-Correlation Energy =       0.0000000000000000
    Empirical Dispersion Energy =           0.0000000000000000
    PCM Polarization Energy =               0.0000000000000000
    EFP Energy =                            0.0000000000000000
    Total Energy =                       -193.1084548974473307

  Mulliken Charges: (a.u.)
   Center  Symbol    Alpha    Beta     Spin     Total
       1     H     0.27998  0.27998  0.00000  0.44004
       2     O     4.37207  4.37207  0.00000 -0.74414
       3     C     2.99228  2.99228  0.00000  0.01545
       4     C     3.16048  3.16048  0.00000 -0.32095
       5     H     0.43165  0.43165  0.00000  0.13669
       6     H     0.43293  0.43293  0.00000  0.13414
       7     C     3.24190  3.24190  0.00000 -0.48380
       8     H     0.41493  0.41493  0.00000  0.17014
       9     H     0.42154  0.42154  0.00000  0.15691
      10     H     0.40796  0.40796  0.00000  0.18407
      11     H     0.42063  0.42063  0.00000  0.15874
      12     H     0.42364  0.42364  0.00000  0.15271

   Total alpha = 17.00000, Total beta = 17.00000, Total charge =  0.00000
