  ==> Input File <==

--------------------------------------------------------------------------
set {
	reference rhf
	basis 6-31G*
}

set_num_threads( 4 )
memory 2 gb

molecule MOL {
0 1

H	 -0.760147	 6.767318	 2.792478
C	 -1.668432	 6.174514	 2.746381
C	 -1.479392	 4.942035	 1.862959
H	 -1.929340	 5.889671	 3.761336
H	 -2.461527	 6.813275	 2.367193
C	 -2.744889	 4.086582	 1.770598
H	 -0.664770	 4.341748	 2.254941
H	 -1.185049	 5.257977	 0.863342
C	 -2.591552	 2.854849	 0.878080
H	 -3.041401	 3.767415	 2.763501
H	 -3.556718	 4.694468	 1.377597
C	 -1.704957	 1.764518	 1.461492
H	 -3.566832	 2.402108	 0.705962
H	 -2.218408	 3.131580	 -0.105465
C	 -1.181045	 0.701995	 0.511084
O	 -1.441574	 1.728520	 2.625854
C	 -2.285934	 -0.139295	 -0.145128
H	 -0.515724	 0.066051	 1.082606
H	 -0.592415	 1.190456	 -0.263258
C	 -3.651768	 0.085446	 0.506485
H	 -2.346596	 0.110469	 -1.202272
H	 -2.034737	 -1.195320	 -0.088721
C	 -4.759797	 -0.746382	 -0.137905
H	 -3.908762	 1.140117	 0.445781
H	 -3.588286	 -0.154158	 1.565709
H	 -4.868882	 -0.505166	 -1.191300
H	 -4.548009	 -1.809175	 -0.062213
H	 -5.715422	 -0.564821	 0.343442

	symmetry c1
}
set optking {
	frozen_dihedral = ("
		12 15 17 21
	")
}

ee = optimize('scf')
oeprop('DIPOLE', 'QUADRUPOLE', 'MULLIKEN_CHARGES')
f=open( 'psi4out.xyz', 'w' )
f.write( "28  " )
f.write( str(ee) + "\n" )
f.write( MOL.save_string_xyz() )
f.close()
--------------------------------------------------------------------------

    Molecular point group: c1
  Charge       = 0
  Multiplicity = 1
  Basis Set: 6-31G*
  Basis Set:
  @DF-RHF Final Energy:  -426.13720275068601
    Total Energy =                       -426.1372027506861286
    Molecular point group: c1
  Basis Set: 6-31G*
  Basis Set:
  Basis Set: 6-31G*
  Basis Set:
  @DF-RHF Final Energy:  -426.15341992373214
    Total Energy =                       -426.1534199237319172
  Basis Set: 6-31G*
  Basis Set:
  Basis Set: 6-31G*
  Basis Set:
  @DF-RHF Final Energy:  -426.15820484962228
    Total Energy =                       -426.1582048496221660
  Basis Set: 6-31G*
  Basis Set:
  Basis Set: 6-31G*
  Basis Set:
  @DF-RHF Final Energy:  -426.15751453239420
    Total Energy =                       -426.1575145323939751
  Basis Set: 6-31G*
  Basis Set:
  @DF-RHF Final Energy:  -426.16013926309984
    Total Energy =                       -426.1601392631005183
  @DF-RHF Final Energy:  -426.16092729574041
    Total Energy =                       -426.1609272957405210
  @DF-RHF Final Energy:  -426.16170273586249
    Total Energy =                       -426.1617027358626046
  @DF-RHF Final Energy:  -426.16189230745476
    Total Energy =                       -426.1618923074546501
  @DF-RHF Final Energy:  -426.16190743147638
    Total Energy =                       -426.1619074314766067
  @DF-RHF Final Energy:  -426.16194814531502
    Total Energy =                       -426.1619481453151366
  @DF-RHF Final Energy:  -426.16195767964246
    Total Energy =                       -426.1619576796423416
  Basis Set: 6-31G*
  Basis Set:
  @DF-RHF Final Energy:  -426.16196239122337
    Total Energy =                       -426.1619623912231418
  Basis Set: 6-31G*
  Basis Set:
  Basis Set: 6-31G*
  Basis Set:
  @DF-RHF Final Energy:  -426.16196755571650
    Total Energy =                       -426.1619675557165010
  Basis Set: 6-31G*
  Basis Set:
  Basis Set: 6-31G*
  Basis Set:
  @DF-RHF Final Energy:  -426.16196978466087
    Total Energy =                       -426.1619697846612098
  Basis Set: 6-31G*
  Basis Set:
  Charge       = 0
  Multiplicity = 1
  Basis Set: 6-31G*
  Basis Set:

    Orbital Energies (a.u.)
    -----------------------

    Doubly Occupied:

       1A    -20.548378     2A    -11.322862     3A    -11.230777
       4A    -11.230665     5A    -11.228745     6A    -11.220441
       7A    -11.216363     8A    -11.212753     9A    -11.209850
      10A    -11.204417    11A     -1.394095    12A     -1.089151
      13A     -1.075448    14A     -1.020125    15A     -0.989695
      16A     -0.908003    17A     -0.871618    18A     -0.812233
      19A     -0.794155    20A     -0.719830    21A     -0.664436
      22A     -0.649144    23A     -0.628448    24A     -0.615574
      25A     -0.607203    26A     -0.583448    27A     -0.577083
      28A     -0.571124    29A     -0.555302    30A     -0.530784
      31A     -0.515778    32A     -0.507913    33A     -0.495101
      34A     -0.486572    35A     -0.474931    36A     -0.467748
      37A     -0.464256    38A     -0.461674    39A     -0.455327
      40A     -0.392002

  @DF-RHF Final Energy:  -426.16197020438415

   => Energetics <=

    Nuclear Repulsion Energy =            543.5866819837013963
    One-Electron Energy =               -1655.4904067850006868
    Two-Electron Energy =                 685.7417545969157118
    DFT Exchange-Correlation Energy =       0.0000000000000000
    Empirical Dispersion Energy =           0.0000000000000000
    PCM Polarization Energy =               0.0000000000000000
    EFP Energy =                            0.0000000000000000
    Total Energy =                       -426.1619702043834650
    Molecular point group: c1
  Basis Set: 6-31G*
  Basis Set:

  -Total Gradient:
     Atom            X                  Y                   Z
    ------   -----------------  -----------------  -----------------
       1       -0.000000879281     0.000004496716    -0.000004957737
       2        0.000005933502     0.000003246849    -0.000010456752
       3       -0.000007153427     0.000002630177     0.000016036903
       4        0.000006568512    -0.000000512136     0.000005925560
       5       -0.000008056374    -0.000003957389     0.000004068871
       6       -0.000000773479     0.000002921592    -0.000011589020
       7        0.000000883488    -0.000011889630    -0.000003624553
       8        0.000003052196     0.000000513196     0.000005972214
       9       -0.000013290313    -0.000028580871     0.000029378586
      10        0.000008572675     0.000004993548    -0.000003630169
      11       -0.000004532377     0.000004202825    -0.000000787012
      12        0.000813712506    -0.001956956298     0.002626267108
      13        0.000009073047    -0.000000477412    -0.000004369148
      14        0.000000880297     0.000001045258    -0.000009112499
      15       -0.000431392985     0.002036124341    -0.004016418259
      16       -0.000016166869     0.000002863786     0.000004902760
      17       -0.003381554278     0.003109593577     0.002658455638
      18       -0.000003568324     0.000005544859    -0.000001862916
      19       -0.000000727327    -0.000000146426    -0.000002539667
      20        0.000004571651     0.000034481342     0.000005398948
      21        0.003014400638    -0.003180271768    -0.001278921465
      22       -0.000004561162    -0.000006858222     0.000000045996
      23        0.000001279373    -0.000010554736     0.000004121080
      24        0.000005860863    -0.000011237455     0.000000983924
      25        0.000000759190    -0.000000691193    -0.000013179531
      26        0.000002025671     0.000002578740     0.000002026133
      27       -0.000004244130    -0.000003865335    -0.000003371677
      28       -0.000000673281     0.000000762065     0.000001236685

  **** Optimization is complete! (in 15 steps) ****
    Final optimized geometry and variables:
    Molecular point group: c1

    Geometry (in Angstrom), charge = 0, multiplicity = 1:

    H            1.426210607081     4.366027817392     2.464137765217
    C            0.569112301145     3.906549777451     1.981630780352
    C            1.005186000827     2.816500750952     1.003532298460
    H           -0.068881956849     3.498856993204     2.760289340046
    H            0.013862006168     4.692037470912     1.475859452507
    C           -0.180213022619     2.158254151285     0.293434868679
    H            1.572725053477     2.060735425405     1.534354377221
    H            1.672348240953     3.248384528310     0.259103104722
    C            0.221170489215     1.067773970263    -0.699371848811
    H           -0.855914135289     1.736131590873     1.030286556262
    H           -0.738286019154     2.921797842853    -0.243933425823
    C            0.665918533379    -0.241787126960    -0.071647083288
    H           -0.606425220877     0.834269792821    -1.368076396452
    H            1.023185742438     1.414460846549    -1.349547239428
    C            1.038726796381    -1.369762834722    -1.022277964801
    O            0.713934612214    -0.400581599272     1.110896931241
    C           -0.130288849241    -2.335018245291    -1.379417404096
    H            1.819050497961    -1.927470430248    -0.519028694915
    H            1.463237853812    -0.961799758722    -1.933295755499
    C           -1.369992885709    -2.285820495815    -0.482236371260
    H           -0.413805416248    -2.185944801900    -2.417622716337
    H            0.267091339237    -3.345327159295    -1.346252370145
    C           -2.406115739397    -3.334104587390    -0.886327619778
    H           -1.828565354940    -1.300839546700    -0.525861918140
    H           -1.077090797724    -2.439171061488     0.550924852313
    H           -2.738857746703    -3.186431136469    -1.910010881793
    H           -1.997558234052    -4.337939428021    -0.813361283103
    H           -3.279674971856    -3.285636645834    -0.244186678755

  Mulliken Charges: (a.u.)
   Center  Symbol    Alpha    Beta     Spin     Total
       1     H     0.41941  0.41941  0.00000  0.16118
       2     C     3.24035  3.24035  0.00000 -0.48069
       3     C     3.15600  3.15600  0.00000 -0.31199
       4     H     0.41894  0.41894  0.00000  0.16212
       5     H     0.42425  0.42425  0.00000  0.15151
       6     C     3.14897  3.14897  0.00000 -0.29795
       7     H     0.40593  0.40593  0.00000  0.18814
       8     H     0.42824  0.42824  0.00000  0.14351
       9     C     3.21283  3.21283  0.00000 -0.42567
      10     H     0.41018  0.41018  0.00000  0.17964
      11     H     0.42211  0.42211  0.00000  0.15579
      12     C     2.73420  2.73420  0.00000  0.53160
      13     H     0.40700  0.40700  0.00000  0.18600
      14     H     0.40872  0.40872  0.00000  0.18256
      15     C     3.20062  3.20062  0.00000 -0.40124
      16     O     4.26806  4.26806  0.00000 -0.53612
      17     C     3.15734  3.15734  0.00000 -0.31469
      18     H     0.40007  0.40007  0.00000  0.19986
      19     H     0.41340  0.41340  0.00000  0.17321
      20     C     3.16329  3.16329  0.00000 -0.32658
      21     H     0.41858  0.41858  0.00000  0.16285
      22     H     0.41410  0.41410  0.00000  0.17180
      23     C     3.24032  3.24032  0.00000 -0.48065
      24     H     0.42335  0.42335  0.00000  0.15331
      25     H     0.40474  0.40474  0.00000  0.19051
      26     H     0.42233  0.42233  0.00000  0.15534
      27     H     0.42029  0.42029  0.00000  0.15943
      28     H     0.41639  0.41639  0.00000  0.16722

   Total alpha = 40.00000, Total beta = 40.00000, Total charge = -0.00000
