                              Psi4 1.0.54 Driver

  ==> Input File <==

--------------------------------------------------------------------------
set {
	reference rhf
	basis cc-pvtz
}

set_num_threads( 4 )
memory 2 gb

molecule MOL {
0 1

H	 -0.000342	 -0.223902	 -3.352295
C	 -0.027146	 0.371068	 -2.446756
C	 0.024493	 -0.518541	 -1.216015
H	 -0.932586	 0.964979	 -2.449855
H	 0.819708	 1.049865	 -2.473332
N	 -0.042516	 0.263377	 0.000000
H	 -0.822211	 -1.197105	 -1.225584
H	 0.921114	 -1.142847	 -1.255206
C	 0.024493	 -0.518541	 1.216015
H	 0.682568	 0.950412	 0.000000
C	 1.456791	 -0.905274	 1.544274
H	 -0.381205	 0.081886	 2.023694
H	 -0.592497	 -1.419373	 1.160803
H	 2.075286	 -0.022638	 1.649051
H	 1.500130	 -1.470002	 2.468348
H	 1.883562	 -1.523142	 0.760221

	symmetry c1
}
set optking {
	frozen_dihedral = ("
		12 9 6 3
	")
}

ee,wfn = optimize('scf', return_wfn=True)
oeprop( wfn, 'DIPOLE', 'QUADRUPOLE', 'MULLIKEN_CHARGES')
f=open( 'psi4out.xyz', 'w' )
f.write( "16  " )
f.write( str(ee) + "\n" )
f.write( MOL.save_string_xyz() )
f.close()
--------------------------------------------------------------------------

    Molecular point group: c1
  Charge       = 0
  Multiplicity = 1
  Basis Set: CC-PVTZ
  Basis Set:
  @DF-RHF Final Energy:  -212.38969537467000
    Total Energy =                       -212.3896953746699978
    Molecular point group: c1
  Basis Set: CC-PVTZ
  Basis Set:
  Basis Set: CC-PVTZ
  Basis Set:
  @DF-RHF Final Energy:  -212.39141619138562
    Total Energy =                       -212.3914161913855878
  Basis Set: CC-PVTZ
  Basis Set:
  Basis Set: CC-PVTZ
  Basis Set:
  @DF-RHF Final Energy:  -212.39175857070219
    Total Energy =                       -212.3917585707021090
  Basis Set: CC-PVTZ
  Basis Set:
  Basis Set: CC-PVTZ
  Basis Set:
  @DF-RHF Final Energy:  -212.39176994910335
    Total Energy =                       -212.3917699491032636
  Basis Set: CC-PVTZ
  Basis Set:
  Basis Set: CC-PVTZ
  Basis Set:
  @DF-RHF Final Energy:  -212.39177141426703
    Total Energy =                       -212.3917714142669411
  Basis Set: CC-PVTZ
  Basis Set:
  Charge       = 0
  Multiplicity = 1
  Basis Set: CC-PVTZ
  Basis Set:

    Orbital Energies (a.u.)
    -----------------------

    Doubly Occupied:

       1A    -15.526635     2A    -11.238926     3A    -11.238701
       4A    -11.206895     5A    -11.205743     6A     -1.204000
       7A     -1.025982     8A     -0.965492     9A     -0.845378
      10A     -0.814695    11A     -0.652494    12A     -0.627764
      13A     -0.617168    14A     -0.566758    15A     -0.558072
      16A     -0.530950    17A     -0.510400    18A     -0.490117
      19A     -0.486564    20A     -0.474490    21A     -0.355494

  @DF-RHF Final Energy:  -212.39177147741927

   => Energetics <=

    Nuclear Repulsion Energy =            190.9386677934329271
    One-Electron Energy =                -664.3754418502574026
    Two-Electron Energy =                 261.0450025794051498
    DFT Exchange-Correlation Energy =       0.0000000000000000
    Empirical Dispersion Energy =           0.0000000000000000
    PCM Polarization Energy =               0.0000000000000000
    EFP Energy =                            0.0000000000000000
    Total Energy =                       -212.3917714774192973
    Molecular point group: c1
  Basis Set: CC-PVTZ
  Basis Set:

  -Total Gradient:
     Atom            X                  Y                   Z
    ------   -----------------  -----------------  -----------------
       1       -0.000001134327    -0.000001326035     0.000000423767
       2        0.000004069350     0.000000448638     0.000008623213
       3       -0.001184762105    -0.000077008419    -0.000022109115
       4       -0.000001001876    -0.000001071699     0.000000516078
       5        0.000000028228    -0.000000635132    -0.000000452219
       6        0.001391105134    -0.000010249126    -0.000046457622
       7       -0.000001005836     0.000002815886     0.000000205818
       8       -0.000002468905     0.000002690511    -0.000000435926
       9        0.001200956409     0.000607298365     0.000335110325
      10        0.000000593138     0.000003387554    -0.000006884732
      11       -0.000027435597     0.000005956873    -0.000007259829
      12       -0.001385837277    -0.000520794959    -0.000276478852
      13       -0.000005492589    -0.000007621684     0.000010123580
      14        0.000003947016     0.000000747315     0.000001661035
      15        0.000003542177    -0.000002449044     0.000001795611
      16        0.000004897059    -0.000002189047     0.000001618869

  **** Optimization is complete! (in 6 steps) ****
    Final optimized geometry and variables:
    Molecular point group: c1

    Geometry (in Angstrom), charge = 0, multiplicity = 1:

    H           -0.329284992833     0.105415134108    -3.195388114965
    C           -0.339797356370     0.683094643289    -2.278272857371
    C           -0.252534264738    -0.229277048668    -1.065853350459
    H           -1.249210071536     1.270100385704    -2.248282073552
    H            0.501461541038     1.368543096444    -2.311410993461
    N           -0.307235644199     0.537217175134     0.161376824533
    H           -1.095868969007    -0.911744461423    -1.068706703915
    H            0.645293009689    -0.844735246370    -1.147864956629
    C           -0.273679759333    -0.223948263841     1.394290185277
    H            0.396749199971     1.244715187406     0.165283216136
    C            1.093848514950    -0.763355699946     1.809001230197
    H           -0.669564825146     0.400140642523     2.188347994580
    H           -0.970756853818    -1.048673573457     1.290468976191
    H            1.801734345511     0.047671594424     1.949652051819
    H            1.022638908120    -1.305229902098     2.746098342024
    H            1.502830635034    -1.438355655998     1.066471881797

  Mulliken Charges: (a.u.)
   Center  Symbol    Alpha    Beta     Spin     Total
       1     H     0.45442  0.45442  0.00000  0.09117
       2     C     3.14161  3.14161  0.00000 -0.28322
       3     C     3.02030  3.02030  0.00000 -0.04059
       4     H     0.44948  0.44948  0.00000  0.10104
       5     H     0.45933  0.45933  0.00000  0.08133
       6     N     3.63872  3.63872  0.00000 -0.27743
       7     H     0.45874  0.45874  0.00000  0.08253
       8     H     0.47467  0.47467  0.00000  0.05067
       9     C     3.03911  3.03911  0.00000 -0.07822
      10     H     0.44617  0.44617  0.00000  0.10766
      11     C     3.14663  3.14663  0.00000 -0.29326
      12     H     0.44915  0.44915  0.00000  0.10170
      13     H     0.45802  0.45802  0.00000  0.08395
      14     H     0.45862  0.45862  0.00000  0.08276
      15     H     0.45135  0.45135  0.00000  0.09730
      16     H     0.45369  0.45369  0.00000  0.09262

   Total alpha = 21.00000, Total beta = 21.00000, Total charge =  0.00000

*** Psi4 exiting successfully. Buy a developer a beer!
