  ==> Input File <==

--------------------------------------------------------------------------
set {
	reference rhf
	basis 6-31G*
}

set_num_threads( 4 )
memory 2 gb

molecule MOL {
0 1

H	 2.236344	 0.059779	 0.646884
O	 1.473690	 -0.509435	 0.679815
C	 0.489431	 0.077273	 0.000046
C	 -0.764129	 -0.759190	 0.000191
O	 0.625260	 1.132714	 -0.527363
C	 -2.038368	 0.075731	 -0.000248
H	 -0.717284	 -1.412404	 -0.866059
H	 -0.717458	 -1.411724	 0.866967
H	 -2.086483	 0.712501	 -0.875098
H	 -2.908485	 -0.571682	 -0.000042
H	 -2.086576	 0.713280	 0.874068

	symmetry c1
}
set optking {
	frozen_dihedral = ("
		2 3 4 7
	")
}

ee = optimize('scf')
oeprop('DIPOLE', 'QUADRUPOLE', 'MULLIKEN_CHARGES')
f=open( 'psi4out.xyz', 'w' )
f.write( "11  " )
f.write( str(ee) + "\n" )
f.write( MOL.save_string_xyz() )
f.close()
--------------------------------------------------------------------------

    Molecular point group: c1
  Charge       = 0
  Multiplicity = 1
  Basis Set: 6-31G*
  Basis Set:
  @DF-RHF Final Energy:  -266.84495744843736
    Total Energy =                       -266.8449574484371851
    Molecular point group: c1
  Basis Set: 6-31G*
  Basis Set:
  Basis Set: 6-31G*
  Basis Set:
  @DF-RHF Final Energy:  -266.84518712221632
    Total Energy =                       -266.8451871222163163
  Basis Set: 6-31G*
  Basis Set:
  Basis Set: 6-31G*
  Basis Set:
  @DF-RHF Final Energy:  -266.84522020769589
    Total Energy =                       -266.8452202076957747
  Basis Set: 6-31G*
  Basis Set:
  Basis Set: 6-31G*
  Basis Set:
  @DF-RHF Final Energy:  -266.84528033111371
    Total Energy =                       -266.8452803311139974
  Basis Set: 6-31G*
  Basis Set:
  Basis Set: 6-31G*
  Basis Set:
  @DF-RHF Final Energy:  -266.84529840498692
    Total Energy =                       -266.8452984049869201
  Basis Set: 6-31G*
  Basis Set:
  Basis Set: 6-31G*
  Basis Set:
  @DF-RHF Final Energy:  -266.84529948154898
    Total Energy =                       -266.8452994815490342
  Basis Set: 6-31G*
  Basis Set:
  Charge       = 0
  Multiplicity = 1
  Basis Set: 6-31G*
  Basis Set:

    Orbital Energies (a.u.)
    -----------------------

    Doubly Occupied:

       1A    -20.615204     2A    -20.551325     3A    -11.382289
       4A    -11.243802     5A    -11.222473     6A     -1.476301
       7A     -1.366604     8A     -1.065194     9A     -0.916167
      10A     -0.804560    11A     -0.702668    12A     -0.690231
      13A     -0.657094    14A     -0.601176    15A     -0.593489
      16A     -0.532815    17A     -0.525604    18A     -0.507670
      19A     -0.477524    20A     -0.444840

  @DF-RHF Final Energy:  -266.84529960232476

   => Energetics <=

    Nuclear Repulsion Energy =            179.7316283549888567
    One-Electron Energy =                -720.3997985344260542
    Two-Electron Energy =                 273.8228705771126670
    DFT Exchange-Correlation Energy =       0.0000000000000000
    Empirical Dispersion Energy =           0.0000000000000000
    PCM Polarization Energy =               0.0000000000000000
    EFP Energy =                            0.0000000000000000
    Total Energy =                       -266.8452996023245305
    Molecular point group: c1
  Basis Set: 6-31G*
  Basis Set:

  -Total Gradient:
     Atom            X                  Y                   Z
    ------   -----------------  -----------------  -----------------
       1       -0.000002716977     0.000003494733     0.000004395041
       2       -0.000291156497     0.000451303387     0.000893399857
       3        0.000266704575    -0.000420860493    -0.001339176529
       4        0.000608441699    -0.000883756116     0.001100969507
       5        0.000002210840    -0.000011947983     0.000002004599
       6        0.000006819624    -0.000001768700    -0.000006117314
       7       -0.000594836295     0.000871963222    -0.000657062813
       8        0.000000591401    -0.000006013424     0.000004584118
       9       -0.000002148957     0.000003113787    -0.000000663374
      10        0.000000894985    -0.000001645198    -0.000000796291
      11        0.000005195602    -0.000003883213    -0.000001536802

  **** Optimization is complete! (in 7 steps) ****
    Final optimized geometry and variables:
    Molecular point group: c1

    Geometry (in Angstrom), charge = 0, multiplicity = 1:

    H            2.265373965581     0.052958589198     0.543549026078
    O            1.503168746022    -0.513425486200     0.617640071381
    C            0.494361268311     0.065129763728    -0.029754277970
    C           -0.756602863449    -0.777631301944    -0.015437055415
    O            0.606868641270     1.121410054867    -0.562318614815
    C           -2.027889816578     0.066784335898    -0.054165327909
    H           -0.707970136585    -1.411850800767    -0.897467903003
    H           -0.732360230257    -1.431663740086     0.846822681085
    H           -2.032086254815     0.715580219881    -0.920159645751
    H           -2.901067870016    -0.574741636059    -0.097914901788
    H           -2.111511644184     0.689005165678     0.830201826490

  Mulliken Charges: (a.u.)
   Center  Symbol    Alpha    Beta     Spin     Total
       1     H     0.26800  0.26800  0.00000  0.46401
       2     O     4.34955  4.34955  0.00000 -0.69911
       3     C     2.62327  2.62327  0.00000  0.75347
       4     C     3.20935  3.20935  0.00000 -0.41869
       5     O     4.27928  4.27928  0.00000 -0.55856
       6     C     3.24332  3.24332  0.00000 -0.48665
       7     H     0.39744  0.39744  0.00000  0.20511
       8     H     0.39824  0.39824  0.00000  0.20352
       9     H     0.40255  0.40255  0.00000  0.19490
      10     H     0.41534  0.41534  0.00000  0.16933
      11     H     0.41367  0.41367  0.00000  0.17266

   Total alpha = 20.00000, Total beta = 20.00000, Total charge = -0.00000
