  ==> Input File <==

--------------------------------------------------------------------------
set {
	reference rhf
	basis 6-31G*
}

set_num_threads( 4 )
memory 2 gb

molecule MOL {
0 1

H	 -2.773120	 0.418953	 0.243009
C	 -2.410380	 0.313149	 -0.772161
C	 -1.147441	 -0.538835	 -0.815371
H	 -2.221262	 1.307867	 -1.156937
H	 -3.193251	 -0.142094	 -1.369777
C	 -0.000005	 0.033229	 -0.000001
H	 -0.800983	 -0.663650	 -1.839472
H	 -1.348001	 -1.544830	 -0.451853
C	 1.290528	 -0.768786	 0.000276
O	 -0.106395	 1.055245	 0.606092
C	 2.545731	 0.095645	 -0.000061
H	 1.275672	 -1.427874	 -0.865626
H	 1.275566	 -1.427086	 0.866768
H	 2.577157	 0.734767	 -0.874036
H	 3.433520	 -0.528139	 0.000137
H	 2.577172	 0.735117	 0.873581

	symmetry c1
}
set optking {
	frozen_dihedral = ("
		3 6 9 12
	")
}

ee = optimize('scf')
oeprop('DIPOLE', 'QUADRUPOLE', 'MULLIKEN_CHARGES')
f=open( 'psi4out.xyz', 'w' )
f.write( "16  " )
f.write( str(ee) + "\n" )
f.write( MOL.save_string_xyz() )
f.close()
--------------------------------------------------------------------------

    Molecular point group: c1
  Charge       = 0
  Multiplicity = 1
  Basis Set: 6-31G*
  Basis Set:
  @DF-RHF Final Energy:  -270.03197858514272
    Total Energy =                       -270.0319785851427241
    Molecular point group: c1
  Basis Set: 6-31G*
  Basis Set:
  Basis Set: 6-31G*
  Basis Set:
  @DF-RHF Final Energy:  -270.03236466210086
    Total Energy =                       -270.0323646621009175
  Basis Set: 6-31G*
  Basis Set:
  Basis Set: 6-31G*
  Basis Set:
  @DF-RHF Final Energy:  -270.03232633841856
    Total Energy =                       -270.0323263384186134
  Basis Set: 6-31G*
  Basis Set:
  Basis Set: 6-31G*
  Basis Set:
  @DF-RHF Final Energy:  -270.03241923496734
    Total Energy =                       -270.0324192349672785
  Basis Set: 6-31G*
  Basis Set:
  Basis Set: 6-31G*
  Basis Set:
  @DF-RHF Final Energy:  -270.03242085724980
    Total Energy =                       -270.0324208572495763
  Basis Set: 6-31G*
  Basis Set:
  Charge       = 0
  Multiplicity = 1
  Basis Set: 6-31G*
  Basis Set:

    Orbital Energies (a.u.)
    -----------------------

    Doubly Occupied:

       1A    -20.549505     2A    -11.323912     3A    -11.234417
       4A    -11.233389     5A    -11.216831     6A    -11.213523
       7A     -1.395466     8A     -1.068371     9A     -1.036574
      10A     -0.915387    11A     -0.848136    12A     -0.724945
      13A     -0.666872    14A     -0.643274    15A     -0.621246
      16A     -0.604370    17A     -0.561948    18A     -0.532323
      19A     -0.525675    20A     -0.511316    21A     -0.502478
      22A     -0.495657    23A     -0.479135    24A     -0.397705

  @DF-RHF Final Energy:  -270.03242113251105

   => Energetics <=

    Nuclear Repulsion Energy =            239.9047397537566439
    One-Electron Energy =                -841.2694133527179474
    Two-Electron Energy =                 331.3322524664503135
    DFT Exchange-Correlation Energy =       0.0000000000000000
    Empirical Dispersion Energy =           0.0000000000000000
    PCM Polarization Energy =               0.0000000000000000
    EFP Energy =                            0.0000000000000000
    Total Energy =                       -270.0324211325109900
    Molecular point group: c1
  Basis Set: 6-31G*
  Basis Set:

  -Total Gradient:
     Atom            X                  Y                   Z
    ------   -----------------  -----------------  -----------------
       1        0.000002648441    -0.000000739706    -0.000001902544
       2       -0.000000983450    -0.000001592379    -0.000006846641
       3        0.000378276078     0.000520536027    -0.000892742044
       4       -0.000000658853    -0.000000154603     0.000000444858
       5       -0.000002015261     0.000001618205     0.000000891845
       6       -0.000701928708    -0.000993111812     0.001512608774
       7        0.000000273764    -0.000002570639    -0.000002327551
       8        0.000000390362    -0.000002463867    -0.000003555658
       9        0.001006952110     0.001446246502    -0.001462348975
      10       -0.000001979437     0.000017169349     0.000014514152
      11        0.000003179256     0.000018254246     0.000008804165
      12       -0.000678726105    -0.001002156761     0.000840270285
      13        0.000004957003     0.000011032797    -0.000004899487
      14       -0.000005225015    -0.000005370754     0.000000331875
      15       -0.000003355236    -0.000004517681    -0.000001681256
      16       -0.000001804950    -0.000002178927    -0.000001561798

  **** Optimization is complete! (in 6 steps) ****
    Final optimized geometry and variables:
    Molecular point group: c1

    Geometry (in Angstrom), charge = 0, multiplicity = 1:

    H           -2.803577189025     0.279797764597     0.483706106858
    C           -2.468038962335     0.236380252952    -0.545730127597
    C           -1.180770848836    -0.569279696736    -0.667096631053
    H           -2.321117776948     1.254259950024    -0.884672052975
    H           -3.254335128785    -0.214346123711    -1.142260884156
    C           -0.022656763702     0.003536207360     0.127186259841
    H           -0.858143685198    -0.629311293076    -1.705606259915
    H           -1.332353529134    -1.600190407455    -0.351744537865
    C            1.250886436953    -0.826873724599     0.174970560734
    O           -0.100049427771     1.051480389576     0.692858955150
    C            2.520302114211     0.020997380856     0.200965530309
    H            1.262877121290    -1.536695397094    -0.646669161982
    H            1.188947623827    -1.425738295496     1.082856369257
    H            2.622555570215     0.598983924849    -0.711721956003
    H            3.396925298681    -0.610513443372     0.298102642014
    H            2.498706230198     0.713099693636     1.032164120518

  Mulliken Charges: (a.u.)
   Center  Symbol    Alpha    Beta     Spin     Total
       1     H     0.41209  0.41209  0.00000  0.17581
       2     C     3.23541  3.23541  0.00000 -0.47082
       3     C     3.20807  3.20807  0.00000 -0.41614
       4     H     0.40882  0.40882  0.00000  0.18235
       5     H     0.41995  0.41995  0.00000  0.16009
       6     C     2.73281  2.73281  0.00000  0.53438
       7     H     0.40754  0.40754  0.00000  0.18492
       8     H     0.40982  0.40982  0.00000  0.18036
       9     C     3.20411  3.20411  0.00000 -0.40822
      10     O     4.26655  4.26655  0.00000 -0.53310
      11     C     3.23970  3.23970  0.00000 -0.47941
      12     H     0.41357  0.41357  0.00000  0.17286
      13     H     0.40391  0.40391  0.00000  0.19218
      14     H     0.41740  0.41740  0.00000  0.16519
      15     H     0.41799  0.41799  0.00000  0.16401
      16     H     0.40224  0.40224  0.00000  0.19552

   Total alpha = 24.00000, Total beta = 24.00000, Total charge = -0.00000
