  ==> Input File <==

--------------------------------------------------------------------------
set {
	reference rhf
	basis 6-31G*
}

set_num_threads( 1 )
memory 2 gb

molecule MOL {
0 1

H	 1.086811	 -0.386981	 -4.180088
O	 1.119568	 -1.167922	 -4.713126
C	 1.533245	 -2.258714	 -3.930120
C	 0.462556	 -2.740940	 -2.957592
H	 1.774012	 -3.048744	 -4.629806
H	 2.447708	 -2.015312	 -3.390406
C	 0.081127	 -1.711252	 -1.891234
H	 -0.419939	 -3.020509	 -3.527162
H	 0.827101	 -3.645233	 -2.473104
C	 -0.955592	 -2.244467	 -0.898402
H	 -0.306808	 -0.820534	 -2.377539
H	 0.974545	 -1.406974	 -1.345744
C	 -1.309753	 -1.282496	 0.241564
H	 -1.862350	 -2.513077	 -1.437369
H	 -0.576651	 -3.167501	 -0.464681
C	 -2.037799	 -0.007733	 -0.193645
H	 -1.936981	 -1.813677	 0.954480
H	 -0.402199	 -1.013661	 0.779999
C	 -3.489788	 0.042957	 0.286558
H	 -2.017067	 0.064384	 -1.280144
H	 -1.513726	 0.868678	 0.179924
C	 -4.216917	 1.317354	 -0.141063
H	 -4.025645	 -0.823308	 -0.095450
H	 -3.513059	 -0.038752	 1.371301
H	 -4.239342	 1.411634	 -1.223113
H	 -5.243387	 1.322503	 0.212445
H	 -3.726170	 2.201406	 0.256408

	symmetry c1
}
set optking {
	frozen_dihedral = ("
		14 10 7 4,
		14 10 13 16,
		10 7 4 8,
		8 4 3 2,
		20 16 19 22,
		4 3 2 1
	")
}

ee = energy('scf')
oeprop('DIPOLE', 'QUADRUPOLE', 'MULLIKEN_CHARGES')
f=open( 'psi4out.xyz', 'w' )
f.write( "27  " )
f.write( str(ee) + "\n" )
f.write( MOL.save_string_xyz() )
f.close()
--------------------------------------------------------------------------

    Molecular point group: c1

    Geometry (in Angstrom), charge = 0, multiplicity = 1:

       Center              X                  Y                   Z               Mass
    ------------   -----------------  -----------------  -----------------  -----------------
           H          2.040724187077     0.714096826697    -2.550707341263     1.007825032070
           O          2.073481187077    -0.066844173303    -3.083745341263    15.994914619560
           C          2.487158187077    -1.157636173303    -2.300739341263    12.000000000000
           C          1.416469187077    -1.639862173303    -1.328211341263    12.000000000000
           H          2.727925187077    -1.947666173303    -3.000425341263     1.007825032070
           H          3.401621187077    -0.914234173303    -1.761025341263     1.007825032070
           C          1.035040187077    -0.610174173303    -0.261853341263    12.000000000000
           H          0.533974187077    -1.919431173303    -1.897781341263     1.007825032070
           H          1.781014187077    -2.544155173303    -0.843723341263     1.007825032070
           C         -0.001678812923    -1.143389173303     0.730978658737    12.000000000000
           H          0.647105187077     0.280543826697    -0.748158341263     1.007825032070
           H          1.928458187077    -0.305896173303     0.283636658737     1.007825032070
           C         -0.355839812923    -0.181418173303     1.870944658737    12.000000000000
           H         -0.908436812923    -1.411999173303     0.192011658737     1.007825032070
           H          0.377262187077    -2.066423173303     1.164699658737     1.007825032070
           C         -1.083885812923     1.093344826697     1.435735658737    12.000000000000
           H         -0.983067812923    -0.712599173303     2.583860658737     1.007825032070
           H          0.551714187077     0.087416826697     2.409379658737     1.007825032070
           C         -2.535874812923     1.144034826697     1.915938658737    12.000000000000
           H         -1.063153812923     1.165461826697     0.349236658737     1.007825032070
           H         -0.559812812923     1.969755826697     1.809304658737     1.007825032070
           C         -3.263003812923     2.418431826697     1.488317658737    12.000000000000
           H         -3.071731812923     0.277769826697     1.533930658737     1.007825032070
           H         -2.559145812923     1.062325826697     3.000681658737     1.007825032070
           H         -3.285428812923     2.512711826697     0.406267658737     1.007825032070
           H         -4.289473812923     2.423580826697     1.841825658737     1.007825032070
           H         -2.772256812923     3.302483826697     1.885788658737     1.007825032070

  Charge       = 0
  Multiplicity = 1
  Basis Set: 6-31G*
  Basis Set:

    Orbital Energies (a.u.)
    -----------------------

    Doubly Occupied:

       1A    -20.552438     2A    -11.267201     3A    -11.220004
       4A    -11.217594     5A    -11.215927     6A    -11.215475
       7A    -11.214136     8A    -11.212792     9A    -11.208534
      10A     -1.359181    11A     -1.095718    12A     -1.061178
      13A     -1.010843    14A     -0.948450    15A     -0.887481
      16A     -0.822873    17A     -0.803785    18A     -0.773761
      19A     -0.693735    20A     -0.655508    21A     -0.628767
      22A     -0.613738    23A     -0.605277    24A     -0.588540
      25A     -0.576644    26A     -0.558123    27A     -0.536208
      28A     -0.529670    29A     -0.506876    30A     -0.492519
      31A     -0.485391    32A     -0.480340    33A     -0.468097
      34A     -0.453337    35A     -0.449514    36A     -0.443414
      37A     -0.423200

  @DF-RHF Final Energy:  -388.27637816706147

   => Energetics <=

    Nuclear Repulsion Energy =            461.7094163001296465
    One-Electron Energy =               -1441.4190205084644276
    Two-Electron Energy =                 591.4332260412744517
    DFT Exchange-Correlation Energy =       0.0000000000000000
    Empirical Dispersion Energy =           0.0000000000000000
    PCM Polarization Energy =               0.0000000000000000
    EFP Energy =                            0.0000000000000000
    Total Energy =                       -388.2763781670603294

  Mulliken Charges: (a.u.)
   Center  Symbol    Alpha    Beta     Spin     Total
       1     H     0.27976  0.27976  0.00000  0.44048
       2     O     4.37100  4.37100  0.00000 -0.74200
       3     C     2.99739  2.99739  0.00000  0.00523
       4     C     3.16093  3.16093  0.00000 -0.32187
       5     H     0.41441  0.41441  0.00000  0.17119
       6     H     0.43194  0.43194  0.00000  0.13612
       7     C     3.16267  3.16267  0.00000 -0.32533
       8     H     0.41511  0.41511  0.00000  0.16978
       9     H     0.42413  0.42413  0.00000  0.15174
      10     C     3.15373  3.15373  0.00000 -0.30747
      11     H     0.42334  0.42334  0.00000  0.15331
      12     H     0.42524  0.42524  0.00000  0.14952
      13     C     3.15735  3.15735  0.00000 -0.31470
      14     H     0.42191  0.42191  0.00000  0.15619
      15     H     0.42179  0.42179  0.00000  0.15642
      16     C     3.15439  3.15439  0.00000 -0.30879
      17     H     0.41844  0.41844  0.00000  0.16312
      18     H     0.42196  0.42196  0.00000  0.15609
      19     C     3.15358  3.15358  0.00000 -0.30716
      20     H     0.42137  0.42137  0.00000  0.15725
      21     H     0.42150  0.42150  0.00000  0.15701
      22     C     3.23990  3.23990  0.00000 -0.47979
      23     H     0.42274  0.42274  0.00000  0.15453
      24     H     0.42250  0.42250  0.00000  0.15500
      25     H     0.42158  0.42158  0.00000  0.15684
      26     H     0.41933  0.41933  0.00000  0.16133
      27     H     0.42202  0.42202  0.00000  0.15596

   Total alpha = 37.00000, Total beta = 37.00000, Total charge = -0.00000
