  ==> Input File <==

--------------------------------------------------------------------------
set {
	reference rhf
	basis 6-31G*
}

set_num_threads( 1 )
memory 2 gb

molecule MOL {
0 1

H	 1.971324	 -0.889203	 1.188305
C	 1.951159	 -0.223429	 0.317018
C	 0.692068	 0.589600	 0.160137
O	 2.880155	 -0.180379	 -0.422741
C	 -0.558097	 -0.297372	 0.091132
H	 0.791645	 1.202255	 -0.728243
H	 0.616171	 1.253469	 1.020572
C	 -1.850991	 0.512573	 -0.019058
H	 -0.476753	 -0.965681	 -0.762987
H	 -0.604799	 -0.930658	 0.975228
C	 -3.096943	 -0.368295	 -0.099594
H	 -1.800724	 1.150330	 -0.898172
H	 -1.931651	 1.177355	 0.838044
H	 -3.060452	 -1.020287	 -0.967456
H	 -3.996858	 0.233488	 -0.175704
H	 -3.191959	 -0.995686	 0.782074

	symmetry c1
}
set optking {
	frozen_dihedral = ("
		9 5 8 12,
		6 3 5 9
	")
}

ee = energy('scf')
oeprop('DIPOLE', 'QUADRUPOLE', 'MULLIKEN_CHARGES')
f=open( 'psi4out.xyz', 'w' )
f.write( "16  " )
f.write( str(ee) + "\n" )
f.write( MOL.save_string_xyz() )
f.close()
--------------------------------------------------------------------------

    Molecular point group: c1

    Geometry (in Angstrom), charge = 0, multiplicity = 1:

       Center              X                  Y                   Z               Mass
    ------------   -----------------  -----------------  -----------------  -----------------
           H          1.972036170824    -0.887911594796     1.189286425664     1.007825032070
           C          1.951871170824    -0.222137594796     0.317999425664    12.000000000000
           C          0.692780170824     0.590891405204     0.161118425664    12.000000000000
           O          2.880867170824    -0.179087594796    -0.421759574336    15.994914619560
           C         -0.557384829176    -0.296080594796     0.092113425664    12.000000000000
           H          0.792357170824     1.203546405204    -0.727261574336     1.007825032070
           H          0.616883170824     1.254760405204     1.021553425664     1.007825032070
           C         -1.850278829176     0.513864405204    -0.018076574336    12.000000000000
           H         -0.476040829176    -0.964389594796    -0.762005574336     1.007825032070
           H         -0.604086829176    -0.929366594796     0.976209425664     1.007825032070
           C         -3.096230829176    -0.367003594796    -0.098612574336    12.000000000000
           H         -1.800011829176     1.151621405204    -0.897190574336     1.007825032070
           H         -1.930938829176     1.178646405204     0.839025425664     1.007825032070
           H         -3.059739829176    -1.018995594796    -0.966474574336     1.007825032070
           H         -3.996145829176     0.234779405204    -0.174722574336     1.007825032070
           H         -3.191246829176    -0.994394594796     0.783055425664     1.007825032070

  Charge       = 0
  Multiplicity = 1
  Basis Set: 6-31G*
  Basis Set:

    Orbital Energies (a.u.)
    -----------------------

    Doubly Occupied:

       1A    -20.562514     2A    -11.326575     3A    -11.236676
       4A    -11.235284     5A    -11.229398     6A    -11.218514
       7A     -1.402299     8A     -1.096558     9A     -1.018922
      10A     -0.906027    11A     -0.812167    12A     -0.793515
      13A     -0.678119    14A     -0.647323    15A     -0.630311
      16A     -0.602929    17A     -0.581918    18A     -0.550479
      19A     -0.527679    20A     -0.509033    21A     -0.487894
      22A     -0.482016    23A     -0.478525    24A     -0.409034

  @DF-RHF Final Energy:  -270.01992609473780

   => Energetics <=

    Nuclear Repulsion Energy =            228.8365171309525579
    One-Electron Energy =                -818.8654270155177528
    Two-Electron Energy =                 320.0089837898276528
    DFT Exchange-Correlation Energy =       0.0000000000000000
    Empirical Dispersion Energy =           0.0000000000000000
    PCM Polarization Energy =               0.0000000000000000
    EFP Energy =                            0.0000000000000000
    Total Energy =                       -270.0199260947375706

  Mulliken Charges: (a.u.)
   Center  Symbol    Alpha    Beta     Spin     Total
       1     H     0.43207  0.43207  0.00000  0.13586
       2     C     2.82986  2.82986  0.00000  0.34029
       3     C     3.20795  3.20795  0.00000 -0.41590
       4     O     4.23707  4.23707  0.00000 -0.47414
       5     C     3.16431  3.16431  0.00000 -0.32862
       6     H     0.39931  0.39931  0.00000  0.20138
       7     H     0.40992  0.40992  0.00000  0.18016
       8     C     3.15154  3.15154  0.00000 -0.30308
       9     H     0.41277  0.41277  0.00000  0.17446
      10     H     0.41932  0.41932  0.00000  0.16137
      11     C     3.24049  3.24049  0.00000 -0.48098
      12     H     0.41832  0.41832  0.00000  0.16337
      13     H     0.42089  0.42089  0.00000  0.15822
      14     H     0.41925  0.41925  0.00000  0.16150
      15     H     0.41639  0.41639  0.00000  0.16722
      16     H     0.42056  0.42056  0.00000  0.15889

   Total alpha = 24.00000, Total beta = 24.00000, Total charge = -0.00000
