  ==> Input File <==

--------------------------------------------------------------------------
set {
	reference rhf
	basis 6-31G*
}

set_num_threads( 4 )
memory 2 gb

molecule MOL {
0 1

H	 3.184141	 1.365320	 -1.294101
N	 2.422274	 0.715155	 -1.313848
C	 1.865559	 0.531981	 0.018834
H	 2.789062	 -0.149924	 -1.663041
C	 0.645745	 -0.382037	 -0.029944
H	 1.567403	 1.508352	 0.388512
H	 2.588634	 0.133568	 0.734954
C	 -0.679275	 0.379305	 0.025956
H	 0.698998	 -0.976915	 -0.937203
H	 0.693479	 -1.083846	 0.802235
C	 -1.903357	 -0.536963	 -0.023547
H	 -0.726309	 1.082987	 -0.803784
H	 -0.717680	 0.977832	 0.934877
C	 -3.225172	 0.228290	 0.028445
H	 -1.867824	 -1.134999	 -0.931459
H	 -1.860449	 -1.239604	 0.805977
H	 -3.313397	 0.915643	 -0.808262
H	 -4.073500	 -0.448134	 -0.008893
H	 -3.306061	 0.809945	 0.942516

	symmetry c1
}
set optking {
	frozen_dihedral = ("
		6 3 5 9
	")
}

ee = optimize('scf')
oeprop('DIPOLE', 'QUADRUPOLE', 'MULLIKEN_CHARGES')
f=open( 'psi4out.xyz', 'w' )
f.write( "19  " )
f.write( str(ee) + "\n" )
f.write( MOL.save_string_xyz() )
f.close()
--------------------------------------------------------------------------

    Molecular point group: c1
  Charge       = 0
  Multiplicity = 1
  Basis Set: 6-31G*
  Basis Set:
  @DF-RHF Final Energy:  -251.34690797166238
    Total Energy =                       -251.3469079716625174
    Molecular point group: c1
  Basis Set: 6-31G*
  Basis Set:
  Basis Set: 6-31G*
  Basis Set:
  @DF-RHF Final Energy:  -251.34744841425680
    Total Energy =                       -251.3474484142567462
  Basis Set: 6-31G*
  Basis Set:
  Basis Set: 6-31G*
  Basis Set:
  @DF-RHF Final Energy:  -251.34757672845510
    Total Energy =                       -251.3475767284551807
  Basis Set: 6-31G*
  Basis Set:
  Basis Set: 6-31G*
  Basis Set:
  @DF-RHF Final Energy:  -251.34757804421423
    Total Energy =                       -251.3475780442140604
  Basis Set: 6-31G*
  Basis Set:
  Basis Set: 6-31G*
  Basis Set:
  @DF-RHF Final Energy:  -251.34758029895374
    Total Energy =                       -251.3475802989537442
  Basis Set: 6-31G*
  Basis Set:
  Charge       = 0
  Multiplicity = 1
  Basis Set: 6-31G*
  Basis Set:

    Orbital Energies (a.u.)
    -----------------------

    Doubly Occupied:

       1A    -15.532925     2A    -11.240087     3A    -11.210232
       4A    -11.209409     5A    -11.206989     6A    -11.204489
       7A     -1.175904     8A     -1.068456     9A     -0.994660
      10A     -0.898539    11A     -0.812648    12A     -0.785677
      13A     -0.660140    14A     -0.644485    15A     -0.613629
      16A     -0.586786    17A     -0.555513    18A     -0.544844
      19A     -0.536364    20A     -0.486466    21A     -0.486092
      22A     -0.458997    23A     -0.457921    24A     -0.451116
      25A     -0.378997

  @DF-RHF Final Energy:  -251.34758072081146

   => Energetics <=

    Nuclear Repulsion Energy =            247.5418481269982465
    One-Electron Energy =                -829.3761238112665524
    Two-Electron Energy =                 330.4866949634567845
    DFT Exchange-Correlation Energy =       0.0000000000000000
    Empirical Dispersion Energy =           0.0000000000000000
    PCM Polarization Energy =               0.0000000000000000
    EFP Energy =                            0.0000000000000000
    Total Energy =                       -251.3475807208114929
    Molecular point group: c1
  Basis Set: 6-31G*
  Basis Set:

  -Total Gradient:
     Atom            X                  Y                   Z
    ------   -----------------  -----------------  -----------------
       1       -0.000001243745    -0.000002790019    -0.000010341611
       2        0.000027084747    -0.000013979550     0.000005181201
       3        0.000637093674    -0.000838340819     0.004503433213
       4        0.000001708039     0.000007701724     0.000001056393
       5        0.002590162522    -0.003385579359     0.001524674935
       6       -0.000974592670     0.001217142689    -0.004017139162
       7       -0.000010558269    -0.000012074240    -0.000011106009
       8       -0.000000185677     0.000023957422     0.000020511619
       9       -0.002271564745     0.002998930951    -0.002024443729
      10        0.000017239165     0.000012777634     0.000012742166
      11       -0.000005524185    -0.000003488798    -0.000004164074
      12        0.000009950509     0.000012326166     0.000007539632
      13       -0.000010410328    -0.000014017274    -0.000000950833
      14       -0.000004732692    -0.000003487562    -0.000005387677
      15       -0.000006296428    -0.000006863798     0.000000227439
      16        0.000003088749     0.000004888650    -0.000002729654
      17       -0.000000777730     0.000002847403     0.000000066469
      18       -0.000000076376     0.000001420522    -0.000001112392
      19       -0.000000364558    -0.000001371739     0.000001942073

  **** Optimization is complete! (in 6 steps) ****
    Final optimized geometry and variables:
    Molecular point group: c1

    Geometry (in Angstrom), charge = 0, multiplicity = 1:

    H            3.194173328411     1.248291719510    -1.143492368119
    N            2.465615116574     0.561025701813    -1.113573251546
    C            2.002112491533     0.357218336522     0.255424660702
    H            2.851740888066    -0.286606108932    -1.483979888973
    C            0.774537380807    -0.567590221993     0.268839675912
    H            1.721929067611     1.338068427401     0.625119637896
    H            2.779816630309    -0.031712175197     0.913652204880
    C           -0.548106372692     0.203638327342     0.286527066361
    H            0.790239698142    -1.173861427872    -0.633190755806
    H            0.815414914690    -1.242896325708     1.119454208387
    C           -1.777951194254    -0.699607091147     0.187580320787
    H           -0.548925464120     0.911305871407    -0.539373767555
    H           -0.609429546373     0.793410356134     1.200136856031
    C           -3.093681638507     0.077572087718     0.216639155499
    H           -1.723628105177    -1.281215312367    -0.730270721802
    H           -1.765736106501    -1.418185776894     1.004932313547
    H           -3.149957641094     0.782305994199    -0.608135436093
    H           -3.947343783203    -0.589098079243     0.141045079250
    H           -3.195602052276     0.641744771203     1.139553056592

  Mulliken Charges: (a.u.)
   Center  Symbol    Alpha    Beta     Spin     Total
       1     H     0.33302  0.33302  0.00000  0.33397
       2     N     3.92203  3.92203  0.00000 -0.84406
       3     C     3.06768  3.06768  0.00000 -0.13536
       4     H     0.33531  0.33531  0.00000  0.32938
       5     C     3.15132  3.15132  0.00000 -0.30264
       6     H     0.41851  0.41851  0.00000  0.16299
       7     H     0.43087  0.43087  0.00000  0.13827
       8     C     3.15476  3.15476  0.00000 -0.30951
       9     H     0.41992  0.41992  0.00000  0.16016
      10     H     0.42359  0.42359  0.00000  0.15281
      11     C     3.15188  3.15188  0.00000 -0.30376
      12     H     0.41392  0.41392  0.00000  0.17216
      13     H     0.42647  0.42647  0.00000  0.14707
      14     C     3.23903  3.23903  0.00000 -0.47806
      15     H     0.42273  0.42273  0.00000  0.15453
      16     H     0.42489  0.42489  0.00000  0.15022
      17     H     0.42108  0.42108  0.00000  0.15785
      18     H     0.42035  0.42035  0.00000  0.15929
      19     H     0.42265  0.42265  0.00000  0.15470

   Total alpha = 25.00000, Total beta = 25.00000, Total charge =  0.00000
