                              Psi4 1.0.54 Driver

  ==> Input File <==

--------------------------------------------------------------------------
set {
	reference rhf
	basis cc-pvtz
}

set_num_threads( 4 )
memory 2 gb

molecule MOL {
0 1

H	 3.721907	 -0.933076	 -0.066039
O	 2.824271	 -1.154299	 0.131461
C	 2.076458	 -0.067370	 -0.038225
C	 0.626018	 -0.337582	 0.258241
O	 2.538288	 0.965419	 -0.381593
C	 -0.267326	 0.883135	 0.076490
H	 0.325620	 -1.161483	 -0.378003
H	 0.574537	 -0.713685	 1.275261
C	 -1.726822	 0.642622	 0.463839
H	 -0.210803	 1.217591	 -0.953497
H	 0.129920	 1.693110	 0.675679
C	 -2.580322	 1.903546	 0.588942
H	 -1.740306	 0.120940	 1.416163
H	 -2.186215	 -0.032272	 -0.255134
C	 -3.994912	 1.610962	 1.078641
H	 -2.097423	 2.594066	 1.275254
H	 -2.638237	 2.413350	 -0.367458
H	 -4.577982	 2.520898	 1.160670
H	 -3.980800	 1.137489	 2.054511
H	 -4.514719	 0.945568	 0.397313

	symmetry c1
}
set optking {
	frozen_dihedral = ("
		12 9 6 10
	")
}

ee,wfn = optimize('scf', return_wfn=True)
oeprop( wfn, 'DIPOLE', 'QUADRUPOLE', 'MULLIKEN_CHARGES')
f=open( 'psi4out.xyz', 'w' )
f.write( "20  " )
f.write( str(ee) + "\n" )
f.write( MOL.save_string_xyz() )
f.close()
--------------------------------------------------------------------------

    Molecular point group: c1
  Charge       = 0
  Multiplicity = 1
  Basis Set: CC-PVTZ
  Basis Set:
  @DF-RHF Final Energy:  -384.09565344670210
    Total Energy =                       -384.0956534467019310
    Molecular point group: c1
  Basis Set: CC-PVTZ
  Basis Set:
  Basis Set: CC-PVTZ
  Basis Set:
  @DF-RHF Final Energy:  -384.09614975691017
    Total Energy =                       -384.0961497569101653
  Basis Set: CC-PVTZ
  Basis Set:
  Basis Set: CC-PVTZ
  Basis Set:
  @DF-RHF Final Energy:  -384.09628831151610
    Total Energy =                       -384.0962883115156501
  Basis Set: CC-PVTZ
  Basis Set:
  Basis Set: CC-PVTZ
  Basis Set:
  @DF-RHF Final Energy:  -384.09614107458128
    Total Energy =                       -384.0961410745813396
  Basis Set: CC-PVTZ
  Basis Set:
  Basis Set: CC-PVTZ
  Basis Set:
  @DF-RHF Final Energy:  -384.09629509298156
    Total Energy =                       -384.0962950929809949
  Basis Set: CC-PVTZ
  Basis Set:
  Basis Set: CC-PVTZ
  Basis Set:
  @DF-RHF Final Energy:  -384.09629621926518
    Total Energy =                       -384.0962962192650139
  Basis Set: CC-PVTZ
  Basis Set:
  Charge       = 0
  Multiplicity = 1
  Basis Set: CC-PVTZ
  Basis Set:

    Orbital Energies (a.u.)
    -----------------------

    Doubly Occupied:

       1A    -20.603937     2A    -20.540528     3A    -11.373408
       4A    -11.239069     5A    -11.220867     6A    -11.218367
       7A    -11.216482     8A    -11.209208     9A     -1.477495
      10A     -1.369009    11A     -1.097180    12A     -1.043866
      13A     -0.960647    14A     -0.869505    15A     -0.804898
      16A     -0.791159    17A     -0.703736    18A     -0.688651
      19A     -0.673023    20A     -0.640375    21A     -0.597494
      22A     -0.595506    23A     -0.570952    24A     -0.564596
      25A     -0.539038    26A     -0.510860    27A     -0.489292
      28A     -0.484477    29A     -0.473100    30A     -0.467579
      31A     -0.466359    32A     -0.444112

  @DF-RHF Final Energy:  -384.09629656798853

   => Energetics <=

    Nuclear Repulsion Energy =            372.2456302513709829
    One-Electron Energy =               -1260.7942944850383356
    Two-Electron Energy =                 504.4523676656790485
    DFT Exchange-Correlation Energy =       0.0000000000000000
    Empirical Dispersion Energy =           0.0000000000000000
    PCM Polarization Energy =               0.0000000000000000
    EFP Energy =                            0.0000000000000000
    Total Energy =                       -384.0962965679882473
    Molecular point group: c1
  Basis Set: CC-PVTZ
  Basis Set:

  -Total Gradient:
     Atom            X                  Y                   Z
    ------   -----------------  -----------------  -----------------
       1       -0.000008935374     0.000015701680    -0.000001141841
       2       -0.000027431350    -0.000029929088     0.000006783184
       3        0.000019561363     0.000017517046    -0.000009829568
       4        0.000013434027    -0.000018310881    -0.000026386389
       5       -0.000015205098     0.000008076789     0.000007555744
       6       -0.000113396080     0.002708564894     0.001543124569
       7        0.000005407199    -0.000005898546     0.000003925312
       8        0.000005062998     0.000001314183     0.000019316914
       9       -0.000487994779    -0.000674784855    -0.002407193242
      10        0.000219868128    -0.002141796726    -0.000720872706
      11        0.000003545894     0.000002361966    -0.000002741969
      12        0.000381195184     0.000104594725     0.001583303715
      13        0.000013968572    -0.000004768433    -0.000000628390
      14       -0.000008016641    -0.000005080285    -0.000000655800
      15        0.000010381974     0.000009593224     0.000005193723
      16       -0.000008551321     0.000003086381     0.000011473713
      17       -0.000006910808     0.000012020603    -0.000012350981
      18       -0.000001739385     0.000006901552     0.000000967011
      19        0.000002113432    -0.000007909451     0.000011904330
      20        0.000003642073    -0.000001254777    -0.000011747329

  **** Optimization is complete! (in 7 steps) ****
    Final optimized geometry and variables:
    Molecular point group: c1

    Geometry (in Angstrom), charge = 0, multiplicity = 1:

    H            3.693042880161    -1.542179389596    -0.470085605550
    O            2.804274481330    -1.734060405817    -0.211223228892
    C            2.077972516920    -0.628464852191    -0.350245519457
    C            0.643202906276    -0.850410888169     0.044766622278
    O            2.544606388652     0.385623696985    -0.740056725245
    C           -0.230992019885     0.388385031553    -0.097539738803
    H            0.268446951437    -1.669486696002    -0.560748315036
    H            0.646896228136    -1.216435666613     1.066257924972
    C           -1.685949660939     0.111129426392     0.273881991992
    H           -0.173115571991     0.734342054487    -1.123061786118
    H            0.169576721788     1.181942763888     0.522094897331
    C           -2.527073120510     1.378972433653     0.391870239463
    H           -1.722960210630    -0.420332296533     1.222473120450
    H           -2.128616335648    -0.554247813025    -0.463193906879
    C           -3.987171123682     1.099531998241     0.731154709355
    H           -2.095611398463     2.020974224722     1.154301992589
    H           -2.473582389048     1.935511239531    -0.539887735628
    H           -4.553191923625     2.019916288864     0.815882279625
    H           -4.075613245810     0.569194403732     1.673658350500
    H           -4.457775872860     0.491429338919    -0.034245793568

  Mulliken Charges: (a.u.)
   Center  Symbol    Alpha    Beta     Spin     Total
       1     H     0.38245  0.38245  0.00000  0.23510
       2     O     4.15974  4.15974  0.00000 -0.31948
       3     C     2.80479  2.80479  0.00000  0.39042
       4     C     3.11239  3.11239  0.00000 -0.22477
       5     O     4.19139  4.19139  0.00000 -0.38277
       6     C     3.08419  3.08419  0.00000 -0.16838
       7     H     0.43795  0.43795  0.00000  0.12411
       8     H     0.43815  0.43815  0.00000  0.12370
       9     C     3.08882  3.08882  0.00000 -0.17764
      10     H     0.44522  0.44522  0.00000  0.10957
      11     H     0.44614  0.44614  0.00000  0.10773
      12     C     3.08415  3.08415  0.00000 -0.16830
      13     H     0.45672  0.45672  0.00000  0.08657
      14     H     0.45376  0.45376  0.00000  0.09248
      15     C     3.15028  3.15028  0.00000 -0.30055
      16     H     0.45316  0.45316  0.00000  0.09368
      17     H     0.45287  0.45287  0.00000  0.09425
      18     H     0.44753  0.44753  0.00000  0.10495
      19     H     0.45533  0.45533  0.00000  0.08934
      20     H     0.45500  0.45500  0.00000  0.09000

   Total alpha = 32.00000, Total beta = 32.00000, Total charge =  0.00000

*** Psi4 exiting successfully. Buy a developer a beer!
