                              Psi4 1.0.54 Driver

  ==> Input File <==

--------------------------------------------------------------------------
set {
	reference rhf
	basis cc-pvtz
}

set_num_threads( 4 )
memory 2 gb

molecule MOL {
0 1

H	 -2.761059	 0.853449	 -1.288748
O	 -3.458596	 0.315260	 -0.960865
C	 -3.176635	 -0.080824	 0.355601
C	 -1.763371	 0.265266	 0.799691
H	 -3.321825	 -1.153438	 0.379502
H	 -3.895468	 0.357385	 1.043382
C	 -0.673390	 -0.426948	 -0.013392
H	 -1.631049	 1.344913	 0.747560
H	 -1.664587	 -0.001624	 1.849167
C	 0.737842	 -0.043159	 0.423759
H	 -0.806103	 -0.190518	 -1.063345
H	 -0.797221	 -1.503753	 0.074146
C	 1.824000	 -0.743224	 -0.390623
H	 0.850588	 1.033777	 0.343840
H	 0.868587	 -0.286314	 1.476203
C	 3.255957	 -0.453067	 0.062319
H	 1.718250	 -0.470599	 -1.438164
H	 1.658105	 -1.815850	 -0.339904
C	 3.707029	 0.992337	 -0.133857
H	 3.928201	 -1.104096	 -0.488158
H	 3.362667	 -0.724561	 1.109374
H	 3.605811	 1.294044	 -1.171549
H	 4.748333	 1.111029	 0.143343
H	 3.129882	 1.683078	 0.468956

	symmetry c1
}
set optking {
	frozen_dihedral = ("
		1 2 3 5
	")
}

ee,wfn = optimize('scf', return_wfn=True)
oeprop( wfn, 'DIPOLE', 'QUADRUPOLE', 'MULLIKEN_CHARGES')
f=open( 'psi4out.xyz', 'w' )
f.write( "24  " )
f.write( str(ee) + "\n" )
f.write( MOL.save_string_xyz() )
f.close()
--------------------------------------------------------------------------

    Molecular point group: c1
  Charge       = 0
  Multiplicity = 1
  Basis Set: CC-PVTZ
  Basis Set:
  @DF-RHF Final Energy:  -349.37739774374597
    Total Energy =                       -349.3773977437459166
    Molecular point group: c1
  Basis Set: CC-PVTZ
  Basis Set:
  Basis Set: CC-PVTZ
  Basis Set:
  @DF-RHF Final Energy:  -349.37746661300639
    Total Energy =                       -349.3774666130063906
  Basis Set: CC-PVTZ
  Basis Set:
  Basis Set: CC-PVTZ
  Basis Set:
  @DF-RHF Final Energy:  -349.37780589366861
    Total Energy =                       -349.3778058936687785
  Basis Set: CC-PVTZ
  Basis Set:
  Basis Set: CC-PVTZ
  Basis Set:
  @DF-RHF Final Energy:  -349.37781034330345
    Total Energy =                       -349.3778103433036790
  Basis Set: CC-PVTZ
  Basis Set:
  Basis Set: CC-PVTZ
  Basis Set:
  @DF-RHF Final Energy:  -349.37781301583993
    Total Energy =                       -349.3778130158397062
  Basis Set: CC-PVTZ
  Basis Set:
  Charge       = 0
  Multiplicity = 1
  Basis Set: CC-PVTZ
  Basis Set:

    Orbital Energies (a.u.)
    -----------------------

    Doubly Occupied:

       1A    -20.542558     2A    -11.264446     3A    -11.221589
       4A    -11.218816     5A    -11.215957     6A    -11.215697
       7A    -11.214282     8A    -11.208379     9A     -1.360951
      10A     -1.095508    11A     -1.053573    12A     -0.990198
      13A     -0.920430    14A     -0.856539    15A     -0.806047
      16A     -0.781676    17A     -0.664107    18A     -0.660420
      19A     -0.638218    20A     -0.626290    21A     -0.607092
      22A     -0.589974    23A     -0.561322    24A     -0.541257
      25A     -0.525025    26A     -0.514763    27A     -0.497875
      28A     -0.478551    29A     -0.477396    30A     -0.464704
      31A     -0.457533    32A     -0.446394    33A     -0.427474

  @DF-RHF Final Energy:  -349.37781334476307

   => Energetics <=

    Nuclear Repulsion Energy =            385.0096775202740105
    One-Electron Energy =               -1236.4848988093781372
    Two-Electron Energy =                 502.0974079443408868
    DFT Exchange-Correlation Energy =       0.0000000000000000
    Empirical Dispersion Energy =           0.0000000000000000
    PCM Polarization Energy =               0.0000000000000000
    EFP Energy =                            0.0000000000000000
    Total Energy =                       -349.3778133447632968
    Molecular point group: c1
  Basis Set: CC-PVTZ
  Basis Set:

  -Total Gradient:
     Atom            X                  Y                   Z
    ------   -----------------  -----------------  -----------------
       1        0.000579331830    -0.001034242548    -0.000542992736
       2       -0.000424577962     0.001138177288     0.000615870489
       3       -0.001167200448     0.000021505336     0.000339323048
       4       -0.000012384834     0.000052731819    -0.000051507881
       5        0.000979483488    -0.000123603734    -0.000452120515
       6        0.000023282612    -0.000056337158     0.000058661295
       7       -0.000033747716     0.000031747711     0.000009867361
       8        0.000037838411     0.000022350362     0.000001328220
       9       -0.000003172267    -0.000014131781     0.000007267794
      10       -0.000009752747    -0.000030434904     0.000016982950
      11       -0.000010020400    -0.000004719304     0.000007930636
      12       -0.000004333092    -0.000026098328    -0.000011075241
      13        0.000000740261     0.000045480933    -0.000011092912
      14       -0.000027209917    -0.000020959586    -0.000006595727
      15        0.000018437355     0.000014507563     0.000022541060
      16       -0.000021747334    -0.000003448579     0.000031925097
      17       -0.000007361232     0.000006356166    -0.000015486670
      18        0.000002922519    -0.000013857566    -0.000014604112
      19        0.000024180722    -0.000000995294    -0.000013046616
      20        0.000023298379    -0.000015343149    -0.000006530465
      21        0.000007764571     0.000005145596     0.000028904529
      22       -0.000005397341     0.000009082555    -0.000018737356
      23        0.000016237155    -0.000002965938    -0.000005344791
      24        0.000013387986     0.000000052541     0.000008532547

  **** Optimization is complete! (in 6 steps) ****
    Final optimized geometry and variables:
    Molecular point group: c1

    Geometry (in Angstrom), charge = 0, multiplicity = 1:

    H           -2.905103765713     0.934536604200    -1.115277872796
    O           -3.560370586393     0.387492834757    -0.725775384650
    C           -3.154011292629    -0.043791792661     0.548714652617
    C           -1.710271452256     0.298571690655     0.882807515580
    H           -3.288217337516    -1.119728569812     0.589190898905
    H           -3.810967307954     0.398310094670     1.290231267979
    C           -0.676627732556    -0.413628752312     0.011894323544
    H           -1.576852339961     1.376811855007     0.811654670859
    H           -1.539515776908     0.041364545749     1.924232863080
    C            0.761908866718    -0.049698330136     0.370939140832
    H           -0.849979071620    -0.184691576623    -1.036026961604
    H           -0.813573619505    -1.487370861572     0.109118779653
    C            1.793073440679    -0.769074626136    -0.496472865191
    H            0.886266392440     1.025109219867     0.282057831481
    H            0.942503699602    -0.292114229611     1.415842984050
    C            3.250837187394    -0.501595459748    -0.117708471886
    H            1.638951628978    -0.496592738665    -1.538178620189
    H            1.612374137457    -1.838675760373    -0.434541947022
    C            3.715937172123     0.935103371365    -0.343076733597
    H            3.882875081179    -1.166148795458    -0.698669286531
    H            3.405784637258    -0.771367556732     0.923702905010
    H            3.565310012160     1.235651219020    -1.375118789329
    H            4.772347077192     1.035913235729    -0.121987447153
    H            3.184207862044     1.637871809893     0.287036925491

  Mulliken Charges: (a.u.)
   Center  Symbol    Alpha    Beta     Spin     Total
       1     H     0.39171  0.39171  0.00000  0.21658
       2     O     4.20913  4.20913  0.00000 -0.41826
       3     C     2.95454  2.95454  0.00000  0.09092
       4     C     3.11509  3.11509  0.00000 -0.23018
       5     H     0.47164  0.47164  0.00000  0.05671
       6     H     0.46333  0.46333  0.00000  0.07335
       7     C     3.08976  3.08976  0.00000 -0.17952
       8     H     0.45252  0.45252  0.00000  0.09495
       9     H     0.45034  0.45034  0.00000  0.09931
      10     C     3.09159  3.09159  0.00000 -0.18318
      11     H     0.45419  0.45419  0.00000  0.09162
      12     H     0.45109  0.45109  0.00000  0.09782
      13     C     3.09523  3.09523  0.00000 -0.19046
      14     H     0.45268  0.45268  0.00000  0.09464
      15     H     0.45404  0.45404  0.00000  0.09192
      16     C     3.09042  3.09042  0.00000 -0.18085
      17     H     0.45370  0.45370  0.00000  0.09260
      18     H     0.44889  0.44889  0.00000  0.10223
      19     C     3.15261  3.15261  0.00000 -0.30523
      20     H     0.44801  0.44801  0.00000  0.10398
      21     H     0.45460  0.45460  0.00000  0.09079
      22     H     0.45486  0.45486  0.00000  0.09029
      23     H     0.44597  0.44597  0.00000  0.10806
      24     H     0.45404  0.45404  0.00000  0.09192

   Total alpha = 33.00000, Total beta = 33.00000, Total charge =  0.00000

*** Psi4 exiting successfully. Buy a developer a beer!
