  ==> Input File <==

--------------------------------------------------------------------------
set {
	reference rhf
	basis 6-31G*
}

set_num_threads( 4 )
memory 2 gb

molecule MOL {
0 1

H	 -2.798360	 -0.862255	 -0.071053
N	 -1.863561	 -0.715187	 0.256814
C	 -1.344686	 0.554728	 -0.219830
H	 -1.300452	 -1.461917	 -0.101532
C	 -1.216595	 1.526794	 0.934213
H	 -0.374362	 0.475526	 -0.711966
H	 -2.043448	 0.965985	 -0.941898
O	 -0.257075	 1.029169	 1.822344
H	 -0.914902	 2.508018	 0.568399
H	 -2.176979	 1.628877	 1.434689
C	 -0.098416	 1.786179	 2.979641
H	 0.662625	 1.309023	 3.582000
H	 0.220331	 2.801501	 2.750503
H	 -1.022270	 1.835462	 3.552243

	symmetry c1
}
set optking {
	frozen_dihedral = ("
		6 3 2 4
	")
}

ee = optimize('scf')
oeprop('DIPOLE', 'QUADRUPOLE', 'MULLIKEN_CHARGES')
f=open( 'psi4out.xyz', 'w' )
f.write( "14  " )
f.write( str(ee) + "\n" )
f.write( MOL.save_string_xyz() )
f.close()
--------------------------------------------------------------------------

    Molecular point group: c1
  Charge       = 0
  Multiplicity = 1
  Basis Set: 6-31G*
  Basis Set:
  @DF-RHF Final Energy:  -248.11695462560337
    Total Energy =                       -248.1169546256033414
    Molecular point group: c1
  Basis Set: 6-31G*
  Basis Set:
  Basis Set: 6-31G*
  Basis Set:
  @DF-RHF Final Energy:  -248.11845800968027
    Total Energy =                       -248.1184580096804666
  Basis Set: 6-31G*
  Basis Set:
  Basis Set: 6-31G*
  Basis Set:
  @DF-RHF Final Energy:  -248.11870338023593
    Total Energy =                       -248.1187033802360133
  Basis Set: 6-31G*
  Basis Set:
  Basis Set: 6-31G*
  Basis Set:
  @DF-RHF Final Energy:  -248.11873356335744
    Total Energy =                       -248.1187335633571820
  Basis Set: 6-31G*
  Basis Set:
  Charge       = 0
  Multiplicity = 1
  Basis Set: 6-31G*
  Basis Set:

    Orbital Energies (a.u.)
    -----------------------

    Doubly Occupied:

       1A    -20.546777     2A    -15.530318     3A    -11.258968
       4A    -11.258625     5A    -11.242701     6A     -1.372768
       7A     -1.172471     8A     -0.996396     9A     -0.900785
      10A     -0.813938    11A     -0.679907    12A     -0.667627
      13A     -0.634704    14A     -0.626433    15A     -0.598146
      16A     -0.530686    17A     -0.517061    18A     -0.507042
      19A     -0.464942    20A     -0.407970    21A     -0.378357

  @DF-RHF Final Energy:  -248.11873556135114

   => Energetics <=

    Nuclear Repulsion Energy =            193.2215016697217891
    One-Electron Energy =                -720.4672327591665635
    Two-Electron Energy =                 279.1269955280936870
    DFT Exchange-Correlation Energy =       0.0000000000000000
    Empirical Dispersion Energy =           0.0000000000000000
    PCM Polarization Energy =               0.0000000000000000
    EFP Energy =                            0.0000000000000000
    Total Energy =                       -248.1187355613511158
    Molecular point group: c1
  Basis Set: 6-31G*
  Basis Set:

  -Total Gradient:
     Atom            X                  Y                   Z
    ------   -----------------  -----------------  -----------------
       1       -0.000015073350     0.000015566511    -0.000025255463
       2        0.000169160663     0.000004827463     0.000535747782
       3       -0.000109487658     0.000066013283    -0.000498862411
       4       -0.000126043509    -0.000003871641    -0.000307282261
       5       -0.000134391669    -0.000083362662     0.000102174285
       6        0.000146580161     0.000016653616     0.000252246016
       7        0.000008603889    -0.000050608134     0.000045616358
       8        0.000015761379     0.000019129603    -0.000099799211
       9        0.000064282645    -0.000033532749     0.000028373686
      10       -0.000029734251     0.000024531285    -0.000025920178
      11        0.000016908060     0.000045569139    -0.000006273048
      12       -0.000004751368    -0.000006264274    -0.000009312659
      13        0.000003916684    -0.000000298142     0.000021210103
      14       -0.000005731679    -0.000014353298    -0.000012662998

  **** Optimization is complete! (in 5 steps) ****
    Final optimized geometry and variables:
    Molecular point group: c1

    Geometry (in Angstrom), charge = 0, multiplicity = 1:

    H           -1.892298230431    -1.680661651638    -1.300907514738
    N           -0.967198103664    -1.560445511551    -0.942309775918
    C           -0.387097216388    -0.290202795637    -1.361526031604
    H           -0.420685075214    -2.337710410720    -1.249558614934
    C           -0.261607830327     0.680722041048    -0.201675760350
    H            0.606227544172    -0.448453466460    -1.767056117134
    H           -0.978421672135     0.181652245909    -2.144156457807
    O            0.751441654981     0.239809804119     0.648149135710
    H           -0.025177161354     1.678623949158    -0.576192810796
    H           -1.209566819141     0.739744025959     0.330780909851
    C            0.873899473288     0.974056915007     1.822137938450
    H            1.689199067557     0.548377181470     2.391312624919
    H            1.096754728004     2.021024865467     1.619691029949
    H           -0.034718980328     0.925049587993     2.419163568281

  Mulliken Charges: (a.u.)
   Center  Symbol    Alpha    Beta     Spin     Total
       1     H     0.33287  0.33287  0.00000  0.33426
       2     N     3.92198  3.92198  0.00000 -0.84397
       3     C     3.07839  3.07839  0.00000 -0.15677
       4     H     0.32836  0.32836  0.00000  0.34328
       5     C     2.97445  2.97445  0.00000  0.05109
       6     H     0.41383  0.41383  0.00000  0.17235
       7     H     0.42718  0.42718  0.00000  0.14564
       8     O     4.30174  4.30174  0.00000 -0.60347
       9     H     0.43700  0.43700  0.00000  0.12599
      10     H     0.43108  0.43108  0.00000  0.13784
      11     C     3.07773  3.07773  0.00000 -0.15545
      12     H     0.41332  0.41332  0.00000  0.17335
      13     H     0.43308  0.43308  0.00000  0.13383
      14     H     0.42899  0.42899  0.00000  0.14203

   Total alpha = 21.00000, Total beta = 21.00000, Total charge = -0.00000
