  ==> Input File <==

--------------------------------------------------------------------------
set {
	reference rhf
	basis 6-31G*
}

set_num_threads( 4 )
memory 2 gb

molecule MOL {
0 1

H	 3.296388	 -0.449977	 -0.010500
C	 2.237234	 -0.263939	 -0.008243
C	 1.739548	 0.883993	 0.596255
C	 1.377952	 -1.169657	 -0.607649
H	 2.412932	 1.582242	 1.059428
C	 0.379887	 1.125991	 0.600960
H	 1.766596	 -2.056497	 -1.074251
C	 0.014119	 -0.925735	 -0.602258
H	 -0.024792	 2.007013	 1.062683
C	 -0.488460	 0.219100	 0.000000
H	 -0.658899	 -1.626033	 -1.066560
C	 -1.949954	 0.470334	 0.000000
O	 -2.781584	 -0.381627	 0.000000
H	 -2.238022	 1.526388	 0.000000

	symmetry c1
}
set optking {
	frozen_dihedral = ("
		8 10 12 14
	")
}

ee = optimize('scf')
oeprop('DIPOLE', 'QUADRUPOLE', 'MULLIKEN_CHARGES')
f=open( 'psi4out.xyz', 'w' )
f.write( "14  " )
f.write( str(ee) + "\n" )
f.write( MOL.save_string_xyz() )
f.close()
--------------------------------------------------------------------------

    Molecular point group: c1
  Charge       = 0
  Multiplicity = 1
  Basis Set: 6-31G*
  Basis Set:
  @DF-RHF Final Energy:  -343.42948955430677
    Total Energy =                       -343.4294895543067696
    Molecular point group: c1
  Basis Set: 6-31G*
  Basis Set:
  Basis Set: 6-31G*
  Basis Set:
  @DF-RHF Final Energy:  -343.42673803313448
    Total Energy =                       -343.4267380331343134
  Basis Set: 6-31G*
  Basis Set:
  Basis Set: 6-31G*
  Basis Set:
  @DF-RHF Final Energy:  -343.43001981277780
    Total Energy =                       -343.4300198127779709
  Basis Set: 6-31G*
  Basis Set:
  Basis Set: 6-31G*
  Basis Set:
  @DF-RHF Final Energy:  -343.43012209116750
    Total Energy =                       -343.4301220911674477
  Basis Set: 6-31G*
  Basis Set:
  Basis Set: 6-31G*
  Basis Set:
  @DF-RHF Final Energy:  -343.43012491714802
    Total Energy =                       -343.4301249171479640
  Basis Set: 6-31G*
  Basis Set:
  Charge       = 0
  Multiplicity = 1
  Basis Set: 6-31G*
  Basis Set:

    Orbital Energies (a.u.)
    -----------------------

    Doubly Occupied:

       1A    -20.563738     2A    -11.331907     3A    -11.253084
       4A    -11.250008     5A    -11.247900     6A    -11.246588
       7A    -11.244975     8A    -11.243178     9A     -1.404080
      10A     -1.170860    11A     -1.046845    12A     -1.031157
      13A     -0.888875    14A     -0.843393    15A     -0.791359
      16A     -0.720859    17A     -0.677532    18A     -0.651773
      19A     -0.621187    20A     -0.617565    21A     -0.602416
      22A     -0.549740    23A     -0.526512    24A     -0.506364
      25A     -0.502111    26A     -0.421905    27A     -0.349236
      28A     -0.346756

  @DF-RHF Final Energy:  -343.43012568752704

   => Energetics <=

    Nuclear Repulsion Energy =            323.0652555527810819
    One-Electron Energy =               -1105.6869559449978624
    Two-Electron Energy =                 439.1915747046896286
    DFT Exchange-Correlation Energy =       0.0000000000000000
    Empirical Dispersion Energy =           0.0000000000000000
    PCM Polarization Energy =               0.0000000000000000
    EFP Energy =                            0.0000000000000000
    Total Energy =                       -343.4301256875271520
    Molecular point group: c1
  Basis Set: 6-31G*
  Basis Set:

  -Total Gradient:
     Atom            X                  Y                   Z
    ------   -----------------  -----------------  -----------------
       1        0.000002879458     0.000013145329    -0.000004814341
       2       -0.000030459724    -0.000119927348    -0.000050039659
       3       -0.000111175045     0.000066041494     0.000054099803
       4        0.000136108815     0.000052087815     0.000023978565
       5        0.000009614987    -0.000005473780    -0.000009668143
       6        0.000148041809     0.000025064134     0.000039641022
       7       -0.000008417327    -0.000005342760     0.000003592821
       8        0.000419339110     0.002395025578    -0.003793598998
       9       -0.000002869428    -0.000007679712    -0.000009270928
      10       -0.000734927708    -0.003418208142     0.003809092428
      11       -0.000002521083    -0.000000126524    -0.000009932553
      12        0.000048966981     0.000845364129     0.005450643617
      13       -0.000006814364     0.000034241664     0.000010240918
      14        0.000132233528     0.000125788124    -0.005513964554

  **** Optimization is complete! (in 6 steps) ****
    Final optimized geometry and variables:
    Molecular point group: c1

    Geometry (in Angstrom), charge = 0, multiplicity = 1:

    H            3.303403054903    -0.424035019833    -0.020534949109
    C            2.243048537659    -0.246001286782    -0.002349953289
    C            1.746306210675     0.896275318312     0.604619668300
    C            1.379497002130    -1.156477515829    -0.596156229990
    H            2.417535842393     1.602737998428     1.058175711174
    C            0.381348051803     1.130027787010     0.612307180300
    H            1.771261286218    -2.034401470114    -1.077093030643
    C            0.015666009231    -0.932254838608    -0.570698407904
    H           -0.007701703358     2.026069061293     1.065094856372
    C           -0.488655984162     0.206876880742     0.047558956533
    H           -0.666870787808    -1.629262090474    -1.020003027796
    C           -1.948267440695     0.482985722864     0.019450505612
    O           -2.787000579276    -0.354416651338    -0.088869243508
    H           -2.223052718390     1.542094686591     0.038688895891

  Mulliken Charges: (a.u.)
   Center  Symbol    Alpha    Beta     Spin     Total
       1     H     0.39444  0.39444  0.00000  0.21113
       2     C     3.09231  3.09231  0.00000 -0.18461
       3     C     3.10361  3.10361  0.00000 -0.20721
       4     C     3.10345  3.10345  0.00000 -0.20690
       5     H     0.39480  0.39480  0.00000  0.21039
       6     C     3.10212  3.10212  0.00000 -0.20424
       7     H     0.39415  0.39415  0.00000  0.21171
       8     C     3.09075  3.09075  0.00000 -0.18150
       9     H     0.39312  0.39312  0.00000  0.21377
      10     C     3.04810  3.04810  0.00000 -0.09619
      11     H     0.37943  0.37943  0.00000  0.24115
      12     C     2.83703  2.83703  0.00000  0.32593
      13     O     4.24379  4.24379  0.00000 -0.48758
      14     H     0.42292  0.42292  0.00000  0.15415

   Total alpha = 28.00000, Total beta = 28.00000, Total charge = -0.00000
