  ==> Input File <==

--------------------------------------------------------------------------
set {
	reference rhf
	basis 6-31G*
}

set_num_threads( 4 )
memory 2 gb

molecule MOL {
0 1

H	 2.635734	 -0.193626	 -0.539295
C	 1.951159	 -0.223429	 0.317018
C	 0.692068	 0.589600	 0.160137
O	 2.225760	 -0.865535	 1.278487
C	 -0.558097	 -0.297372	 0.091132
H	 0.791645	 1.202255	 -0.728243
H	 0.616171	 1.253469	 1.020572
C	 -1.850991	 0.512573	 -0.019058
H	 -0.476753	 -0.965681	 -0.762987
H	 -0.604799	 -0.930658	 0.975228
C	 -3.096943	 -0.368295	 -0.099594
H	 -1.800724	 1.150330	 -0.898172
H	 -1.931651	 1.177355	 0.838044
H	 -3.060452	 -1.020287	 -0.967456
H	 -3.996858	 0.233488	 -0.175704
H	 -3.191959	 -0.995686	 0.782074

	symmetry c1
}
set optking {
	frozen_dihedral = ("
		4 2 3 6
	")
}

ee = optimize('scf')
oeprop('DIPOLE', 'QUADRUPOLE', 'MULLIKEN_CHARGES')
f=open( 'psi4out.xyz', 'w' )
f.write( "16  " )
f.write( str(ee) + "\n" )
f.write( MOL.save_string_xyz() )
f.close()
--------------------------------------------------------------------------

    Molecular point group: c1
  Charge       = 0
  Multiplicity = 1
  Basis Set: 6-31G*
  Basis Set:
  @DF-RHF Final Energy:  -270.01819366367033
    Total Energy =                       -270.0181936636703313
    Molecular point group: c1
  Basis Set: 6-31G*
  Basis Set:
  Basis Set: 6-31G*
  Basis Set:
  @DF-RHF Final Energy:  -270.01828931635907
    Total Energy =                       -270.0182893163590734
  Basis Set: 6-31G*
  Basis Set:
  Basis Set: 6-31G*
  Basis Set:
  @DF-RHF Final Energy:  -270.01838995729872
    Total Energy =                       -270.0183899572988935
  Basis Set: 6-31G*
  Basis Set:
  Basis Set: 6-31G*
  Basis Set:
  @DF-RHF Final Energy:  -270.01850908978747
    Total Energy =                       -270.0185090897874716
  Basis Set: 6-31G*
  Basis Set:
  Charge       = 0
  Multiplicity = 1
  Basis Set: 6-31G*
  Basis Set:

    Orbital Energies (a.u.)
    -----------------------

    Doubly Occupied:

       1A    -20.562468     2A    -11.327270     3A    -11.234864
       4A    -11.231274     5A    -11.225762     6A    -11.215369
       7A     -1.402798     8A     -1.091581     9A     -1.015168
      10A     -0.905567    11A     -0.812815    12A     -0.783735
      13A     -0.681740    14A     -0.645710    15A     -0.627736
      16A     -0.600881    17A     -0.578184    18A     -0.548806
      19A     -0.526424    20A     -0.507197    21A     -0.483669
      22A     -0.478287    23A     -0.473764    24A     -0.408447

  @DF-RHF Final Energy:  -270.01850943203476

   => Energetics <=

    Nuclear Repulsion Energy =            230.8239857738179523
    One-Electron Energy =                -822.9459604413757461
    Two-Electron Energy =                 322.1034652355230037
    DFT Exchange-Correlation Energy =       0.0000000000000000
    Empirical Dispersion Energy =           0.0000000000000000
    PCM Polarization Energy =               0.0000000000000000
    EFP Energy =                            0.0000000000000000
    Total Energy =                       -270.0185094320347616
    Molecular point group: c1
  Basis Set: 6-31G*
  Basis Set:

  -Total Gradient:
     Atom            X                  Y                   Z
    ------   -----------------  -----------------  -----------------
       1       -0.000016982300     0.000026449891    -0.000006767761
       2        0.000108914359     0.000211725726     0.000175630560
       3        0.000072155758     0.000166470731     0.000122770141
       4       -0.000120240060    -0.000193620496    -0.000120749273
       5        0.000047004373     0.000007767734    -0.000065922233
       6       -0.000092682676    -0.000224128759    -0.000141895982
       7        0.000007077275     0.000022594919     0.000009915114
       8       -0.000008468381     0.000009907082    -0.000004209754
       9       -0.000005306651    -0.000010210489    -0.000000456251
      10        0.000013614221    -0.000027685564    -0.000010887115
      11        0.000001811732     0.000008558980     0.000032317337
      12        0.000006707553    -0.000006705968     0.000003678257
      13       -0.000014845852     0.000011528803    -0.000000520807
      14        0.000008970670     0.000008492378    -0.000000144512
      15        0.000001845873    -0.000001002471     0.000004441389
      16       -0.000009575895    -0.000010142494     0.000002800891

  **** Optimization is complete! (in 5 steps) ****
    Final optimized geometry and variables:
    Molecular point group: c1

    Geometry (in Angstrom), charge = 0, multiplicity = 1:

    H            2.759420787920    -0.117270882074    -0.830419048911
    C            2.068720670411    -0.107893257376     0.019457081296
    C            0.811136827273     0.717926559100    -0.133836762260
    O            2.315929677360    -0.742518363874     0.993973515940
    C           -0.436812352248    -0.174394591323    -0.213022696122
    H            0.886627030285     1.340970693286    -1.020047491838
    H            0.737374765617     1.371845735387     0.730183759086
    C           -1.731319736207     0.632674766844    -0.318260421485
    H           -0.354884852120    -0.838742451850    -1.071169556445
    H           -0.464505708154    -0.807119419557     0.668286535807
    C           -2.974365308900    -0.253042138007    -0.392394486027
    H           -1.689402508155     1.271891685799    -1.197488876694
    H           -1.810659974892     1.296339888632     0.539743254696
    H           -2.940665081336    -0.904740240469    -1.260758889271
    H           -3.877260064749     0.345135505592    -0.462665747881
    H           -3.060663344605    -0.881301414807     0.489225306244

  Mulliken Charges: (a.u.)
   Center  Symbol    Alpha    Beta     Spin     Total
       1     H     0.42720  0.42720  0.00000  0.14560
       2     C     2.84318  2.84318  0.00000  0.31364
       3     C     3.20078  3.20078  0.00000 -0.40157
       4     O     4.23674  4.23674  0.00000 -0.47347
       5     C     3.15901  3.15901  0.00000 -0.31803
       6     H     0.41643  0.41643  0.00000  0.16713
       7     H     0.40071  0.40071  0.00000  0.19858
       8     C     3.15259  3.15259  0.00000 -0.30517
       9     H     0.41930  0.41930  0.00000  0.16139
      10     H     0.40508  0.40508  0.00000  0.18983
      11     C     3.24037  3.24037  0.00000 -0.48074
      12     H     0.42209  0.42209  0.00000  0.15583
      13     H     0.41982  0.41982  0.00000  0.16036
      14     H     0.42064  0.42064  0.00000  0.15872
      15     H     0.41738  0.41738  0.00000  0.16523
      16     H     0.41867  0.41867  0.00000  0.16267

   Total alpha = 24.00000, Total beta = 24.00000, Total charge = -0.00000
