  ==> Input File <==

--------------------------------------------------------------------------
set {
	reference rhf
	basis cc-pvtz
}

set_num_threads( 4 )
memory 2 gb

molecule MOL {
0 1

O	 0.395927	 1.296676	 -0.000076
C	 0.503051	 0.114301	 -0.000074
C	 -0.701422	 -0.805636	 -0.000109
C	 1.858118	 -0.556123	 0.000212
C	 -1.967366	 -0.169512	 0.551988
H	 -0.852573	 -1.147551	 -1.020738
H	 -0.435108	 -1.694248	 0.566358
H	 -2.247407	 0.701426	 -0.025311
H	 -2.787116	 -0.877374	 0.523771
H	 -1.826259	 0.149884	 1.575857
H	 1.961106	 -1.191101	 -0.872843
H	 2.636688	 0.191085	 -0.000109
H	 1.961070	 -1.190284	 0.873873

	symmetry c1
}
set optking {
	frozen_dihedral = ("
		6 3 2 1
	")
}

ee = optimize('scf')
oeprop('DIPOLE', 'QUADRUPOLE', 'MULLIKEN_CHARGES')
f=open( 'psi4out.xyz', 'w' )
f.write( "13  " )
f.write( str(ee) + "\n" )
f.write( MOL.save_string_xyz() )
f.close()
--------------------------------------------------------------------------

    Molecular point group: c1
  Charge       = 0
  Multiplicity = 1
  Basis Set: CC-PVTZ
  Basis Set:
  @DF-RHF Final Energy:  -231.08276195689669
    Total Energy =                       -231.0827619568968885
    Molecular point group: c1
  Basis Set: CC-PVTZ
  Basis Set:
  Basis Set: CC-PVTZ
  Basis Set:
  @DF-RHF Final Energy:  -231.08174765538490
    Total Energy =                       -231.0817476553850156
  Basis Set: CC-PVTZ
  Basis Set:
  Basis Set: CC-PVTZ
  Basis Set:
  @DF-RHF Final Energy:  -231.08298714665125
    Total Energy =                       -231.0829871466513623
  Basis Set: CC-PVTZ
  Basis Set:
  Basis Set: CC-PVTZ
  Basis Set:
  @DF-RHF Final Energy:  -231.08313573770968
    Total Energy =                       -231.0831357377095401
  Basis Set: CC-PVTZ
  Basis Set:
  Basis Set: CC-PVTZ
  Basis Set:
  @DF-RHF Final Energy:  -231.08315415426571
    Total Energy =                       -231.0831541542657988
  Basis Set: CC-PVTZ
  Basis Set:
  Basis Set: CC-PVTZ
  Basis Set:
  @DF-RHF Final Energy:  -231.08316629183909
    Total Energy =                       -231.0831662918388929
  Basis Set: CC-PVTZ
  Basis Set:
  Charge       = 0
  Multiplicity = 1
  Basis Set: CC-PVTZ
  Basis Set:

    Orbital Energies (a.u.)
    -----------------------

    Doubly Occupied:

       1A    -20.539191     2A    -11.321415     3A    -11.233550
       4A    -11.227814     5A    -11.213564     6A     -1.399698
       7A     -1.062834     8A     -1.001504     9A     -0.879264
      10A     -0.731305    11A     -0.660604    12A     -0.642818
      13A     -0.622457    14A     -0.585351    15A     -0.572017
      16A     -0.524121    17A     -0.516857    18A     -0.507579
      19A     -0.487179    20A     -0.404357

  @DF-RHF Final Energy:  -231.08316652786371

   => Energetics <=

    Nuclear Repulsion Energy =            177.2694274707529587
    One-Electron Energy =                -664.4382314087346231
    Two-Electron Energy =                 256.0856374101178972
    DFT Exchange-Correlation Energy =       0.0000000000000000
    Empirical Dispersion Energy =           0.0000000000000000
    PCM Polarization Energy =               0.0000000000000000
    EFP Energy =                            0.0000000000000000
    Total Energy =                       -231.0831665278637956
    Molecular point group: c1
  Basis Set: CC-PVTZ
  Basis Set:

  -Total Gradient:
     Atom            X                  Y                   Z
    ------   -----------------  -----------------  -----------------
       1       -0.000022260598     0.000032442354    -0.001288113926
       2       -0.000123475697     0.000156207186     0.001788214084
       3        0.000886049802    -0.001169643099    -0.000319971556
       4       -0.000009911378     0.000013868975    -0.000003925197
       5        0.000001038231     0.000006187753     0.000002094752
       6       -0.000739603846     0.000978605910    -0.000180587089
       7        0.000007996783     0.000001918866    -0.000001119264
       8       -0.000002921783     0.000005436429    -0.000001126386
       9        0.000008214814     0.000001246836    -0.000001167171
      10       -0.000002713073     0.000000090667     0.000002823878
      11        0.000000033342    -0.000007303330    -0.000001758597
      12       -0.000000386144    -0.000011608930     0.000000738460
      13       -0.000002060452    -0.000007449618     0.000003898011

  **** Optimization is complete! (in 7 steps) ****
    Final optimized geometry and variables:
    Molecular point group: c1

    Geometry (in Angstrom), charge = 0, multiplicity = 1:

    O            0.379773298101     1.312743752787    -0.047738214386
    C            0.492300813334     0.131656567083    -0.091856267042
    C           -0.711729352014    -0.789600148011    -0.124635022379
    C            1.847702942061    -0.532548111055    -0.152039414076
    C           -1.989568449179    -0.150518995439     0.400318007111
    H           -0.840925961342    -1.077728430448    -1.166008606676
    H           -0.477756742576    -1.702183358626     0.413387758854
    H           -2.229960013423     0.743652999220    -0.156808442816
    H           -2.818685254305    -0.842852772036     0.317652203593
    H           -1.885000251409     0.129185881839     1.441437845239
    H            1.878069296518    -1.270250229076    -0.946072629729
    H            2.616757898205     0.208839107894    -0.305134641394
    H            2.032089500542    -1.055674672033     0.780700639562

  Mulliken Charges: (a.u.)
   Center  Symbol    Alpha    Beta     Spin     Total
       1     O     4.17143  4.17143  0.00000 -0.34285
       2     C     2.86116  2.86116  0.00000  0.27767
       3     C     3.10104  3.10104  0.00000 -0.20208
       4     C     3.15075  3.15075  0.00000 -0.30150
       5     C     3.14236  3.14236  0.00000 -0.28473
       6     H     0.44567  0.44567  0.00000  0.10866
       7     H     0.44647  0.44647  0.00000  0.10705
       8     H     0.44285  0.44285  0.00000  0.11431
       9     H     0.45041  0.45041  0.00000  0.09917
      10     H     0.45203  0.45203  0.00000  0.09594
      11     H     0.45085  0.45085  0.00000  0.09830
      12     H     0.43600  0.43600  0.00000  0.12799
      13     H     0.44897  0.44897  0.00000  0.10206

   Total alpha = 20.00000, Total beta = 20.00000, Total charge =  0.00000
