  ==> Input File <==

--------------------------------------------------------------------------
set {
	reference rhf
	basis cc-pvtz
}

set_num_threads( 4 )
memory 2 gb

molecule MOL {
0 1

H	 1.625026	 -1.753519	 0.415219
O	 0.950233	 -1.182008	 0.098857
C	 1.135873	 0.113391	 0.608264
C	 0.027642	 1.012027	 0.090274
H	 2.094953	 0.512111	 0.287395
H	 1.138593	 0.096840	 1.694625
C	 -1.138737	 0.285728	 -0.581921
H	 0.464661	 1.708096	 -0.618252
H	 -0.340737	 1.603071	 0.925246
C	 -1.933983	 -0.631436	 0.343653
H	 -0.763151	 -0.285569	 -1.422081
H	 -1.808359	 1.035291	 -0.992333
H	 -2.789188	 -1.049673	 -0.174718
H	 -1.335629	 -1.461368	 0.700418
H	 -2.305435	 -0.092167	 1.209725

	symmetry c1
}
set optking {
	frozen_dihedral = ("
		2 3 4 8
	")
}

ee = optimize('scf')
oeprop('DIPOLE', 'QUADRUPOLE', 'MULLIKEN_CHARGES')
f=open( 'psi4out.xyz', 'w' )
f.write( "15  " )
f.write( str(ee) + "\n" )
f.write( MOL.save_string_xyz() )
f.close()
--------------------------------------------------------------------------

    Molecular point group: c1
  Charge       = 0
  Multiplicity = 1
  Basis Set: CC-PVTZ
  Basis Set:
  @DF-RHF Final Energy:  -232.22815438101935
    Total Energy =                       -232.2281543810192943
    Molecular point group: c1
  Basis Set: CC-PVTZ
  Basis Set:
  Basis Set: CC-PVTZ
  Basis Set:
  @DF-RHF Final Energy:  -232.22987520820982
    Total Energy =                       -232.2298752082097053
  Basis Set: CC-PVTZ
  Basis Set:
  Basis Set: CC-PVTZ
  Basis Set:
  @DF-RHF Final Energy:  -232.23030428570070
    Total Energy =                       -232.2303042857009245
  Basis Set: CC-PVTZ
  Basis Set:
  Basis Set: CC-PVTZ
  Basis Set:
  @DF-RHF Final Energy:  -232.23035314714031
    Total Energy =                       -232.2303531471401925
  Basis Set: CC-PVTZ
  Basis Set:
  Basis Set: CC-PVTZ
  Basis Set:
  @DF-RHF Final Energy:  -232.23036142028604
    Total Energy =                       -232.2303614202862150
  Basis Set: CC-PVTZ
  Basis Set:
  Charge       = 0
  Multiplicity = 1
  Basis Set: CC-PVTZ
  Basis Set:

    Orbital Energies (a.u.)
    -----------------------

    Doubly Occupied:

       1A    -20.547319     2A    -11.267382     3A    -11.211609
       4A    -11.205475     5A    -11.195326     6A     -1.365152
       7A     -1.060043     8A     -0.968412     9A     -0.865754
      10A     -0.775088    11A     -0.705304    12A     -0.650260
      13A     -0.608736    14A     -0.573689    15A     -0.559376
      16A     -0.528795    17A     -0.507608    18A     -0.477619
      19A     -0.463814    20A     -0.450609    21A     -0.426925

  @DF-RHF Final Energy:  -232.23036202785457

   => Energetics <=

    Nuclear Repulsion Energy =            193.2424744807504737
    One-Electron Energy =                -698.1170837005200838
    Two-Electron Energy =                 272.6442471919150421
    DFT Exchange-Correlation Energy =       0.0000000000000000
    Empirical Dispersion Energy =           0.0000000000000000
    PCM Polarization Energy =               0.0000000000000000
    EFP Energy =                            0.0000000000000000
    Total Energy =                       -232.2303620278545395
    Molecular point group: c1
  Basis Set: CC-PVTZ
  Basis Set:

  -Total Gradient:
     Atom            X                  Y                   Z
    ------   -----------------  -----------------  -----------------
       1       -0.000001358471    -0.000005496967    -0.000014003700
       2       -0.002343459970    -0.001238420813     0.003179665798
       3        0.003270685531     0.002377435709    -0.003248365993
       4       -0.001609880000    -0.004372419206    -0.004033673328
       5       -0.000003273150    -0.000002490030     0.000008349911
       6        0.000001093284    -0.000016379134    -0.000010689757
       7        0.000014485710     0.000040489368     0.000007806008
       8        0.000658097620     0.003216832631     0.004104366602
       9       -0.000012772904     0.000011226315    -0.000000430433
      10       -0.000011941067     0.000015947423    -0.000002945998
      11        0.000004953252    -0.000003731112     0.000006495423
      12        0.000008081406     0.000000078497     0.000002612037
      13        0.000003313507    -0.000008606485     0.000002816507
      14        0.000013894152    -0.000009680513     0.000008193167
      15        0.000008081102    -0.000004785685    -0.000010196242

  **** Optimization is complete! (in 6 steps) ****
    Final optimized geometry and variables:
    Molecular point group: c1

    Geometry (in Angstrom), charge = 0, multiplicity = 1:

    H            1.967248507113    -1.578808419028     0.212844376300
    O            1.232917034877    -1.067712921080    -0.072600052662
    C            1.306499798575     0.219469359153     0.486581755337
    C            0.155797035491     1.108620165076    -0.021625192081
    H            2.257510796567     0.681933337080     0.241437311432
    H            1.256466048527     0.141502143492     1.568962250076
    C           -1.013733458145     0.395155114625    -0.699886437334
    H            0.561680260844     1.867550826657    -0.681510730577
    H           -0.229506225247     1.664970814295     0.828693346432
    C           -1.863003069062    -0.445575485363     0.249540384291
    H           -0.645713089240    -0.225884362004    -1.505830518279
    H           -1.642512925545     1.155667931929    -1.153194645126
    H           -2.694225465088    -0.900035925586    -0.278105431553
    H           -1.281230337747    -1.239794891338     0.697980735433
    H           -2.275514509876     0.165289697174     1.046973984078

  Mulliken Charges: (a.u.)
   Center  Symbol    Alpha    Beta     Spin     Total
       1     H     0.39764  0.39764  0.00000  0.20471
       2     O     4.19328  4.19328  0.00000 -0.38655
       3     C     2.97526  2.97526  0.00000  0.04947
       4     C     3.10555  3.10555  0.00000 -0.21109
       5     H     0.46408  0.46408  0.00000  0.07184
       6     H     0.46945  0.46945  0.00000  0.06110
       7     C     3.08264  3.08264  0.00000 -0.16527
       8     H     0.44799  0.44799  0.00000  0.10402
       9     H     0.45593  0.45593  0.00000  0.08814
      10     C     3.15005  3.15005  0.00000 -0.30010
      11     H     0.44863  0.44863  0.00000  0.10275
      12     H     0.45051  0.45051  0.00000  0.09899
      13     H     0.45026  0.45026  0.00000  0.09947
      14     H     0.44913  0.44913  0.00000  0.10175
      15     H     0.45961  0.45961  0.00000  0.08077

   Total alpha = 21.00000, Total beta = 21.00000, Total charge = -0.00000
