  ==> Input File <==

--------------------------------------------------------------------------
set {
	reference rhf
	basis cc-pvtz
}

set_num_threads( 4 )
memory 2 gb

molecule MOL {
0 1

H	 1.913773	 -0.721143	 -0.886281
O	 1.583947	 -0.677544	 -0.001533
C	 0.489979	 0.078084	 0.002623
C	 -0.763662	 -0.754014	 0.000816
O	 0.539051	 1.259395	 -0.000088
C	 -2.038001	 0.074705	 -0.000833
H	 -0.712945	 -1.405886	 -0.864342
H	 -0.715137	 -1.405770	 0.866182
H	 -2.087267	 0.710831	 -0.874232
H	 -2.903419	 -0.576199	 -0.001922
H	 -2.089467	 0.710909	 0.872389

	symmetry c1
}
set optking {
	frozen_dihedral = ("
		1 2 3 5
	")
}

ee = optimize('scf')
oeprop('DIPOLE', 'QUADRUPOLE', 'MULLIKEN_CHARGES')
f=open( 'psi4out.xyz', 'w' )
f.write( "11  " )
f.write( str(ee) + "\n" )
f.write( MOL.save_string_xyz() )
f.close()
--------------------------------------------------------------------------

    Molecular point group: c1
  Charge       = 0
  Multiplicity = 1
  Basis Set: CC-PVTZ
  Basis Set:
  @DF-RHF Final Energy:  -266.93298728509444
    Total Energy =                       -266.9329872850946686
    Molecular point group: c1
  Basis Set: CC-PVTZ
  Basis Set:
  Basis Set: CC-PVTZ
  Basis Set:
  @DF-RHF Final Energy:  -266.93237466181449
    Total Energy =                       -266.9323746618144924
  Basis Set: CC-PVTZ
  Basis Set:
  Basis Set: CC-PVTZ
  Basis Set:
  @DF-RHF Final Energy:  -266.93409159616056
    Total Energy =                       -266.9340915961603287
  Basis Set: CC-PVTZ
  Basis Set:
  Basis Set: CC-PVTZ
  Basis Set:
  @DF-RHF Final Energy:  -266.93471054639156
    Total Energy =                       -266.9347105463916137
  Basis Set: CC-PVTZ
  Basis Set:
  Basis Set: CC-PVTZ
  Basis Set:
  @DF-RHF Final Energy:  -266.93471858316150
    Total Energy =                       -266.9347185831616116
  Basis Set: CC-PVTZ
  Basis Set:
  Charge       = 0
  Multiplicity = 1
  Basis Set: CC-PVTZ
  Basis Set:

    Orbital Energies (a.u.)
    -----------------------

    Doubly Occupied:

       1A    -20.587424     2A    -20.551452     3A    -11.375047
       4A    -11.244217     5A    -11.219852     6A     -1.464801
       7A     -1.371320     8A     -1.065392     9A     -0.912417
      10A     -0.807807    11A     -0.713313    12A     -0.680128
      13A     -0.661539    14A     -0.614777    15A     -0.569814
      16A     -0.529751    17A     -0.524377    18A     -0.502550
      19A     -0.495399    20A     -0.449397

  @DF-RHF Final Energy:  -266.93471926419636

   => Energetics <=

    Nuclear Repulsion Energy =            179.3970300723144931
    One-Electron Energy =                -719.9819560189216645
    Two-Electron Energy =                 273.6502066824109534
    DFT Exchange-Correlation Energy =       0.0000000000000000
    Empirical Dispersion Energy =           0.0000000000000000
    PCM Polarization Energy =               0.0000000000000000
    EFP Energy =                            0.0000000000000000
    Total Energy =                       -266.9347192641962465
    Molecular point group: c1
  Basis Set: CC-PVTZ
  Basis Set:

  -Total Gradient:
     Atom            X                  Y                   Z
    ------   -----------------  -----------------  -----------------
       1       -0.002934069202    -0.004470262164    -0.001147412935
       2        0.003481807221     0.005650038987     0.003604883640
       3       -0.000273823003    -0.001130484139    -0.007235931346
       4       -0.000003885461     0.000037361941    -0.000040505400
       5       -0.000282609894    -0.000061799446     0.004791773769
       6        0.000005534870    -0.000008143749     0.000014276562
       7       -0.000005173235    -0.000012077544     0.000007755067
       8        0.000001633020    -0.000003173248     0.000012372353
       9        0.000002339048    -0.000000348881    -0.000006334452
      10        0.000005682456    -0.000001660593    -0.000002803270
      11        0.000002564183     0.000000548832     0.000001926014

  **** Optimization is complete! (in 6 steps) ****
    Final optimized geometry and variables:
    Molecular point group: c1

    Geometry (in Angstrom), charge = 0, multiplicity = 1:

    H            2.039525596426    -0.730813550274    -0.806732500504
    O            1.617137308303    -0.671328254501     0.034189237519
    C            0.490912873493     0.087299952446    -0.019017484368
    C           -0.767859503831    -0.737776866706     0.002231206719
    O            0.533590792235     1.260753533726    -0.003064027520
    C           -2.044317916362     0.086284990426     0.032847881777
    H           -0.738253012871    -1.391672325558    -0.864325299969
    H           -0.694883072723    -1.394226456050     0.862737478005
    H           -2.116636137990     0.725866889019    -0.836819588220
    H           -2.908956098770    -0.565651086061     0.050712946260
    H           -2.075513687429     0.719626194049     0.909204525994

  Mulliken Charges: (a.u.)
   Center  Symbol    Alpha    Beta     Spin     Total
       1     H     0.38582  0.38582  0.00000  0.22836
       2     O     4.17690  4.17690  0.00000 -0.35381
       3     C     2.80244  2.80244  0.00000  0.39513
       4     C     3.10080  3.10080  0.00000 -0.20160
       5     O     4.16288  4.16288  0.00000 -0.32575
       6     C     3.13948  3.13948  0.00000 -0.27897
       7     H     0.44824  0.44824  0.00000  0.10352
       8     H     0.43811  0.43811  0.00000  0.12378
       9     H     0.44897  0.44897  0.00000  0.10205
      10     H     0.44996  0.44996  0.00000  0.10008
      11     H     0.44639  0.44639  0.00000  0.10721

   Total alpha = 20.00000, Total beta = 20.00000, Total charge =  0.00000
