  ==> Input File <==

--------------------------------------------------------------------------
set {
	reference rhf
	basis 6-31G*
}

set_num_threads( 4 )
memory 2 gb

molecule MOL {
0 1

H	 3.860740	 0.361685	 0.584660
N	 3.050827	 -0.227059	 0.615761
C	 1.841924	 0.544793	 0.366113
H	 3.024331	 -0.634648	 1.531184
C	 0.622008	 -0.369097	 0.317504
H	 1.958498	 1.038518	 -0.593837
H	 1.675464	 1.332566	 1.105102
C	 -0.679275	 0.379305	 0.025956
H	 0.794142	 -1.131033	 -0.437253
H	 0.531323	 -0.892430	 1.268942
C	 -1.903357	 -0.536963	 -0.023547
H	 -0.588213	 0.904960	 -0.923383
H	 -0.836886	 1.145247	 0.783808
C	 -3.225172	 0.228290	 0.028445
H	 -1.867824	 -1.134999	 -0.931459
H	 -1.860449	 -1.239604	 0.805977
H	 -3.313397	 0.915643	 -0.808262
H	 -4.073500	 -0.448134	 -0.008893
H	 -3.306061	 0.809945	 0.942516

	symmetry c1
}
set optking {
	frozen_dihedral = ("
		12 8 11 15
	")
}

ee = optimize('scf')
oeprop('DIPOLE', 'QUADRUPOLE', 'MULLIKEN_CHARGES')
f=open( 'psi4out.xyz', 'w' )
f.write( "19  " )
f.write( str(ee) + "\n" )
f.write( MOL.save_string_xyz() )
f.close()
--------------------------------------------------------------------------

    Molecular point group: c1
  Charge       = 0
  Multiplicity = 1
  Basis Set: 6-31G*
  Basis Set:
  @DF-RHF Final Energy:  -251.35096861992696
    Total Energy =                       -251.3509686199269595
    Molecular point group: c1
  Basis Set: 6-31G*
  Basis Set:
  Basis Set: 6-31G*
  Basis Set:
  @DF-RHF Final Energy:  -251.35104155478498
    Total Energy =                       -251.3510415547849561
  Basis Set: 6-31G*
  Basis Set:
  Basis Set: 6-31G*
  Basis Set:
  @DF-RHF Final Energy:  -251.35108707474441
    Total Energy =                       -251.3510870747444983
  Basis Set: 6-31G*
  Basis Set:
  Charge       = 0
  Multiplicity = 1
  Basis Set: 6-31G*
  Basis Set:

    Orbital Energies (a.u.)
    -----------------------

    Doubly Occupied:

       1A    -15.532442     2A    -11.239656     3A    -11.213983
       4A    -11.212788     5A    -11.209322     6A    -11.207370
       7A     -1.176532     8A     -1.072663     9A     -0.998239
      10A     -0.899893    11A     -0.812908    12A     -0.788979
      13A     -0.664095    14A     -0.643075    15A     -0.616506
      16A     -0.588499    17A     -0.564074    18A     -0.550896
      19A     -0.527558    20A     -0.499368    21A     -0.480824
      22A     -0.464504    23A     -0.461268    24A     -0.449073
      25A     -0.380898

  @DF-RHF Final Energy:  -251.35108777742258

   => Energetics <=

    Nuclear Repulsion Energy =            245.6551444822133305
    One-Electron Energy =                -825.5016433645464531
    Two-Electron Energy =                 328.4954111049106018
    DFT Exchange-Correlation Energy =       0.0000000000000000
    Empirical Dispersion Energy =           0.0000000000000000
    PCM Polarization Energy =               0.0000000000000000
    EFP Energy =                            0.0000000000000000
    Total Energy =                       -251.3510877774224923
    Molecular point group: c1
  Basis Set: 6-31G*
  Basis Set:

  -Total Gradient:
     Atom            X                  Y                   Z
    ------   -----------------  -----------------  -----------------
       1        0.000003409618    -0.000002281305    -0.000007635353
       2       -0.000008477421     0.000001604572    -0.000018526204
       3        0.000014793241     0.000015777433     0.000018562367
       4       -0.000006578409     0.000003733166    -0.000001512351
       5       -0.000014350644     0.000027179032     0.000007427680
       6        0.000004020200     0.000009649854     0.000001570718
       7        0.000005910423    -0.000003059310     0.000004520879
       8       -0.002164053073     0.002812535893     0.000869893248
       9       -0.000006232366    -0.000018674219     0.000013475259
      10       -0.000009656570    -0.000002802140    -0.000004740984
      11        0.001992967739    -0.002764372358     0.001372769178
      12        0.001523570920    -0.001933942684    -0.000940073230
      13        0.000024856141    -0.000001645524     0.000001533403
      14        0.000014231952    -0.000030562258    -0.000015565806
      15       -0.001358426710     0.001884331681    -0.001287975103
      16       -0.000007664340    -0.000009050191    -0.000004115168
      17       -0.000011851345     0.000005726755    -0.000010898927
      18       -0.000010611487     0.000003924221     0.000009215101
      19        0.000014142133     0.000001927381    -0.000007924707

  **** Optimization is complete! (in 4 steps) ****
    Final optimized geometry and variables:
    Molecular point group: c1

    Geometry (in Angstrom), charge = 0, multiplicity = 1:

    H            3.882918303598     0.345259108688     0.304936764310
    N            3.071412567409    -0.239955329826     0.355282699162
    C            1.861374933486     0.534241255801     0.118607086463
    H            3.058810555110    -0.638764097728     1.274870607297
    C            0.637191569326    -0.374919883141     0.099902173718
    H            1.963616463782     1.018328601436    -0.847904281783
    H            1.710531513865     1.329878366382     0.852585842000
    C           -0.667630193440     0.376975982163    -0.171638978758
    H            0.791543795995    -1.142939252433    -0.652757325121
    H            0.562671503910    -0.891494047065     1.056312242137
    C           -1.886259792036    -0.547799152616    -0.244746059061
    H           -0.571004880075     0.909654777240    -1.116106100374
    H           -0.822702502176     1.127928084270     0.600739459989
    C           -3.211576879363     0.215161686993    -0.233975493607
    H           -1.832148550838    -1.135756244821    -1.157886442877
    H           -1.867000757940    -1.249649399468     0.585538476265
    H           -3.266749037220     0.916039183174    -1.062474001313
    H           -4.056636581824    -0.461407857388    -0.317408856735
    H           -3.330708918969     0.782002768619     0.685110453321

  Mulliken Charges: (a.u.)
   Center  Symbol    Alpha    Beta     Spin     Total
       1     H     0.33250  0.33250  0.00000  0.33499
       2     N     3.92187  3.92187  0.00000 -0.84374
       3     C     3.06025  3.06025  0.00000 -0.12049
       4     H     0.33537  0.33537  0.00000  0.32926
       5     C     3.15190  3.15190  0.00000 -0.30381
       6     H     0.42096  0.42096  0.00000  0.15808
       7     H     0.43484  0.43484  0.00000  0.13031
       8     C     3.15511  3.15511  0.00000 -0.31023
       9     H     0.41326  0.41326  0.00000  0.17347
      10     H     0.42775  0.42775  0.00000  0.14450
      11     C     3.15103  3.15103  0.00000 -0.30206
      12     H     0.42312  0.42312  0.00000  0.15375
      13     H     0.42442  0.42442  0.00000  0.15115
      14     C     3.23945  3.23945  0.00000 -0.47891
      15     H     0.42143  0.42143  0.00000  0.15714
      16     H     0.42267  0.42267  0.00000  0.15466
      17     H     0.42200  0.42200  0.00000  0.15599
      18     H     0.41966  0.41966  0.00000  0.16068
      19     H     0.42238  0.42238  0.00000  0.15524

   Total alpha = 25.00000, Total beta = 25.00000, Total charge = -0.00000
