                              Psi4 1.0.54 Driver

  ==> Input File <==

--------------------------------------------------------------------------
set {
	reference rhf
	basis cc-pvtz
}

set_num_threads( 4 )
memory 2 gb

molecule MOL {
0 1

H	 2.880538	 0.316775	 0.095434
C	 1.948180	 -0.217873	 0.320185
C	 0.692262	 0.592428	 0.156232
O	 1.983167	 -1.347709	 0.666424
C	 -0.554654	 -0.292621	 0.086567
H	 0.791858	 1.203694	 -0.731051
H	 0.617379	 1.254358	 1.016534
C	 -1.846385	 0.513195	 -0.016346
H	 -0.473986	 -0.956115	 -0.769708
H	 -0.597929	 -0.929215	 0.966651
C	 -3.089953	 -0.365049	 -0.098564
H	 -1.798267	 1.154820	 -0.891143
H	 -1.925398	 1.173265	 0.842889
H	 -3.055079	 -1.012299	 -0.968245
H	 -3.988403	 0.236438	 -0.170014
H	 -3.183055	 -0.995885	 0.779079

	symmetry c1
}
set optking {
	frozen_dihedral = ("
		4 2 3 6
	")
}

ee,wfn = optimize('scf', return_wfn=True)
oeprop( wfn, 'DIPOLE', 'QUADRUPOLE', 'MULLIKEN_CHARGES')
f=open( 'psi4out.xyz', 'w' )
f.write( "16  " )
f.write( str(ee) + "\n" )
f.write( MOL.save_string_xyz() )
f.close()
--------------------------------------------------------------------------

    Molecular point group: c1
  Charge       = 0
  Multiplicity = 1
  Basis Set: CC-PVTZ
  Basis Set:
  @DF-RHF Final Energy:  -270.11921438782679
    Total Energy =                       -270.1192143878266734
    Molecular point group: c1
  Basis Set: CC-PVTZ
  Basis Set:
  Basis Set: CC-PVTZ
  Basis Set:
  @DF-RHF Final Energy:  -270.11964858579802
    Total Energy =                       -270.1196485857980178
  Basis Set: CC-PVTZ
  Basis Set:
  Basis Set: CC-PVTZ
  Basis Set:
  @DF-RHF Final Energy:  -270.11986436562063
    Total Energy =                       -270.1198643656207423
  Basis Set: CC-PVTZ
  Basis Set:
  Basis Set: CC-PVTZ
  Basis Set:
  @DF-RHF Final Energy:  -270.11995830952532
    Total Energy =                       -270.1199583095254866
  Basis Set: CC-PVTZ
  Basis Set:
  Charge       = 0
  Multiplicity = 1
  Basis Set: CC-PVTZ
  Basis Set:

    Orbital Energies (a.u.)
    -----------------------

    Doubly Occupied:

       1A    -20.552463     2A    -11.322699     3A    -11.236260
       4A    -11.221502     5A    -11.220865     6A    -11.210935
       7A     -1.408000     8A     -1.090693     9A     -1.016830
      10A     -0.909889    11A     -0.814946    12A     -0.772066
      13A     -0.678682    14A     -0.656814    15A     -0.632680
      16A     -0.599568    17A     -0.586633    18A     -0.537148
      19A     -0.530642    20A     -0.498688    21A     -0.486582
      22A     -0.478927    23A     -0.473129    24A     -0.412966

  @DF-RHF Final Energy:  -270.11995894019196

   => Energetics <=

    Nuclear Repulsion Energy =            232.0483509392290387
    One-Electron Energy =                -825.6374069710486765
    Two-Electron Energy =                 323.4690970916275319
    DFT Exchange-Correlation Energy =       0.0000000000000000
    Empirical Dispersion Energy =           0.0000000000000000
    PCM Polarization Energy =               0.0000000000000000
    EFP Energy =                            0.0000000000000000
    Total Energy =                       -270.1199589401920775
    Molecular point group: c1
  Basis Set: CC-PVTZ
  Basis Set:

  -Total Gradient:
     Atom            X                  Y                   Z
    ------   -----------------  -----------------  -----------------
       1       -0.000020022518    -0.000044045560    -0.000062772668
       2       -0.000023748560    -0.000461674820    -0.001968184917
       3       -0.000438320698    -0.001056456486    -0.000521284475
       4        0.000128938782     0.000468337536     0.001525909484
       5        0.000067229158     0.000034472142     0.000101699526
       6        0.000480502306     0.001081906461     0.000926605858
       7       -0.000076422258    -0.000012122799     0.000085289206
       8       -0.000059231453    -0.000025055633    -0.000097938618
       9       -0.000004104783    -0.000013391891    -0.000025278561
      10        0.000020275926    -0.000000053466     0.000053170179
      11       -0.000045676836     0.000055728116    -0.000013552554
      12       -0.000032528101     0.000014965789     0.000006572716
      13        0.000005580105    -0.000046272628    -0.000008782263
      14        0.000009596871     0.000007462894    -0.000004567906
      15       -0.000026189737    -0.000012323766    -0.000003234974
      16        0.000014121799     0.000008524111     0.000006349965

  **** Optimization is complete! (in 5 steps) ****
    Final optimized geometry and variables:
    Molecular point group: c1

    Geometry (in Angstrom), charge = 0, multiplicity = 1:

    H            3.016677774154     0.621738851800    -0.026940934311
    C            2.114589388690     0.019741477535     0.137989329257
    C            0.818079346514     0.768794694159    -0.013077601027
    O            2.210518228985    -1.118833421154     0.441589463794
    C           -0.423216621905    -0.109490255658    -0.082571973810
    H            0.905526908873     1.417718398846    -0.880822190012
    H            0.764907132292     1.445079198377     0.840265846192
    C           -1.710967358397     0.699367235016    -0.210969353366
    H           -0.332098978911    -0.787978257319    -0.924792327028
    H           -0.465928421294    -0.733514406578     0.802298888014
    C           -2.956145701888    -0.177315449194    -0.287870786996
    H           -1.658224794991     1.327434877362    -1.096381481566
    H           -1.798449348315     1.374564027643     0.636129264192
    H           -2.914859514170    -0.840085600647    -1.145565755038
    H           -3.853774003696     0.423522480437    -0.376580652660
    H           -3.055405928223    -0.793045827199     0.599515987659

  Mulliken Charges: (a.u.)
   Center  Symbol    Alpha    Beta     Spin     Total
       1     H     0.45256  0.45256  0.00000  0.09488
       2     C     2.92195  2.92195  0.00000  0.15611
       3     C     3.09226  3.09226  0.00000 -0.18452
       4     O     4.16528  4.16528  0.00000 -0.33057
       5     C     3.08289  3.08289  0.00000 -0.16579
       6     H     0.44718  0.44718  0.00000  0.10564
       7     H     0.44647  0.44647  0.00000  0.10705
       8     C     3.08421  3.08421  0.00000 -0.16842
       9     H     0.44879  0.44879  0.00000  0.10243
      10     H     0.44352  0.44352  0.00000  0.11296
      11     C     3.14907  3.14907  0.00000 -0.29813
      12     H     0.45544  0.45544  0.00000  0.08912
      13     H     0.45484  0.45484  0.00000  0.09033
      14     H     0.45393  0.45393  0.00000  0.09215
      15     H     0.44822  0.44822  0.00000  0.10356
      16     H     0.45339  0.45339  0.00000  0.09321

   Total alpha = 24.00000, Total beta = 24.00000, Total charge = -0.00000

*** Psi4 exiting successfully. Buy a developer a beer!
