  ==> Input File <==

--------------------------------------------------------------------------
set {
	reference rhf
	basis cc-pvtz
}

set_num_threads( 4 )
memory 2 gb

molecule MOL {
0 1

H	 1.651322	 -0.822465	 0.000000
O	 0.729993	 -1.034364	 0.000000
C	 0.037305	 0.100061	 0.000000
C	 -0.049634	 0.705605	 1.368881
O	 -0.440450	 0.549908	 -0.982945
H	 -0.521622	 0.004330	 2.044832
H	 -0.617374	 1.620132	 1.323756
H	 0.947576	 0.901433	 1.741297

	symmetry c1
}
set optking {
	frozen_dihedral = ("
		4 3 2 1
	")
}

ee = optimize('scf')
oeprop('DIPOLE', 'QUADRUPOLE', 'MULLIKEN_CHARGES')
f=open( 'psi4out.xyz', 'w' )
f.write( "8  " )
f.write( str(ee) + "\n" )
f.write( MOL.save_string_xyz() )
f.close()
--------------------------------------------------------------------------

    Molecular point group: c1
  Charge       = 0
  Multiplicity = 1
  Basis Set: CC-PVTZ
  Basis Set:
  @DF-RHF Final Energy:  -227.88279749344275
    Total Energy =                       -227.8827974934426948
    Molecular point group: c1
  Basis Set: CC-PVTZ
  Basis Set:
  Basis Set: CC-PVTZ
  Basis Set:
  @DF-RHF Final Energy:  -227.88380328815273
    Total Energy =                       -227.8838032881527624
  Basis Set: CC-PVTZ
  Basis Set:
  Basis Set: CC-PVTZ
  Basis Set:
  @DF-RHF Final Energy:  -227.88325804414887
    Total Energy =                       -227.8832580441488744
  Basis Set: CC-PVTZ
  Basis Set:
  Basis Set: CC-PVTZ
  Basis Set:
  @DF-RHF Final Energy:  -227.88458477584470
    Total Energy =                       -227.8845847758447860
  Basis Set: CC-PVTZ
  Basis Set:
  Basis Set: CC-PVTZ
  Basis Set:
  @DF-RHF Final Energy:  -227.88459842699706
    Total Energy =                       -227.8845984269969165
  Basis Set: CC-PVTZ
  Basis Set:
  Basis Set: CC-PVTZ
  Basis Set:
  @DF-RHF Final Energy:  -227.88460126208821
    Total Energy =                       -227.8846012620883812
  Basis Set: CC-PVTZ
  Basis Set:
  Charge       = 0
  Multiplicity = 1
  Basis Set: CC-PVTZ
  Basis Set:

    Orbital Energies (a.u.)
    -----------------------

    Doubly Occupied:

       1A    -20.589561     2A    -20.552040     3A    -11.378945
       4A    -11.242917     5A     -1.465916     6A     -1.373772
       7A     -1.024397     8A     -0.830710     9A     -0.713540
      10A     -0.671833    11A     -0.665370    12A     -0.594577
      13A     -0.578071    14A     -0.515239    15A     -0.505306
      16A     -0.453737

  @DF-RHF Final Energy:  -227.88460212951458

   => Energetics <=

    Nuclear Repulsion Energy =            122.0560825439485342
    One-Electron Energy =                -553.5695097591562899
    Two-Electron Energy =                 203.6288250856932223
    DFT Exchange-Correlation Energy =       0.0000000000000000
    Empirical Dispersion Energy =           0.0000000000000000
    PCM Polarization Energy =               0.0000000000000000
    EFP Energy =                            0.0000000000000000
    Total Energy =                       -227.8846021295145192
    Molecular point group: c1
  Basis Set: CC-PVTZ
  Basis Set:

  -Total Gradient:
     Atom            X                  Y                   Z
    ------   -----------------  -----------------  -----------------
       1        0.000005245044     0.000063043783    -0.001842368690
       2       -0.000358053019    -0.000507176892     0.002430369865
       3        0.001263002173     0.001113848010    -0.000854125162
       4       -0.001020733471    -0.000668687776     0.000205349303
       5        0.000067191197    -0.000037735498     0.000061902111
       6        0.000022345552     0.000004120731     0.000000352547
       7        0.000010180843     0.000014181344     0.000013326407
       8        0.000010821677     0.000018406296    -0.000014806382

  **** Optimization is complete! (in 7 steps) ****
    Final optimized geometry and variables:
    Molecular point group: c1

    Geometry (in Angstrom), charge = 0, multiplicity = 1:

    H            1.590558998371    -0.949893833605    -0.127522927615
    O            0.660353690415    -1.103941977683    -0.127122986433
    C           -0.048521486636     0.054842816380    -0.094991083759
    C           -0.155143898820     0.662930960791     1.275004806616
    O           -0.574498588840     0.474765026070    -1.055330018837
    H           -0.639380024850    -0.046339598113     1.934340332844
    H           -0.721442118156     1.579084041860     1.232152032214
    H            0.832689232555     0.856234795998     1.677196598709

  Mulliken Charges: (a.u.)
   Center  Symbol    Alpha    Beta     Spin     Total
       1     H     0.38785  0.38785  0.00000  0.22429
       2     O     4.17138  4.17138  0.00000 -0.34275
       3     C     2.80724  2.80724  0.00000  0.38552
       4     C     3.13871  3.13871  0.00000 -0.27742
       5     O     4.16010  4.16010  0.00000 -0.32019
       6     H     0.44206  0.44206  0.00000  0.11588
       7     H     0.43765  0.43765  0.00000  0.12470
       8     H     0.45501  0.45501  0.00000  0.08998

   Total alpha = 16.00000, Total beta = 16.00000, Total charge =  0.00000
