  ==> Input File <==

--------------------------------------------------------------------------
set {
	reference rhf
	basis 6-31G*
}

set_num_threads( 4 )
memory 2 gb

molecule MOL {
0 1

H	 1.686632	 0.482453	 -2.876152
C	 1.604261	 0.421128	 -1.794629
C	 0.178021	 0.061589	 -1.390043
H	 1.880586	 1.380911	 -1.372464
H	 2.325972	 -0.313020	 -1.453025
N	 -0.000257	 -0.000071	 0.054619
H	 -0.484178	 0.822442	 -1.783709
H	 -0.121869	 -0.877094	 -1.865045
C	 -1.363055	 0.315058	 0.462241
C	 0.475620	 -1.254752	 0.622046
C	 -2.412078	 -0.285320	 -0.468531
H	 -1.482241	 1.391144	 0.451970
H	 -1.549931	 -0.001174	 1.492681
C	 0.944780	 -1.109994	 2.066406
H	 1.313796	 -1.600680	 0.030481
H	 -0.288186	 -2.034755	 0.551457
H	 -2.262839	 0.075384	 -1.480151
H	 -2.369300	 -1.368867	 -0.491760
H	 -3.410332	 -0.003975	 -0.144961
H	 1.743537	 -0.379302	 2.127318
H	 0.147523	 -0.787468	 2.727396
H	 1.316014	 -2.059975	 2.440635

	symmetry c1
}
set optking {
	frozen_dihedral = ("
		3 6 9 11
	")
}

ee = optimize('scf')
oeprop('DIPOLE', 'QUADRUPOLE', 'MULLIKEN_CHARGES')
f=open( 'psi4out.xyz', 'w' )
f.write( "22  " )
f.write( str(ee) + "\n" )
f.write( MOL.save_string_xyz() )
f.close()
--------------------------------------------------------------------------

    Molecular point group: c1
  Charge       = 0
  Multiplicity = 1
  Basis Set: 6-31G*
  Basis Set:
  @DF-RHF Final Energy:  -290.36469946047418
    Total Energy =                       -290.3646994604741849
    Molecular point group: c1
  Basis Set: 6-31G*
  Basis Set:
  Basis Set: 6-31G*
  Basis Set:
  @DF-RHF Final Energy:  -290.36518548334760
    Total Energy =                       -290.3651854833477159
  Basis Set: 6-31G*
  Basis Set:
  Basis Set: 6-31G*
  Basis Set:
  @DF-RHF Final Energy:  -290.36792037565044
    Total Energy =                       -290.3679203756503853
  Basis Set: 6-31G*
  Basis Set:
  Basis Set: 6-31G*
  Basis Set:
  @DF-RHF Final Energy:  -290.36816290331819
    Total Energy =                       -290.3681629033181935
  Basis Set: 6-31G*
  Basis Set:
  Basis Set: 6-31G*
  Basis Set:
  @DF-RHF Final Energy:  -290.36817412581604
    Total Energy =                       -290.3681741258165516
  Basis Set: 6-31G*
  Basis Set:
  Basis Set: 6-31G*
  Basis Set:
  @DF-RHF Final Energy:  -290.36818014272899
    Total Energy =                       -290.3681801427292157
  Basis Set: 6-31G*
  Basis Set:
  Basis Set: 6-31G*
  Basis Set:
  @DF-RHF Final Energy:  -290.36818556529420
    Total Energy =                       -290.3681855652941977
  Basis Set: 6-31G*
  Basis Set:
  Charge       = 0
  Multiplicity = 1
  Basis Set: 6-31G*
  Basis Set:

    Orbital Energies (a.u.)
    -----------------------

    Doubly Occupied:

       1A    -15.535978     2A    -11.240324     3A    -11.240252
       4A    -11.238878     5A    -11.208510     6A    -11.204673
       7A    -11.203555     8A     -1.220596     9A     -1.022760
      10A     -1.021089    11A     -0.955196    12A     -0.856865
      13A     -0.846422    14A     -0.759173    15A     -0.658200
      16A     -0.641309    17A     -0.617599    18A     -0.596882
      19A     -0.575014    20A     -0.547163    21A     -0.542914
      22A     -0.516466    23A     -0.510962    24A     -0.507324
      25A     -0.492821    26A     -0.488490    27A     -0.464094
      28A     -0.458891    29A     -0.336441

  @DF-RHF Final Energy:  -290.36818570143845

   => Energetics <=

    Nuclear Repulsion Energy =            338.3083414893554277
    One-Electron Energy =               -1062.3353706929162854
    Two-Electron Energy =                 433.6588435021222949
    DFT Exchange-Correlation Energy =       0.0000000000000000
    Empirical Dispersion Energy =           0.0000000000000000
    PCM Polarization Energy =               0.0000000000000000
    EFP Energy =                            0.0000000000000000
    Total Energy =                       -290.3681857014386196
    Molecular point group: c1
  Basis Set: 6-31G*
  Basis Set:

  -Total Gradient:
     Atom            X                  Y                   Z
    ------   -----------------  -----------------  -----------------
       1       -0.000003959108    -0.000004058868    -0.000004834524
       2        0.000002819997    -0.000008579742     0.000021782959
       3       -0.001244422073    -0.005217934665    -0.000523997064
       4       -0.000003966928    -0.000000493545    -0.000003265729
       5        0.000005468550    -0.000007221500     0.000007630006
       6        0.001713143577     0.009444362295    -0.000656081428
       7       -0.000000070990     0.000006626614     0.000004672607
       8        0.000000520388     0.000006885865     0.000012397120
       9       -0.000649043999    -0.008619918801     0.004047282068
      10        0.000074639545     0.000010859493    -0.000038904618
      11        0.000098195911     0.004378641772    -0.002875545002
      12        0.000004081633     0.000007141969     0.000003738771
      13        0.000037195093    -0.000016173371     0.000002142129
      14       -0.000038446354     0.000007237438     0.000009951021
      15        0.000014070820    -0.000018364345    -0.000015273266
      16       -0.000000219027     0.000026053973     0.000009913554
      17        0.000001191793     0.000007293345    -0.000008619957
      18       -0.000003097658    -0.000011809533    -0.000003595802
      19        0.000017763113     0.000006121878     0.000013607846
      20       -0.000000491161    -0.000004576836    -0.000012914181
      21       -0.000017189744     0.000012104424     0.000017721619
      22       -0.000008183380    -0.000004197860    -0.000007808129

  **** Optimization is complete! (in 8 steps) ****
    Final optimized geometry and variables:
    Molecular point group: c1

    Geometry (in Angstrom), charge = 0, multiplicity = 1:

    H            1.872614130422     0.773249142513    -2.745987032163
    C            1.754000129873     0.661995100347    -1.671792511581
    C            0.300100703983     0.342084045350    -1.333336200238
    H            2.051950817344     1.588670817670    -1.194143116284
    H            2.437751443680    -0.115232525418    -1.348696458450
    N            0.065278063863     0.262792634000     0.100936543793
    H           -0.309191490903     1.148628404441    -1.725601525822
    H           -0.012065778106    -0.565711732083    -1.854578726193
    C           -1.312061238691     0.547738467491     0.499993758129
    C            0.565470845643    -0.975445564091     0.691146715729
    C           -2.432448861656    -0.010243981616    -0.386714663036
    H           -1.431993659637     1.627882344204     0.546791315993
    H           -1.447897682900     0.188350791169     1.511778658819
    C            1.068131029868    -0.780499648184     2.118438026095
    H            1.389390838407    -1.338908259761     0.090896562649
    H           -0.191525498974    -1.763123240641     0.668742887781
    H           -2.432000154686     0.432778232140    -1.375180545299
    H           -2.362786712816    -1.088068412887    -0.503115452040
    H           -3.394262823634     0.209177464139     0.067799092237
    H            1.867861911810    -0.048399765490     2.135617252928
    H            0.284796748013    -0.431553331769     2.782924449731
    H            1.446757500194    -1.716587146890     2.519818713906

  Mulliken Charges: (a.u.)
   Center  Symbol    Alpha    Beta     Spin     Total
       1     H     0.42336  0.42336  0.00000  0.15328
       2     C     3.23620  3.23620  0.00000 -0.47241
       3     C     3.05896  3.05896  0.00000 -0.11792
       4     H     0.41474  0.41474  0.00000  0.17053
       5     H     0.42151  0.42151  0.00000  0.15697
       6     N     3.78489  3.78489  0.00000 -0.56978
       7     H     0.41893  0.41893  0.00000  0.16213
       8     H     0.43116  0.43116  0.00000  0.13768
       9     C     3.05715  3.05715  0.00000 -0.11429
      10     C     3.06249  3.06249  0.00000 -0.12498
      11     C     3.25070  3.25070  0.00000 -0.50140
      12     H     0.41844  0.41844  0.00000  0.16313
      13     H     0.41860  0.41860  0.00000  0.16280
      14     C     3.23307  3.23307  0.00000 -0.46613
      15     H     0.41896  0.41896  0.00000  0.16208
      16     H     0.43121  0.43121  0.00000  0.13757
      17     H     0.41854  0.41854  0.00000  0.16291
      18     H     0.41986  0.41986  0.00000  0.16029
      19     H     0.41924  0.41924  0.00000  0.16153
      20     H     0.41569  0.41569  0.00000  0.16862
      21     H     0.42156  0.42156  0.00000  0.15688
      22     H     0.42474  0.42474  0.00000  0.15052

   Total alpha = 29.00000, Total beta = 29.00000, Total charge = -0.00000
