  ==> Input File <==

--------------------------------------------------------------------------
set {
	reference rhf
	basis 6-31G*
}

set_num_threads( 4 )
memory 2 gb

molecule MOL {
0 1

H	 -2.798360	 -0.862255	 -0.071053
N	 -1.863561	 -0.715187	 0.256814
C	 -1.344686	 0.554728	 -0.219830
H	 -1.300452	 -1.461917	 -0.101532
C	 0.081427	 0.741154	 0.254071
H	 -1.362155	 0.656231	 -1.305829
H	 -1.952773	 1.354456	 0.191809
O	 0.874168	 -0.245412	 -0.342030
H	 0.444037	 1.730782	 -0.023037
H	 0.121165	 0.653424	 1.337565
C	 1.683336	 -0.946836	 0.547251
H	 2.244730	 -1.673943	 -0.023581
H	 2.381630	 -0.285171	 1.056730
H	 1.091602	 -1.467564	 1.297253

	symmetry c1
}
set optking {
	frozen_dihedral = ("
		11 8 5 3
	")
}

ee = optimize('scf')
oeprop('DIPOLE', 'QUADRUPOLE', 'MULLIKEN_CHARGES')
f=open( 'psi4out.xyz', 'w' )
f.write( "14  " )
f.write( str(ee) + "\n" )
f.write( MOL.save_string_xyz() )
f.close()
--------------------------------------------------------------------------

    Molecular point group: c1
  Charge       = 0
  Multiplicity = 1
  Basis Set: 6-31G*
  Basis Set:
  @DF-RHF Final Energy:  -248.12171591214343
    Total Energy =                       -248.1217159121432587
    Molecular point group: c1
  Basis Set: 6-31G*
  Basis Set:
  Basis Set: 6-31G*
  Basis Set:
  @DF-RHF Final Energy:  -248.12210733967407
    Total Energy =                       -248.1221073396739598
  Basis Set: 6-31G*
  Basis Set:
  Basis Set: 6-31G*
  Basis Set:
  @DF-RHF Final Energy:  -248.12218693306133
    Total Energy =                       -248.1221869330611867
  Basis Set: 6-31G*
  Basis Set:
  Basis Set: 6-31G*
  Basis Set:
  @DF-RHF Final Energy:  -248.12219039264542
    Total Energy =                       -248.1221903926452796
  Basis Set: 6-31G*
  Basis Set:
  Charge       = 0
  Multiplicity = 1
  Basis Set: 6-31G*
  Basis Set:

    Orbital Energies (a.u.)
    -----------------------

    Doubly Occupied:

       1A    -20.553026     2A    -15.531709     3A    -11.264254
       4A    -11.263878     5A    -11.240647     6A     -1.375073
       7A     -1.175518     8A     -0.998466     9A     -0.906737
      10A     -0.813800    11A     -0.685193    12A     -0.668591
      13A     -0.642792    14A     -0.613974    15A     -0.600897
      16A     -0.538907    17A     -0.530367    18A     -0.501824
      19A     -0.469972    20A     -0.413406    21A     -0.381039

  @DF-RHF Final Energy:  -248.12219065368114

   => Energetics <=

    Nuclear Repulsion Energy =            196.0396708381971678
    One-Electron Energy =                -725.9835850947324616
    Two-Electron Energy =                 281.8217236028542629
    DFT Exchange-Correlation Energy =       0.0000000000000000
    Empirical Dispersion Energy =           0.0000000000000000
    PCM Polarization Energy =               0.0000000000000000
    EFP Energy =                            0.0000000000000000
    Total Energy =                       -248.1221906536810593
    Molecular point group: c1
  Basis Set: 6-31G*
  Basis Set:

  -Total Gradient:
     Atom            X                  Y                   Z
    ------   -----------------  -----------------  -----------------
       1        0.000004934791     0.000011530053    -0.000002509593
       2       -0.000001516927     0.000032740555    -0.000003218053
       3       -0.000239643897    -0.000859704670     0.001092375895
       4        0.000008086287     0.000019230189     0.000001231275
       5       -0.000139680872     0.000623845321    -0.001409832648
       6       -0.000003605434    -0.000010368823     0.000011169196
       7       -0.000016780528    -0.000001239657     0.000009530574
       8        0.001563499978     0.001253466640     0.000063002040
       9       -0.000016283890     0.000010093424    -0.000004977678
      10       -0.000004838663    -0.000008880703     0.000005030138
      11       -0.001163315814    -0.001067630801     0.000223433762
      12       -0.000002390398    -0.000000652620     0.000008032523
      13        0.000007846958    -0.000001273810     0.000008488087
      14        0.000003688406    -0.000001155097    -0.000001755521

  **** Optimization is complete! (in 5 steps) ****
    Final optimized geometry and variables:
    Molecular point group: c1

    Geometry (in Angstrom), charge = 0, multiplicity = 1:

    H           -2.712336280111    -0.694683371414    -0.127593010516
    N           -1.751620546738    -0.578104127403     0.130254748599
    C           -1.249638026475     0.708377010917    -0.321283165990
    H           -1.235739195722    -1.310261333843    -0.318096481036
    C            0.180495832173     0.894323534106     0.147139507334
    H           -1.283990116252     0.832215653623    -1.404603279085
    H           -1.861143632799     1.493227920226     0.113874184030
    O            0.990706726589    -0.101521338655    -0.422234199048
    H            0.553710034348     1.871446550879    -0.148557716552
    H            0.206270003169     0.833058205593     1.230510013255
    C            1.811204873206    -0.796987267422     0.465724934169
    H            2.348976261954    -1.540692300016    -0.107146217752
    H            2.533264930270    -0.138882113510     0.944559685010
    H            1.229769529321    -1.295320621726     1.236602573288

  Mulliken Charges: (a.u.)
   Center  Symbol    Alpha    Beta     Spin     Total
       1     H     0.33183  0.33183  0.00000  0.33635
       2     N     3.92615  3.92615  0.00000 -0.85230
       3     C     3.06966  3.06966  0.00000 -0.13932
       4     H     0.32603  0.32603  0.00000  0.34793
       5     C     2.98983  2.98983  0.00000  0.02035
       6     H     0.42646  0.42646  0.00000  0.14707
       7     H     0.42178  0.42178  0.00000  0.15645
       8     O     4.31304  4.31304  0.00000 -0.62608
       9     H     0.42449  0.42449  0.00000  0.15102
      10     H     0.42238  0.42238  0.00000  0.15523
      11     C     3.08175  3.08175  0.00000 -0.16351
      12     H     0.41462  0.41462  0.00000  0.17076
      13     H     0.42906  0.42906  0.00000  0.14187
      14     H     0.42291  0.42291  0.00000  0.15417

   Total alpha = 21.00000, Total beta = 21.00000, Total charge =  0.00000
