  ==> Input File <==

--------------------------------------------------------------------------
set {
	reference rhf
	basis 6-31G*
}

set_num_threads( 4 )
memory 2 gb

molecule MOL {
0 1

H	 3.276176	 0.174363	 -0.109463
N	 2.434251	 -0.367735	 -0.081097
C	 1.267428	 0.496480	 0.024474
H	 2.501951	 -0.965776	 0.720575
C	 -0.016086	 -0.325158	 -0.029487
H	 1.288818	 1.183521	 -0.816092
H	 1.267576	 1.109062	 0.929528
C	 -1.282277	 0.529072	 0.046735
H	 -0.012495	 -0.908639	 -0.945788
H	 -0.015903	 -1.041248	 0.791956
C	 -1.014392	 1.944866	 0.556115
H	 -2.005701	 0.043680	 0.698685
H	 -1.745384	 0.582318	 -0.936451
H	 -0.583162	 1.927003	 1.552830
H	 -1.929781	 2.526685	 0.601607
H	 -0.320324	 2.470273	 -0.093838

	symmetry c1
}
set optking {
	frozen_dihedral = ("
		12 8 5 9
	")
}

ee = optimize('scf')
oeprop('DIPOLE', 'QUADRUPOLE', 'MULLIKEN_CHARGES')
f=open( 'psi4out.xyz', 'w' )
f.write( "16  " )
f.write( str(ee) + "\n" )
f.write( MOL.save_string_xyz() )
f.close()
--------------------------------------------------------------------------

    Molecular point group: c1
  Charge       = 0
  Multiplicity = 1
  Basis Set: 6-31G*
  Basis Set:
  @DF-RHF Final Energy:  -212.30484205188884
    Total Energy =                       -212.3048420518888406
    Molecular point group: c1
  Basis Set: 6-31G*
  Basis Set:
  Basis Set: 6-31G*
  Basis Set:
  @DF-RHF Final Energy:  -212.30525898193619
    Total Energy =                       -212.3052589819362765
  Basis Set: 6-31G*
  Basis Set:
  Basis Set: 6-31G*
  Basis Set:
  @DF-RHF Final Energy:  -212.30817479506442
    Total Energy =                       -212.3081747950643603
  Basis Set: 6-31G*
  Basis Set:
  Basis Set: 6-31G*
  Basis Set:
  @DF-RHF Final Energy:  -212.30854674400663
    Total Energy =                       -212.3085467440064917
  Basis Set: 6-31G*
  Basis Set:
  Basis Set: 6-31G*
  Basis Set:
  @DF-RHF Final Energy:  -212.30856217439108
    Total Energy =                       -212.3085621743911702
  Basis Set: 6-31G*
  Basis Set:
  Basis Set: 6-31G*
  Basis Set:
  @DF-RHF Final Energy:  -212.30859452015127
    Total Energy =                       -212.3085945201513027
  Basis Set: 6-31G*
  Basis Set:
  Charge       = 0
  Multiplicity = 1
  Basis Set: 6-31G*
  Basis Set:

    Orbital Energies (a.u.)
    -----------------------

    Doubly Occupied:

       1A    -15.532104     2A    -11.239008     3A    -11.215760
       4A    -11.210059     5A    -11.208851     6A     -1.176277
       7A     -1.054551     8A     -0.953835     9A     -0.863022
      10A     -0.773754    11A     -0.658073    12A     -0.639189
      13A     -0.618472    14A     -0.573048    15A     -0.547534
      16A     -0.533771    17A     -0.513721    18A     -0.466305
      19A     -0.461503    20A     -0.452315    21A     -0.380428

  @DF-RHF Final Energy:  -212.30859515987305

   => Energetics <=

    Nuclear Repulsion Energy =            189.0550733403261461
    One-Electron Energy =                -660.5841750641264980
    Two-Electron Energy =                 259.2205065639271879
    DFT Exchange-Correlation Energy =       0.0000000000000000
    Empirical Dispersion Energy =           0.0000000000000000
    PCM Polarization Energy =               0.0000000000000000
    EFP Energy =                            0.0000000000000000
    Total Energy =                       -212.3085951598731640
    Molecular point group: c1
  Basis Set: 6-31G*
  Basis Set:

  -Total Gradient:
     Atom            X                  Y                   Z
    ------   -----------------  -----------------  -----------------
       1       -0.000004448569     0.000000674568     0.000001224364
       2       -0.000007748019    -0.000026343585     0.000058645612
       3       -0.000014165125     0.000029388076    -0.000123653312
       4        0.000022864601    -0.000017703025     0.000002375326
       5       -0.002607412099    -0.004087114928     0.003914893203
       6       -0.000010947514     0.000054188442    -0.000005854121
       7       -0.000014929819    -0.000046106298    -0.000001248829
       8       -0.001623288972    -0.002260114073    -0.005440527380
       9        0.002479375496     0.003811803437    -0.002399954479
      10       -0.000023308954    -0.000024448452     0.000001186259
      11        0.000000031078    -0.000007701711    -0.000000098568
      12        0.001797176098     0.002578787537     0.003995341888
      13       -0.000002115748    -0.000004999660    -0.000005381731
      14        0.000008622702     0.000006534246     0.000006775845
      15        0.000000548549    -0.000004406326     0.000001865158
      16       -0.000000253707    -0.000002438245    -0.000005589237

  **** Optimization is complete! (in 7 steps) ****
    Final optimized geometry and variables:
    Molecular point group: c1

    Geometry (in Angstrom), charge = 0, multiplicity = 1:

    H            3.001446889793    -0.418638944910    -0.285045019107
    N            2.130403349115    -0.911951612961    -0.244285919865
    C            1.019515125201     0.018360771855    -0.090924721018
    H            2.184121139380    -1.527548656030     0.545256864839
    C           -0.300367363748    -0.754797416048    -0.101418488775
    H            1.049339563581     0.702791910750    -0.932961765697
    H            1.098409173249     0.624689404646     0.811674383494
    C           -1.593310693649     0.097983456637    -0.072138611431
    H           -0.280666003986    -1.346399232352    -1.010168917080
    H           -0.296826469338    -1.449882529933     0.734924578610
    C           -1.454090944872     1.532084646889     0.453883633086
    H           -2.316052611336    -0.395741609523     0.570918214654
    H           -2.026454131212     0.135652673075    -1.066646878300
    H           -1.079735399381     1.551629189010     1.473004399823
    H           -2.423590193392     2.020887691051     0.454456162445
    H           -0.788442256398     2.133218549826    -0.156392813689

  Mulliken Charges: (a.u.)
   Center  Symbol    Alpha    Beta     Spin     Total
       1     H     0.33251  0.33251  0.00000  0.33498
       2     N     3.92225  3.92225  0.00000 -0.84450
       3     C     3.06400  3.06400  0.00000 -0.12799
       4     H     0.33566  0.33566  0.00000  0.32869
       5     C     3.15608  3.15608  0.00000 -0.31215
       6     H     0.42078  0.42078  0.00000  0.15844
       7     H     0.43196  0.43196  0.00000  0.13608
       8     C     3.15664  3.15664  0.00000 -0.31328
       9     H     0.40952  0.40952  0.00000  0.18096
      10     H     0.42596  0.42596  0.00000  0.14809
      11     C     3.24416  3.24416  0.00000 -0.48833
      12     H     0.42023  0.42023  0.00000  0.15953
      13     H     0.41900  0.41900  0.00000  0.16200
      14     H     0.42179  0.42179  0.00000  0.15642
      15     H     0.41887  0.41887  0.00000  0.16227
      16     H     0.42061  0.42061  0.00000  0.15879

   Total alpha = 21.00000, Total beta = 21.00000, Total charge = -0.00000
