                              Psi4 1.0.54 Driver

  ==> Input File <==

--------------------------------------------------------------------------
set {
	reference rhf
	basis cc-pvtz
}

set_num_threads( 4 )
memory 2 gb

molecule MOL {
0 1

H	 2.828711	 -0.346904	 0.001083
C	 1.876752	 0.015931	 -0.363450
C	 0.776285	 -0.474665	 0.563092
H	 1.728113	 -0.357244	 -1.367440
H	 1.906171	 1.096574	 -0.386153
N	 -0.540022	 0.017605	 0.071630
H	 0.707111	 -1.548969	 0.573035
H	 0.886169	 -0.084184	 1.560432
O	 -1.434918	 0.040050	 0.848066
O	 -0.610706	 0.326713	 -1.070234

	symmetry c1
}
set optking {
	frozen_dihedral = ("
		9 6 3 2
	")
}

ee,wfn = optimize('scf', return_wfn=True)
oeprop( wfn, 'DIPOLE', 'QUADRUPOLE', 'MULLIKEN_CHARGES')
f=open( 'psi4out.xyz', 'w' )
f.write( "10  " )
f.write( str(ee) + "\n" )
f.write( MOL.save_string_xyz() )
f.close()
--------------------------------------------------------------------------

    Molecular point group: c1
  Charge       = 0
  Multiplicity = 1
  Basis Set: CC-PVTZ
  Basis Set:
  @DF-RHF Final Energy:  -282.81145701192895
    Total Energy =                       -282.8114570119288373
    Molecular point group: c1
  Basis Set: CC-PVTZ
  Basis Set:
  Basis Set: CC-PVTZ
  Basis Set:
  @DF-RHF Final Energy:  -282.81224723617225
    Total Energy =                       -282.8122472361721975
  Basis Set: CC-PVTZ
  Basis Set:
  Basis Set: CC-PVTZ
  Basis Set:
  @DF-RHF Final Energy:  -282.81273548560716
    Total Energy =                       -282.8127354856071065
  Basis Set: CC-PVTZ
  Basis Set:
  Basis Set: CC-PVTZ
  Basis Set:
  @DF-RHF Final Energy:  -282.81054729712559
    Total Energy =                       -282.8105472971256518
  Basis Set: CC-PVTZ
  Basis Set:
  Basis Set: CC-PVTZ
  Basis Set:
  @DF-RHF Final Energy:  -282.81286999587337
    Total Energy =                       -282.8128699958733137
  Basis Set: CC-PVTZ
  Basis Set:
  Basis Set: CC-PVTZ
  Basis Set:
  @DF-RHF Final Energy:  -282.81291218099193
    Total Energy =                       -282.8129121809918729
  Basis Set: CC-PVTZ
  Basis Set:
  Basis Set: CC-PVTZ
  Basis Set:
  @DF-RHF Final Energy:  -282.81292249152170
    Total Energy =                       -282.8129224915218174
  Basis Set: CC-PVTZ
  Basis Set:
  Charge       = 0
  Multiplicity = 1
  Basis Set: CC-PVTZ
  Basis Set:

    Orbital Energies (a.u.)
    -----------------------

    Doubly Occupied:

       1A    -20.593959     2A    -20.590044     3A    -15.839553
       4A    -11.303161     5A    -11.244113     6A     -1.638589
       7A     -1.422844     8A     -1.124100     9A     -0.966961
      10A     -0.835354    11A     -0.763722    12A     -0.751176
      13A     -0.732146    14A     -0.641252    15A     -0.594049
      16A     -0.564131    17A     -0.538916    18A     -0.490129
      19A     -0.479849    20A     -0.455572

  @DF-RHF Final Energy:  -282.81292267044671

   => Energetics <=

    Nuclear Repulsion Energy =            186.5713573964238492
    One-Electron Energy =                -755.6293206755490246
    Two-Electron Energy =                 286.2450406086786643
    DFT Exchange-Correlation Energy =       0.0000000000000000
    Empirical Dispersion Energy =           0.0000000000000000
    PCM Polarization Energy =               0.0000000000000000
    EFP Energy =                            0.0000000000000000
    Total Energy =                       -282.8129226704464827
    Molecular point group: c1
  Basis Set: CC-PVTZ
  Basis Set:

  -Total Gradient:
     Atom            X                  Y                   Z
    ------   -----------------  -----------------  -----------------
       1        0.000000933013    -0.000000455752     0.000000239660
       2        0.000008420001    -0.000085578321    -0.000050534976
       3       -0.000031961907     0.000093859644     0.000057099508
       4       -0.000003048986    -0.000002419055    -0.000000144996
       5       -0.000004076356    -0.000004307366     0.000003612136
       6       -0.000016926833     0.000099418282     0.000100935486
       7        0.000008457611     0.000006833958    -0.000005734956
       8        0.000009748042    -0.000004316108     0.000000133713
       9        0.000023466076    -0.000115161539    -0.000069852763
      10        0.000004989340     0.000012126259    -0.000035752812

  **** Optimization is complete! (in 8 steps) ****
    Final optimized geometry and variables:
    Molecular point group: c1

    Geometry (in Angstrom), charge = 0, multiplicity = 1:

    H            2.862137393762    -0.257594884949     0.170916011968
    C            1.938898527566     0.063022407796    -0.295967895467
    C            0.787483775417    -0.394397922868     0.570290098055
    H            1.883047646493    -0.363349224846    -1.285519030205
    H            1.957506033462     1.140486494918    -0.385931559834
    N           -0.549322992685     0.014578081994     0.041705549081
    H            0.727521927148    -1.471676424181     0.635992352351
    H            0.823529618653     0.003698582726     1.570374808683
    O           -1.441090409172     0.020338689269     0.822135747406
    O           -0.643491242556     0.275269341564    -1.108928654772

  Mulliken Charges: (a.u.)
   Center  Symbol    Alpha    Beta     Spin     Total
       1     H     0.44935  0.44935  0.00000  0.10130
       2     C     3.13914  3.13914  0.00000 -0.27828
       3     C     3.04280  3.04280  0.00000 -0.08559
       4     H     0.43857  0.43857  0.00000  0.12286
       5     H     0.44417  0.44417  0.00000  0.11165
       6     N     3.27646  3.27646  0.00000  0.44708
       7     H     0.43530  0.43530  0.00000  0.12941
       8     H     0.43156  0.43156  0.00000  0.13687
       9     O     4.17244  4.17244  0.00000 -0.34488
      10     O     4.17021  4.17021  0.00000 -0.34042

   Total alpha = 20.00000, Total beta = 20.00000, Total charge = -0.00000

*** Psi4 exiting successfully. Buy a developer a beer!
