  ==> Input File <==

--------------------------------------------------------------------------
set {
	reference rhf
	basis 6-31G*
}

set_num_threads( 1 )
memory 2 gb

molecule MOL {
0 1

O	 -2.184205	 1.598921	 -0.235212
C	 -2.055869	 0.412683	 -0.206875
C	 -0.841113	 -0.253961	 -0.828374
C	 -3.070859	 -0.479675	 0.471997
C	 0.379448	 -0.143569	 0.099626
H	 -0.631028	 0.252232	 -1.764290
H	 -1.047984	 -1.297669	 -1.047243
C	 1.631333	 -0.777471	 -0.511575
H	 0.548203	 0.905912	 0.312924
H	 0.161364	 -0.626607	 1.050868
C	 2.915987	 -0.544314	 0.291766
H	 1.766672	 -0.399098	 -1.523130
H	 1.471257	 -1.849544	 -0.605828
C	 3.373361	 0.914346	 0.347591
H	 3.708709	 -1.142521	 -0.150311
H	 2.780642	 -0.921148	 1.303579
H	 3.506512	 1.320010	 -0.651625
H	 4.322697	 0.999599	 0.867103
H	 2.660624	 1.545032	 0.868198
H	 -3.563981	 -1.102290	 -0.269924
H	 -3.809156	 0.121853	 0.983724
H	 -2.584862	 -1.147048	 1.177847

	symmetry c1
}
set optking {
	frozen_dihedral = ("
		6 3 2 1,
		6 3 5 8,
		12 8 11 15
	")
}

ee = energy('scf')
oeprop('DIPOLE', 'QUADRUPOLE', 'MULLIKEN_CHARGES')
f=open( 'psi4out.xyz', 'w' )
f.write( "22  " )
f.write( str(ee) + "\n" )
f.write( MOL.save_string_xyz() )
f.close()
--------------------------------------------------------------------------

    Molecular point group: c1

    Geometry (in Angstrom), charge = 0, multiplicity = 1:

       Center              X                  Y                   Z               Mass
    ------------   -----------------  -----------------  -----------------  -----------------
           O         -2.205357936213     1.496000924143    -0.171795434482    15.994914619560
           C         -2.077021936213     0.309762924143    -0.143458434482    12.000000000000
           C         -0.862265936213    -0.356881075857    -0.764957434482    12.000000000000
           C         -3.092011936213    -0.582595075857     0.535413565518    12.000000000000
           C          0.358295063787    -0.246489075857     0.163042565518    12.000000000000
           H         -0.652180936213     0.149311924143    -1.700873434482     1.007825032070
           H         -1.069136936213    -1.400589075857    -0.983826434482     1.007825032070
           C          1.610180063787    -0.880391075857    -0.448158434482    12.000000000000
           H          0.527050063787     0.802991924143     0.376340565518     1.007825032070
           H          0.140211063787    -0.729527075857     1.114284565518     1.007825032070
           C          2.894834063787    -0.647234075857     0.355182565518    12.000000000000
           H          1.745519063787    -0.502018075857    -1.459713434482     1.007825032070
           H          1.450104063787    -1.952464075857    -0.542411434482     1.007825032070
           C          3.352208063787     0.811425924143     0.411007565518    12.000000000000
           H          3.687556063787    -1.245441075857    -0.086894434482     1.007825032070
           H          2.759489063787    -1.024068075857     1.366995565518     1.007825032070
           H          3.485359063787     1.217089924143    -0.588208434482     1.007825032070
           H          4.301544063787     0.896678924143     0.930519565518     1.007825032070
           H          2.639471063787     1.442111924143     0.931614565518     1.007825032070
           H         -3.585133936213    -1.205210075857    -0.206507434482     1.007825032070
           H         -3.830308936213     0.018932924143     1.047140565518     1.007825032070
           H         -2.606014936213    -1.249968075857     1.241263565518     1.007825032070

  Charge       = 0
  Multiplicity = 1
  Basis Set: 6-31G*
  Basis Set:

    Orbital Energies (a.u.)
    -----------------------

    Doubly Occupied:

       1A    -20.547355     2A    -11.324472     3A    -11.229453
       4A    -11.228880     5A    -11.228168     6A    -11.222302
       7A    -11.220468     8A    -11.210753     9A     -1.393087
      10A     -1.095585    11A     -1.044095    12A     -0.999360
      13A     -0.937682    14A     -0.857475    15A     -0.786311
      16A     -0.732835    17A     -0.662206    18A     -0.644330
      19A     -0.625916    20A     -0.621054    21A     -0.597398
      22A     -0.580431    23A     -0.564142    24A     -0.542311
      25A     -0.533845    26A     -0.517515    27A     -0.499353
      28A     -0.487268    29A     -0.470322    30A     -0.463486
      31A     -0.460206    32A     -0.396183

  @DF-RHF Final Energy:  -348.09794717677460

   => Energetics <=

    Nuclear Repulsion Energy =            373.2770676084955994
    One-Electron Energy =               -1211.3017060266122371
    Two-Electron Energy =                 489.9266912413419277
    DFT Exchange-Correlation Energy =       0.0000000000000000
    Empirical Dispersion Energy =           0.0000000000000000
    PCM Polarization Energy =               0.0000000000000000
    EFP Energy =                            0.0000000000000000
    Total Energy =                       -348.0979471767747100

  Mulliken Charges: (a.u.)
   Center  Symbol    Alpha    Beta     Spin     Total
       1     O     4.26252  4.26252  0.00000 -0.52504
       2     C     2.73714  2.73714  0.00000  0.52571
       3     C     3.19957  3.19957  0.00000 -0.39914
       4     C     3.28947  3.28947  0.00000 -0.57895
       5     C     3.16435  3.16435  0.00000 -0.32870
       6     H     0.40116  0.40116  0.00000  0.19769
       7     H     0.41702  0.41702  0.00000  0.16595
       8     C     3.15280  3.15280  0.00000 -0.30560
       9     H     0.40355  0.40355  0.00000  0.19290
      10     H     0.42091  0.42091  0.00000  0.15818
      11     C     3.15333  3.15333  0.00000 -0.30665
      12     H     0.42130  0.42130  0.00000  0.15739
      13     H     0.42150  0.42150  0.00000  0.15700
      14     C     3.24212  3.24212  0.00000 -0.48423
      15     H     0.41953  0.41953  0.00000  0.16093
      16     H     0.42288  0.42288  0.00000  0.15424
      17     H     0.42083  0.42083  0.00000  0.15833
      18     H     0.41814  0.41814  0.00000  0.16372
      19     H     0.41809  0.41809  0.00000  0.16383
      20     H     0.40692  0.40692  0.00000  0.18616
      21     H     0.39712  0.39712  0.00000  0.20577
      22     H     0.40974  0.40974  0.00000  0.18051

   Total alpha = 32.00000, Total beta = 32.00000, Total charge = -0.00000
