  ==> Input File <==

--------------------------------------------------------------------------
set {
	reference rhf
	basis 6-31G*
}

set_num_threads( 4 )
memory 2 gb

molecule MOL {
0 1

H	 1.171371	 -2.148349	 1.320070
C	 1.295353	 -1.095560	 1.601258
C	 0.049739	 -0.253543	 1.499326
O	 2.356081	 -0.693324	 1.955080
C	 -0.558097	 -0.297372	 0.091132
H	 0.299863	 0.759912	 1.790578
H	 -0.672920	 -0.641606	 2.216265
C	 -1.850991	 0.512573	 -0.019058
H	 0.167693	 0.081866	 -0.624536
H	 -0.756192	 -1.330608	 -0.188226
C	 -3.096943	 -0.368295	 -0.099594
H	 -1.800724	 1.150330	 -0.898172
H	 -1.931651	 1.177355	 0.838044
H	 -3.060452	 -1.020287	 -0.967456
H	 -3.996858	 0.233488	 -0.175704
H	 -3.191959	 -0.995686	 0.782074

	symmetry c1
}
set optking {
	frozen_dihedral = ("
		9 5 8 12
	")
}

ee = optimize('scf')
oeprop('DIPOLE', 'QUADRUPOLE', 'MULLIKEN_CHARGES')
f=open( 'psi4out.xyz', 'w' )
f.write( "16  " )
f.write( str(ee) + "\n" )
f.write( MOL.save_string_xyz() )
f.close()
--------------------------------------------------------------------------

    Molecular point group: c1
  Charge       = 0
  Multiplicity = 1
  Basis Set: 6-31G*
  Basis Set:
  @DF-RHF Final Energy:  -270.01449442976116
    Total Energy =                       -270.0144944297613847
    Molecular point group: c1
  Basis Set: 6-31G*
  Basis Set:
  Basis Set: 6-31G*
  Basis Set:
  @DF-RHF Final Energy:  -270.01469000461168
    Total Energy =                       -270.0146900046116798
  Basis Set: 6-31G*
  Basis Set:
  Basis Set: 6-31G*
  Basis Set:
  @DF-RHF Final Energy:  -270.01169736852455
    Total Energy =                       -270.0116973685246080
  Basis Set: 6-31G*
  Basis Set:
  Basis Set: 6-31G*
  Basis Set:
  @DF-RHF Final Energy:  -270.01484290625319
    Total Energy =                       -270.0148429062531932
  Basis Set: 6-31G*
  Basis Set:
  Basis Set: 6-31G*
  Basis Set:
  @DF-RHF Final Energy:  -270.01485093136966
    Total Energy =                       -270.0148509313698355
  Basis Set: 6-31G*
  Basis Set:
  Basis Set: 6-31G*
  Basis Set:
  @DF-RHF Final Energy:  -270.01478297579820
    Total Energy =                       -270.0147829757981981
  Basis Set: 6-31G*
  Basis Set:
  Basis Set: 6-31G*
  Basis Set:
  @DF-RHF Final Energy:  -270.01488570588612
    Total Energy =                       -270.0148857058861722
  Basis Set: 6-31G*
  Basis Set:
  Charge       = 0
  Multiplicity = 1
  Basis Set: 6-31G*
  Basis Set:

    Orbital Energies (a.u.)
    -----------------------

    Doubly Occupied:

       1A    -20.562641     2A    -11.326444     3A    -11.236402
       4A    -11.235674     5A    -11.229052     6A    -11.220098
       7A     -1.402372     8A     -1.094820     9A     -1.017690
      10A     -0.908196    11A     -0.811697    12A     -0.794507
      13A     -0.678330    14A     -0.638872    15A     -0.631611
      16A     -0.610035    17A     -0.574632    18A     -0.557201
      19A     -0.529675    20A     -0.509972    21A     -0.487196
      22A     -0.483268    23A     -0.471312    24A     -0.408938

  @DF-RHF Final Energy:  -270.01488572167978

   => Energetics <=

    Nuclear Repulsion Energy =            229.9334815664803102
    One-Electron Energy =                -821.0554624735813150
    Two-Electron Energy =                 321.1070951854210875
    DFT Exchange-Correlation Energy =       0.0000000000000000
    Empirical Dispersion Energy =           0.0000000000000000
    PCM Polarization Energy =               0.0000000000000000
    EFP Energy =                            0.0000000000000000
    Total Energy =                       -270.0148857216799456
    Molecular point group: c1
  Basis Set: 6-31G*
  Basis Set:

  -Total Gradient:
     Atom            X                  Y                   Z
    ------   -----------------  -----------------  -----------------
       1       -0.000013234475     0.000013346299    -0.000017282447
       2        0.000069022475     0.000006097692     0.000033762780
       3       -0.000006056515     0.000050838764    -0.000086405642
       4       -0.000047207853    -0.000005555867    -0.000014057499
       5        0.001346162375     0.002866991989     0.002976546789
       6       -0.000006884730     0.000000193896     0.000018373500
       7       -0.000015021885    -0.000004969122     0.000009940636
       8       -0.001566527221    -0.003164531132    -0.002493035958
       9       -0.000966788434    -0.001853301930    -0.002014849860
      10       -0.000046179224    -0.000031624785    -0.000006252655
      11        0.000058008143    -0.000035410451     0.000000316568
      12        0.001177058352     0.002117370949     0.001558781413
      13        0.000012217400     0.000017060487     0.000043309090
      14       -0.000033900888     0.000028353486    -0.000025502617
      15        0.000023825122     0.000015622295     0.000036721256
      16        0.000015507359    -0.000020482568    -0.000020365358

  **** Optimization is complete! (in 8 steps) ****
    Final optimized geometry and variables:
    Molecular point group: c1

    Geometry (in Angstrom), charge = 0, multiplicity = 1:

    H            1.440005703433    -1.788210070146     0.490329993507
    C            1.584421361030    -0.738023297709     0.771173434630
    C            0.359271346631     0.131461245651     0.654992287581
    O            2.650756311672    -0.357974416846     1.132608728008
    C           -0.231097169716     0.106227242650    -0.760845852452
    H            0.626425818797     1.138500250937     0.952576354854
    H           -0.381908057896    -0.243042678141     1.360571804246
    C           -1.554339076331     0.891365448998    -0.880962430726
    H            0.498617963895     0.489117779346    -1.468057732045
    H           -0.401751826198    -0.927664391937    -1.055370275256
    C           -2.791761513929    -0.003676543652    -0.929450683926
    H           -1.523447009457     1.529293095878    -1.758735772517
    H           -1.643649872016     1.572622886071    -0.038240164642
    H           -2.777444485298    -0.644278604460    -1.806254737400
    H           -3.701522904421     0.587117577077    -0.964325509748
    H           -2.848058107961    -0.644300933894    -0.053387294608

  Mulliken Charges: (a.u.)
   Center  Symbol    Alpha    Beta     Spin     Total
       1     H     0.43207  0.43207  0.00000  0.13586
       2     C     2.83034  2.83034  0.00000  0.33931
       3     C     3.20903  3.20903  0.00000 -0.41806
       4     O     4.23700  4.23700  0.00000 -0.47400
       5     C     3.16865  3.16865  0.00000 -0.33730
       6     H     0.39871  0.39871  0.00000  0.20258
       7     H     0.40978  0.40978  0.00000  0.18044
       8     C     3.15562  3.15562  0.00000 -0.31124
       9     H     0.40959  0.40959  0.00000  0.18082
      10     H     0.41765  0.41765  0.00000  0.16469
      11     C     3.24079  3.24079  0.00000 -0.48158
      12     H     0.41511  0.41511  0.00000  0.16979
      13     H     0.41767  0.41767  0.00000  0.16466
      14     H     0.41928  0.41928  0.00000  0.16145
      15     H     0.41667  0.41667  0.00000  0.16666
      16     H     0.42204  0.42204  0.00000  0.15592

   Total alpha = 24.00000, Total beta = 24.00000, Total charge =  0.00000
