  ==> Input File <==

--------------------------------------------------------------------------
set {
	reference rhf
	basis cc-pvtz
}

set_num_threads( 4 )
memory 2 gb

molecule MOL {
0 1

H	 -2.817963	 0.279626	 -0.697834
O	 -2.313989	 -0.142475	 -0.025864
C	 -0.943808	 -0.065018	 -0.330000
H	 -0.812293	 -0.225641	 -1.398673
C	 -0.231030	 -1.182113	 0.407592
C	 -0.353797	 1.300461	 0.050970
H	 -0.312800	 -0.992012	 1.473041
H	 -0.738841	 -2.119564	 0.220514
C	 1.246176	 -1.268044	 -0.015480
H	 -0.539537	 2.008579	 -0.751815
H	 -0.889989	 1.662858	 0.920677
C	 1.153605	 1.231851	 0.356834
H	 1.823096	 -1.684665	 0.802361
H	 1.352335	 -1.958223	 -0.845114
C	 1.826409	 0.100723	 -0.416008
H	 1.622968	 2.181508	 0.128734
H	 1.301983	 1.066493	 1.419367
H	 2.897299	 0.112407	 -0.249665
H	 1.683458	 0.265621	 -1.480024

	symmetry c1
}
set optking {
	frozen_dihedral = ("
		1 2 3 4
	")
}

ee = optimize('scf')
oeprop('DIPOLE', 'QUADRUPOLE', 'MULLIKEN_CHARGES')
f=open( 'psi4out.xyz', 'w' )
f.write( "19  " )
f.write( str(ee) + "\n" )
f.write( MOL.save_string_xyz() )
f.close()
--------------------------------------------------------------------------

    Molecular point group: c1
  Charge       = 0
  Multiplicity = 1
  Basis Set: CC-PVTZ
  Basis Set:
  @DF-RHF Final Energy:  -309.16298135254465
    Total Energy =                       -309.1629813525445343
    Molecular point group: c1
  Basis Set: CC-PVTZ
  Basis Set:
  Basis Set: CC-PVTZ
  Basis Set:
  @DF-RHF Final Energy:  -309.16301246503525
    Total Energy =                       -309.1630124650348534
  Basis Set: CC-PVTZ
  Basis Set:
  Basis Set: CC-PVTZ
  Basis Set:
  @DF-RHF Final Energy:  -309.16302510165286
    Total Energy =                       -309.1630251016521242
  Basis Set: CC-PVTZ
  Basis Set:
  Charge       = 0
  Multiplicity = 1
  Basis Set: CC-PVTZ
  Basis Set:

    Orbital Energies (a.u.)
    -----------------------

    Doubly Occupied:

       1A    -20.543086     2A    -11.267832     3A    -11.213587
       4A    -11.213241     5A    -11.212725     6A    -11.208801
       7A    -11.206667     8A     -1.362838     9A     -1.109306
      10A     -1.001927    11A     -0.989251    12A     -0.842712
      13A     -0.835490    14A     -0.732168    15A     -0.707840
      16A     -0.659900    17A     -0.628668    18A     -0.590480
      19A     -0.572942    20A     -0.546631    21A     -0.534946
      22A     -0.517704    23A     -0.497990    24A     -0.489332
      25A     -0.462437    26A     -0.449728    27A     -0.430126
      28A     -0.411102

  @DF-RHF Final Energy:  -309.16302532487981

   => Energetics <=

    Nuclear Repulsion Energy =            331.7862160826354625
    One-Electron Energy =               -1077.4195743605173448
    Two-Electron Energy =                 436.4703329530021279
    DFT Exchange-Correlation Energy =       0.0000000000000000
    Empirical Dispersion Energy =           0.0000000000000000
    PCM Polarization Energy =               0.0000000000000000
    EFP Energy =                            0.0000000000000000
    Total Energy =                       -309.1630253248796976
    Molecular point group: c1
  Basis Set: CC-PVTZ
  Basis Set:

  -Total Gradient:
     Atom            X                  Y                   Z
    ------   -----------------  -----------------  -----------------
       1       -0.000096145056    -0.001236450677    -0.000705401537
       2        0.000125554550     0.001823127181     0.000806239718
       3        0.000064067740    -0.001772700663     0.000084508094
       4       -0.000110473774     0.001207648213    -0.000184280742
       5        0.000012783878     0.000008342122     0.000018177645
       6       -0.000026898121    -0.000002076097    -0.000005395482
       7       -0.000007517440     0.000001948277     0.000002815297
       8       -0.000004794249     0.000005893980    -0.000002080877
       9        0.000000452252     0.000011967385    -0.000006642651
      10       -0.000016087234    -0.000004035682    -0.000004168245
      11       -0.000005437665    -0.000003945749    -0.000010148462
      12        0.000008991114    -0.000026114357     0.000018993320
      13        0.000008489235     0.000006303012    -0.000008750499
      14        0.000011097728     0.000010613720    -0.000008744762
      15        0.000017738754     0.000004795691     0.000004696753
      16        0.000006825866    -0.000011871842    -0.000006212555
      17        0.000007330815     0.000000845282     0.000005902719
      18        0.000003420273    -0.000007995645     0.000001621712
      19        0.000000601331    -0.000016294149    -0.000001129447

  **** Optimization is complete! (in 4 steps) ****
    Final optimized geometry and variables:
    Molecular point group: c1

    Geometry (in Angstrom), charge = 0, multiplicity = 1:

    H           -2.821610208199     0.299575816212    -0.680560672465
    O           -2.315970092495    -0.130770588767    -0.016358685700
    C           -0.945258063225    -0.066807662426    -0.329259769812
    H           -0.820965525084    -0.222691894293    -1.398868575418
    C           -0.228759734267    -1.183481245115     0.406172685053
    C           -0.353680791118     1.300158184521     0.047489123949
    H           -0.313617063705    -0.995717643485     1.471889250920
    H           -0.733406725549    -2.122067589374     0.216576759286
    C            1.250185268596    -1.265363672889    -0.012387638579
    H           -0.537051758234     2.004653597721    -0.758678787246
    H           -0.895958128530     1.665460148458     0.911313045130
    C            1.152254551858     1.233113469302     0.359357251017
    H            1.825884258799    -1.679679670327     0.807488574030
    H            1.360235693043    -1.956540233523    -0.840844832138
    C            1.828594093327     0.103940796680    -0.412755027663
    H            1.621538391573     2.183634582300     0.134348364531
    H            1.297653100118     1.066294029841     1.422200064482
    H            2.899466190092     0.116766738396    -0.246135723426
    H            1.685807210258     0.268343711912    -1.477041353988

  Mulliken Charges: (a.u.)
   Center  Symbol    Alpha    Beta     Spin     Total
       1     H     0.39573  0.39573  0.00000  0.20853
       2     O     4.20099  4.20099  0.00000 -0.40198
       3     C     2.92543  2.92543  0.00000  0.14913
       4     H     0.46546  0.46546  0.00000  0.06908
       5     C     3.09749  3.09749  0.00000 -0.19497
       6     C     3.11644  3.11644  0.00000 -0.23288
       7     H     0.45315  0.45315  0.00000  0.09371
       8     H     0.44154  0.44154  0.00000  0.11691
       9     C     3.11319  3.11319  0.00000 -0.22639
      10     H     0.45396  0.45396  0.00000  0.09208
      11     H     0.44486  0.44486  0.00000  0.11028
      12     C     3.10058  3.10058  0.00000 -0.20115
      13     H     0.44725  0.44725  0.00000  0.10550
      14     H     0.44778  0.44778  0.00000  0.10443
      15     C     3.10278  3.10278  0.00000 -0.20555
      16     H     0.44283  0.44283  0.00000  0.11434
      17     H     0.45277  0.45277  0.00000  0.09446
      18     H     0.44294  0.44294  0.00000  0.11411
      19     H     0.45481  0.45481  0.00000  0.09037

   Total alpha = 28.00000, Total beta = 28.00000, Total charge = -0.00000
