                              Psi4 1.0.54 Driver

  ==> Input File <==

--------------------------------------------------------------------------
set {
	reference rhf
	basis cc-pvtz
}

set_num_threads( 4 )
memory 2 gb

molecule MOL {
0 1

O	 -1.278239	 1.034789	 -0.784693
C	 -1.204115	 0.062668	 -0.112312
C	 -2.386398	 -0.667698	 0.460323
O	 -0.068058	 -0.518372	 0.226882
H	 -2.382952	 -1.693172	 0.114333
H	 -3.296656	 -0.175702	 0.158400
H	 -2.312537	 -0.685191	 1.540100
C	 0.903508	 0.221280	 0.973727
C	 2.249413	 -0.392267	 0.643254
C	 0.570980	 0.161432	 2.453744
H	 0.870502	 1.246212	 0.636812
H	 2.445547	 -0.334561	 -0.419737
H	 3.036899	 0.137114	 1.166067
H	 2.280270	 -1.433651	 0.940748
H	 1.312532	 0.710800	 3.021896
H	 -0.397200	 0.601412	 2.647895
H	 0.566723	 -0.865573	 2.800913

	symmetry c1
}
set optking {
	frozen_dihedral = ("
		8 4 2 1
	")
}

ee,wfn = optimize('scf', return_wfn=True)
oeprop( wfn, 'DIPOLE', 'QUADRUPOLE', 'MULLIKEN_CHARGES')
f=open( 'psi4out.xyz', 'w' )
f.write( "17  " )
f.write( str(ee) + "\n" )
f.write( MOL.save_string_xyz() )
f.close()
--------------------------------------------------------------------------

    Molecular point group: c1
  Charge       = 0
  Multiplicity = 1
  Basis Set: CC-PVTZ
  Basis Set:
  @DF-RHF Final Energy:  -345.02902702082747
    Total Energy =                       -345.0290270208275842
    Molecular point group: c1
  Basis Set: CC-PVTZ
  Basis Set:
  Basis Set: CC-PVTZ
  Basis Set:
  @DF-RHF Final Energy:  -344.93827635753536
    Total Energy =                       -344.9382763575355284
  Basis Set: CC-PVTZ
  Basis Set:
  Basis Set: CC-PVTZ
  Basis Set:
  @DF-RHF Final Energy:  -345.01942068720678
    Total Energy =                       -345.0194206872066616
  Basis Set: CC-PVTZ
  Basis Set:
  Basis Set: CC-PVTZ
  Basis Set:
  @DF-RHF Final Energy:  -345.02898486915706
    Total Energy =                       -345.0289848691571137
  Basis Set: CC-PVTZ
  Basis Set:
  @DF-RHF Final Energy:  -345.02915292473017
    Total Energy =                       -345.0291529247306244
  @DF-RHF Final Energy:  -345.03045071693384
    Total Energy =                       -345.0304507169341832
  Basis Set: CC-PVTZ
  Basis Set:
  @DF-RHF Final Energy:  -345.03050498519121
    Total Energy =                       -345.0305049851911576
  Basis Set: CC-PVTZ
  Basis Set:
  Basis Set: CC-PVTZ
  Basis Set:
  @DF-RHF Final Energy:  -345.03051201748485
    Total Energy =                       -345.0305120174851936
  Basis Set: CC-PVTZ
  Basis Set:
  Basis Set: CC-PVTZ
  Basis Set:
  @DF-RHF Final Energy:  -345.03051343713997
    Total Energy =                       -345.0305134371394615
  Basis Set: CC-PVTZ
  Basis Set:
  Charge       = 0
  Multiplicity = 1
  Basis Set: CC-PVTZ
  Basis Set:

    Orbital Energies (a.u.)
    -----------------------

    Doubly Occupied:

       1A    -20.577133     2A    -20.539315     3A    -11.367787
       4A    -11.294000     5A    -11.232175     6A    -11.223858
       7A    -11.218084     8A     -1.460700     9A     -1.365654
      10A     -1.076838    11A     -1.010163    12A     -0.953761
      13A     -0.847756    14A     -0.765448    15A     -0.697744
      16A     -0.669896    17A     -0.661410    18A     -0.625045
      19A     -0.587211    20A     -0.581808    21A     -0.564081
      22A     -0.552230    23A     -0.544415    24A     -0.524430
      25A     -0.503454    26A     -0.487079    27A     -0.448700
      28A     -0.437907

  @DF-RHF Final Energy:  -345.03051356086996

   => Energetics <=

    Nuclear Repulsion Energy =            323.3105584929468250
    One-Electron Energy =               -1111.0459775829215232
    Two-Electron Energy =                 442.7049055291047353
    DFT Exchange-Correlation Energy =       0.0000000000000000
    Empirical Dispersion Energy =           0.0000000000000000
    PCM Polarization Energy =               0.0000000000000000
    EFP Energy =                            0.0000000000000000
    Total Energy =                       -345.0305135608699629
    Molecular point group: c1
  Basis Set: CC-PVTZ
  Basis Set:

  -Total Gradient:
     Atom            X                  Y                   Z
    ------   -----------------  -----------------  -----------------
       1       -0.000807185254    -0.000343881840    -0.009490939027
       2        0.000115892547    -0.002507352973     0.016183662894
       3        0.000010880787     0.000055429258     0.000023550877
       4        0.002800184026     0.008712082371    -0.010826645339
       5       -0.000013078083    -0.000011496412    -0.000022716059
       6        0.000002628647    -0.000008264411    -0.000013494942
       7        0.000011845663    -0.000005756442    -0.000009178086
       8       -0.002087857968    -0.005881986036     0.004164417078
       9       -0.000017958703    -0.000006970305    -0.000006792811
      10       -0.000012907399    -0.000004042156    -0.000011748054
      11       -0.000005067734    -0.000004978878     0.000005620282
      12       -0.000000968150    -0.000002072848     0.000001969824
      13       -0.000004040109     0.000001588860    -0.000000649684
      14        0.000000066293     0.000004975836     0.000000611023
      15       -0.000002534291     0.000000620819    -0.000002318920
      16        0.000006109438     0.000005824681     0.000002079250
      17        0.000003990290    -0.000003719524     0.000002571693

  **** Optimization is complete! (in 10 steps) ****
    Final optimized geometry and variables:
    Molecular point group: c1

    Geometry (in Angstrom), charge = 0, multiplicity = 1:

    O           -1.315520274688     1.425967860229    -0.510317538727
    C           -1.086663514627     0.269115178630    -0.484911493065
    C           -2.138544520997    -0.802848599765    -0.502913999052
    O            0.155181831278    -0.225879873628    -0.564595998801
    H           -1.983000108146    -1.436424147275    -1.366937607592
    H           -3.120444542019    -0.359028745174    -0.536890543994
    H           -2.039562877311    -1.426104843757     0.377227465088
    C            1.107630697135     0.142270894025     0.435391327482
    C            2.473031624146    -0.194927252637    -0.126623379387
    C            0.809141502576    -0.582422742371     1.736754389137
    H            1.032551372216     1.211109437097     0.587083643738
    H            2.642093946769     0.339232998508    -1.051987567822
    H            3.246969078302     0.082415905664     0.578943894248
    H            2.552054597880    -1.257402346023    -0.324218789526
    H            1.545174398980    -0.315364650462     2.485552407505
    H           -0.166089717689    -0.311788814409     2.124498300863
    H            0.839024448550    -1.656061559719     1.592571549528

  Mulliken Charges: (a.u.)
   Center  Symbol    Alpha    Beta     Spin     Total
       1     O     4.18099  4.18099  0.00000 -0.36198
       2     C     2.80769  2.80769  0.00000  0.38462
       3     C     3.13841  3.13841  0.00000 -0.27683
       4     O     4.17818  4.17818  0.00000 -0.35635
       5     H     0.44340  0.44340  0.00000  0.11321
       6     H     0.43770  0.43770  0.00000  0.12459
       7     H     0.44933  0.44933  0.00000  0.10134
       8     C     2.93149  2.93149  0.00000  0.13702
       9     C     3.14085  3.14085  0.00000 -0.28170
      10     C     3.15700  3.15700  0.00000 -0.31399
      11     H     0.44105  0.44105  0.00000  0.11790
      12     H     0.44285  0.44285  0.00000  0.11431
      13     H     0.45621  0.45621  0.00000  0.08757
      14     H     0.45261  0.45261  0.00000  0.09477
      15     H     0.44429  0.44429  0.00000  0.11142
      16     H     0.44799  0.44799  0.00000  0.10402
      17     H     0.44996  0.44996  0.00000  0.10008

   Total alpha = 28.00000, Total beta = 28.00000, Total charge =  0.00000

*** Psi4 exiting successfully. Buy a developer a beer!
