                              Psi4 1.0.54 Driver

  ==> Input File <==

--------------------------------------------------------------------------
set {
	reference rhf
	basis cc-pvtz
}

set_num_threads( 4 )
memory 2 gb

molecule MOL {
0 1

H	 2.701421	 -0.939386	 -0.290211
N	 2.326826	 -0.066186	 0.000000
C	 0.934676	 -0.005420	 0.000000
H	 2.753208	 0.247058	 0.840892
C	 0.226436	 -0.001077	 -1.195129
C	 0.226436	 -0.001077	 1.195129
H	 0.759091	 -0.011439	 -2.128123
C	 -1.153391	 0.009141	 -1.189028
H	 0.759091	 -0.011439	 2.128123
C	 -1.153391	 0.009141	 1.189028
H	 -1.680905	 0.012964	 -2.124348
C	 -1.857876	 0.014675	 0.000000
H	 -1.680905	 0.012964	 2.124348
H	 -2.930222	 0.022904	 0.000000

	symmetry c1
}
set optking {
	frozen_dihedral = ("
		1 2 3 5
	")
}

ee,wfn = optimize('scf', return_wfn=True)
oeprop( wfn, 'DIPOLE', 'QUADRUPOLE', 'MULLIKEN_CHARGES')
f=open( 'psi4out.xyz', 'w' )
f.write( "14  " )
f.write( str(ee) + "\n" )
f.write( MOL.save_string_xyz() )
f.close()
--------------------------------------------------------------------------

    Molecular point group: c1
  Charge       = 0
  Multiplicity = 1
  Basis Set: CC-PVTZ
  Basis Set:
  @DF-RHF Final Energy:  -285.82899946670420
    Total Energy =                       -285.8289994667042038
    Molecular point group: c1
  Basis Set: CC-PVTZ
  Basis Set:
  Basis Set: CC-PVTZ
  Basis Set:
  @DF-RHF Final Energy:  -285.37144881693717
    Total Energy =                       -285.3714488169368906
  Basis Set: CC-PVTZ
  Basis Set:
  Basis Set: CC-PVTZ
  Basis Set:
  @DF-RHF Final Energy:  -285.56729823734844
    Total Energy =                       -285.5672982373483819
  Basis Set: CC-PVTZ
  Basis Set:
  Basis Set: CC-PVTZ
  Basis Set:
  @DF-RHF Final Energy:  -285.79591876090944
    Total Energy =                       -285.7959187609094442
  Basis Set: CC-PVTZ
  Basis Set:
  Basis Set: CC-PVTZ
  Basis Set:
  @DF-RHF Final Energy:  -285.82927550952445
    Total Energy =                       -285.8292755095245639
  Basis Set: CC-PVTZ
  Basis Set:
  Basis Set: CC-PVTZ
  Basis Set:
  @DF-RHF Final Energy:  -285.83069177054182
    Total Energy =                       -285.8306917705416481
  Basis Set: CC-PVTZ
  Basis Set:
  Basis Set: CC-PVTZ
  Basis Set:
  @DF-RHF Final Energy:  -285.83076214121826
    Total Energy =                       -285.8307621412181447
  Basis Set: CC-PVTZ
  Basis Set:
  Charge       = 0
  Multiplicity = 1
  Basis Set: CC-PVTZ
  Basis Set:

    Orbital Energies (a.u.)
    -----------------------

    Doubly Occupied:

       1A    -15.551076     2A    -11.265888     3A    -11.228227
       4A    -11.227413     5A    -11.220508     6A    -11.217661
       7A    -11.217536     8A     -1.219653     9A     -1.131993
      10A     -1.015122    11A     -0.989575    12A     -0.832309
      13A     -0.812197    14A     -0.706777    15A     -0.677169
      16A     -0.651345    17A     -0.612820    18A     -0.594761
      19A     -0.584431    20A     -0.519119    21A     -0.505613
      22A     -0.491310    23A     -0.439141    24A     -0.336716
      25A     -0.308661

  @DF-RHF Final Energy:  -285.83076816808642

   => Energetics <=

    Nuclear Repulsion Energy =            273.3695417390738953
    One-Electron Energy =                -927.6865765410500444
    Two-Electron Energy =                 368.4862666338895565
    DFT Exchange-Correlation Energy =       0.0000000000000000
    Empirical Dispersion Energy =           0.0000000000000000
    PCM Polarization Energy =               0.0000000000000000
    EFP Energy =                            0.0000000000000000
    Total Energy =                       -285.8307681680866494
    Molecular point group: c1
  Basis Set: CC-PVTZ
  Basis Set:

  -Total Gradient:
     Atom            X                  Y                   Z
    ------   -----------------  -----------------  -----------------
       1        0.000307179117    -0.000775686436     0.003494398923
       2       -0.001028401069     0.002119787455    -0.004531854872
       3        0.001992893247    -0.003784494064     0.001108083898
       4        0.000069288568     0.000023383378     0.000033985186
       5       -0.001194809638     0.002524560398    -0.000215498799
       6       -0.000333530055    -0.000160755105     0.000096158980
       7        0.000033002054     0.000001300506    -0.000020702280
       8       -0.000175999837    -0.000119527486     0.000168816367
       9        0.000041446464     0.000039063564     0.000022228044
      10        0.000329357013     0.000158065855     0.000166556720
      11       -0.000007770204     0.000005684399     0.000004838732
      12        0.000057054626    -0.000013710771    -0.000318732604
      13       -0.000033528254     0.000000269569    -0.000032637095
      14       -0.000056182033    -0.000017941263     0.000024358798

  **** Optimization is complete! (in 8 steps) ****
    Final optimized geometry and variables:
    Molecular point group: c1

    Geometry (in Angstrom), charge = 0, multiplicity = 1:

    H            2.845823538274     0.455486109371    -0.060274226505
    N            2.080696262013     1.069620020096     0.121907597768
    C            0.835643964281     0.403150360203     0.066038520397
    H            2.234110813149     1.489702397308     1.012313018666
    C            0.358145645309    -0.036004999420    -1.161094939832
    C            0.041465749331     0.238784008993     1.189453041998
    H            0.954135165738     0.121073298785    -2.039836634508
    C           -0.869923242183    -0.657508730610    -1.251094905411
    H            0.394160632637     0.581401242052     2.144955985247
    C           -1.199294081791    -0.363407709329     1.089809084445
    H           -1.220192796219    -0.998030764589    -2.207174075011
    C           -1.660053993928    -0.822706793586    -0.127327907619
    H           -1.801959449873    -0.478890213954     1.970814411660
    H           -2.620179812144    -1.295408483684    -0.202115534454

  Mulliken Charges: (a.u.)
   Center  Symbol    Alpha    Beta     Spin     Total
       1     H     0.42038  0.42038  0.00000  0.15924
       2     N     3.68472  3.68472  0.00000 -0.36945
       3     C     2.89021  2.89021  0.00000  0.21958
       4     H     0.42649  0.42649  0.00000  0.14703
       5     C     3.11164  3.11164  0.00000 -0.22329
       6     C     3.11483  3.11483  0.00000 -0.22965
       7     H     0.42397  0.42397  0.00000  0.15205
       8     C     3.06207  3.06207  0.00000 -0.12414
       9     H     0.43271  0.43271  0.00000  0.13459
      10     C     3.06573  3.06573  0.00000 -0.13146
      11     H     0.42392  0.42392  0.00000  0.15217
      12     C     3.09467  3.09467  0.00000 -0.18934
      13     H     0.42419  0.42419  0.00000  0.15163
      14     H     0.42447  0.42447  0.00000  0.15105

   Total alpha = 25.00000, Total beta = 25.00000, Total charge =  0.00000

*** Psi4 exiting successfully. Buy a developer a beer!
