  ==> Input File <==

--------------------------------------------------------------------------
set {
	reference rhf
	basis 6-31G*
}

set_num_threads( 4 )
memory 2 gb

molecule MOL {
0 1

H	 -2.646374	 -0.642757	 1.268656
C	 -2.083525	 -0.384536	 0.393091
O	 -0.807605	 -0.127164	 0.768327
F	 -2.118945	 -1.383102	 -0.486752
F	 -2.621877	 0.670592	 -0.209486
C	 -0.596735	 0.888141	 1.683411
C	 0.549026	 1.737666	 1.148904
Cl	 -0.193388	 0.228135	 3.276809
H	 -1.460006	 1.519638	 1.800661
F	 0.799466	 2.738217	 1.966410
F	 0.196216	 2.240556	 -0.017314
F	 1.647121	 1.040919	 0.985493

	symmetry c1
}
set optking {
	frozen_dihedral = ("
		6 3 2 4
	")
}

ee = optimize('scf')
oeprop('DIPOLE', 'QUADRUPOLE', 'MULLIKEN_CHARGES')
f=open( 'psi4out.xyz', 'w' )
f.write( "12  " )
f.write( str(ee) + "\n" )
f.write( MOL.save_string_xyz() )
f.close()
--------------------------------------------------------------------------

    Molecular point group: c1
  Charge       = 0
  Multiplicity = 1
  Basis Set: 6-31G*
  Basis Set:
  @DF-RHF Final Energy: -1146.30842258019493
    Total Energy =                      -1146.3084225801949287
    Molecular point group: c1
  Basis Set: 6-31G*
  Basis Set:
  Basis Set: 6-31G*
  Basis Set:
  @DF-RHF Final Energy: -1146.31062247293039
    Total Energy =                      -1146.3106224729317546
  Basis Set: 6-31G*
  Basis Set:
  Basis Set: 6-31G*
  Basis Set:
  @DF-RHF Final Energy: -1146.31173479944346
    Total Energy =                      -1146.3117347994434567
  Basis Set: 6-31G*
  Basis Set:
  Basis Set: 6-31G*
  Basis Set:
  @DF-RHF Final Energy: -1146.31236800252873
    Total Energy =                      -1146.3123680025278190
  Basis Set: 6-31G*
  Basis Set:
  Basis Set: 6-31G*
  Basis Set:
  @DF-RHF Final Energy: -1146.31244238449381
    Total Energy =                      -1146.3124423844933517
  Basis Set: 6-31G*
  Basis Set:
  Basis Set: 6-31G*
  Basis Set:
  @DF-RHF Final Energy: -1146.31245665331789
    Total Energy =                      -1146.3124566533172128
  Basis Set: 6-31G*
  Basis Set:
  Basis Set: 6-31G*
  Basis Set:
  @DF-RHF Final Energy: -1146.31245809770280
    Total Energy =                      -1146.3124580977018923
  Basis Set: 6-31G*
  Basis Set:
  Charge       = 0
  Multiplicity = 1
  Basis Set: 6-31G*
  Basis Set:

    Orbital Energies (a.u.)
    -----------------------

    Doubly Occupied:

       1A   -104.852663     2A    -26.363346     3A    -26.361156
       4A    -26.360616     5A    -26.346144     6A    -26.345950
       7A    -20.651139     8A    -11.532274     9A    -11.489303
      10A    -11.407025    11A    -10.587434    12A     -8.056726
      13A     -8.053341    14A     -8.053168    15A     -1.764559
      16A     -1.717641    17A     -1.660918    18A     -1.659316
      19A     -1.641104    20A     -1.489455    21A     -1.181562
      22A     -1.060487    23A     -0.983754    24A     -0.925267
      25A     -0.861529    26A     -0.854714    27A     -0.848610
      28A     -0.828409    29A     -0.814558    30A     -0.790231
      31A     -0.730866    32A     -0.727418    33A     -0.699798
      34A     -0.690699    35A     -0.686717    36A     -0.675602
      37A     -0.666912    38A     -0.660641    39A     -0.659849
      40A     -0.637634    41A     -0.602974    42A     -0.573158
      43A     -0.519427    44A     -0.488042    45A     -0.478274

  @DF-RHF Final Energy: -1146.31245881455334

   => Energetics <=

    Nuclear Repulsion Energy =            728.1346936806281747
    One-Electron Energy =               -3038.8134739593806444
    Two-Electron Energy =                1164.3663214641992454
    DFT Exchange-Correlation Energy =       0.0000000000000000
    Empirical Dispersion Energy =           0.0000000000000000
    PCM Polarization Energy =               0.0000000000000000
    EFP Energy =                            0.0000000000000000
    Total Energy =                      -1146.3124588145533380
    Molecular point group: c1
  Basis Set: 6-31G*
  Basis Set:

  -Total Gradient:
     Atom            X                  Y                   Z
    ------   -----------------  -----------------  -----------------
       1       -0.000029033802     0.000006480286     0.000010321329
       2       -0.000100062667     0.000391290737    -0.000336470663
       3       -0.000209282637     0.000641986990    -0.000557276258
       4        0.000180679953    -0.000493230726     0.000412284806
       5       -0.000012647952    -0.000011246878     0.000031172038
       6        0.000191830866    -0.000531535715     0.000371134050
       7       -0.000001322361     0.000020882865     0.000044428957
       8       -0.000012803824    -0.000071090405     0.000057477703
       9        0.000038883483     0.000016423772    -0.000022557113
      10        0.000024780364     0.000088932671    -0.000010378030
      11       -0.000002496470    -0.000046077729     0.000009287887
      12       -0.000068524961    -0.000012815850    -0.000009424765

  **** Optimization is complete! (in 8 steps) ****
    Final optimized geometry and variables:
    Molecular point group: c1

    Geometry (in Angstrom), charge = 0, multiplicity = 1:

    H           -1.879676866596    -1.698763903715     0.206046332224
    C           -1.570553806584    -1.201069364721    -0.696699899080
    O           -0.325171917735    -0.656017586668    -0.602380075704
    F           -1.532100822143    -2.056379102114    -1.694107045454
    F           -2.458579230436    -0.250501215804    -0.985979789719
    C           -0.110200499867     0.278674104867     0.378064416482
    C            1.179225914985     1.003208905860     0.010977362538
    CL           0.033587773074    -0.469115563159     1.991918508911
    H           -0.904899161215     1.003509585709     0.435365885755
    F            1.443333984329     1.936267790257     0.900776913022
    F            1.023412595597     1.586047851670    -1.158643588483
    F            2.200373336724     0.186172429334    -0.060962776693

  Mulliken Charges: (a.u.)
   Center  Symbol    Alpha    Beta     Spin     Total
       1     H     0.41146  0.41146  0.00000  0.17708
       2     C     2.56717  2.56717  0.00000  0.86567
       3     O     4.29811  4.29811  0.00000 -0.59622
       4     F     4.67006  4.67006  0.00000 -0.34012
       5     F     4.68512  4.68512  0.00000 -0.37025
       6     C     3.04110  3.04110  0.00000 -0.08220
       7     C     2.42952  2.42952  0.00000  1.14095
       8    CL     8.51315  8.51315  0.00000 -0.02630
       9     H     0.36845  0.36845  0.00000  0.26310
      10     F     4.67475  4.67475  0.00000 -0.34950
      11     F     4.67394  4.67394  0.00000 -0.34788
      12     F     4.66716  4.66716  0.00000 -0.33433

   Total alpha = 45.00000, Total beta = 45.00000, Total charge = -0.00000
