  ==> Input File <==

--------------------------------------------------------------------------
set {
	reference rhf
	basis 6-31G*
}

set_num_threads( 4 )
memory 2 gb

molecule MOL {
0 1

H	 -1.974525	 -1.394079	 0.201021
C	 -1.580240	 -1.135433	 -0.777142
O	 -0.774054	 0.001095	 -0.743181
H	 -2.412856	 -0.902783	 -1.427491
H	 -1.062579	 -1.999444	 -1.182981
C	 0.406953	 0.000033	 0.038965
C	 1.527284	 -0.003667	 -0.998752
C	 0.498933	 1.262172	 0.902524
C	 0.494271	 -1.259566	 0.906664
H	 1.452513	 0.873252	 -1.631882
H	 1.448863	 -0.881882	 -1.629595
H	 2.502020	 -0.005104	 -0.521731
H	 0.364280	 2.147110	 0.289513
H	 1.472180	 1.321775	 1.378800
H	 -0.247853	 1.275162	 1.689097
H	 0.356778	 -2.146106	 0.296587
H	 1.467182	 -1.320941	 1.383330
H	 -0.252763	 -1.267328	 1.693119

	symmetry c1
}
set optking {
	frozen_dihedral = ("
		2 3 6 7
	")
}

ee = optimize('scf')
oeprop('DIPOLE', 'QUADRUPOLE', 'MULLIKEN_CHARGES')
f=open( 'psi4out.xyz', 'w' )
f.write( "18  " )
f.write( str(ee) + "\n" )
f.write( MOL.save_string_xyz() )
f.close()
--------------------------------------------------------------------------

    Molecular point group: c1
  Charge       = 0
  Multiplicity = 1
  Basis Set: 6-31G*
  Basis Set:
  @DF-RHF Final Energy:  -271.16699172136629
    Total Energy =                       -271.1669917213661165
    Molecular point group: c1
  Basis Set: 6-31G*
  Basis Set:
  Basis Set: 6-31G*
  Basis Set:
  @DF-RHF Final Energy:  -271.16832581728710
    Total Energy =                       -271.1683258172868136
  Basis Set: 6-31G*
  Basis Set:
  Basis Set: 6-31G*
  Basis Set:
  @DF-RHF Final Energy:  -271.17121427974280
    Total Energy =                       -271.1712142797426850
  Basis Set: 6-31G*
  Basis Set:
  Basis Set: 6-31G*
  Basis Set:
  @DF-RHF Final Energy:  -271.17148102186496
    Total Energy =                       -271.1714810218650769
  Basis Set: 6-31G*
  Basis Set:
  Basis Set: 6-31G*
  Basis Set:
  @DF-RHF Final Energy:  -271.17157112764431
    Total Energy =                       -271.1715711276441994
  Basis Set: 6-31G*
  Basis Set:
  Basis Set: 6-31G*
  Basis Set:
  @DF-RHF Final Energy:  -271.17160387381551
    Total Energy =                       -271.1716038738153998
  Basis Set: 6-31G*
  Basis Set:
  Charge       = 0
  Multiplicity = 1
  Basis Set: 6-31G*
  Basis Set:

    Orbital Energies (a.u.)
    -----------------------

    Doubly Occupied:

       1A    -20.543798     2A    -11.281709     3A    -11.262126
       4A    -11.213945     5A    -11.203730     6A    -11.202949
       7A     -1.366402     8A     -1.073927     9A     -0.950971
      10A     -0.934086    11A     -0.911679    12A     -0.751283
      13A     -0.656329    14A     -0.645838    15A     -0.636734
      16A     -0.582745    17A     -0.576563    18A     -0.548407
      19A     -0.541526    20A     -0.526048    21A     -0.514839
      22A     -0.490095    23A     -0.482829    24A     -0.441988
      25A     -0.395988

  @DF-RHF Final Energy:  -271.17160365310309

   => Energetics <=

    Nuclear Repulsion Energy =            271.7322338638080623
    One-Electron Energy =                -906.3346109192846143
    Two-Electron Energy =                 363.4307734023735748
    DFT Exchange-Correlation Energy =       0.0000000000000000
    Empirical Dispersion Energy =           0.0000000000000000
    PCM Polarization Energy =               0.0000000000000000
    EFP Energy =                            0.0000000000000000
    Total Energy =                       -271.1716036531030340
    Molecular point group: c1
  Basis Set: 6-31G*
  Basis Set:

  -Total Gradient:
     Atom            X                  Y                   Z
    ------   -----------------  -----------------  -----------------
       1        0.000000788751     0.000005788549     0.000073247205
       2       -0.001011041019     0.000652297679     0.001855158763
       3        0.001763274244    -0.000432687559    -0.002901430232
       4        0.000034296356     0.000036215438    -0.000015202937
       5       -0.000031882964     0.000041778538    -0.000006421174
       6       -0.000641855094    -0.002123520318     0.001029115785
       7       -0.000059741572     0.001841035467     0.000061455023
       8       -0.000029650343     0.000057117302    -0.000073076966
       9        0.000024584833    -0.000083034837    -0.000022037111
      10        0.000002029293    -0.000022938240    -0.000021295712
      11        0.000008116007    -0.000009459524     0.000021337755
      12       -0.000017366284     0.000030161009     0.000020880003
      13       -0.000055119942     0.000125576907     0.000053485140
      14        0.000010944742     0.000001565599    -0.000101999137
      15        0.000065442785    -0.000100552715    -0.000010887344
      16        0.000021196777     0.000015820446     0.000032393620
      17       -0.000018119127    -0.000013371125    -0.000008981239
      18       -0.000065897443    -0.000021792618     0.000014258558

  **** Optimization is complete! (in 7 steps) ****
    Final optimized geometry and variables:
    Molecular point group: c1

    Geometry (in Angstrom), charge = 0, multiplicity = 1:

    H           -2.116573496300    -1.164583588949     0.307647007809
    C           -1.727613327509    -0.868665205421    -0.661768481662
    O           -0.868044343095     0.223923523534    -0.584199359660
    H           -2.558896572887    -0.557408838064    -1.280485163709
    H           -1.263602668772    -1.733831195187    -1.128722330616
    C            0.354578252599     0.161567723492     0.140608954182
    C            1.482739502030     0.186359500689    -0.892036246235
    C            0.386370025871     1.433669332978     0.988057886319
    C            0.484211413043    -1.065980977117     1.046561504800
    H            1.379959823058     1.056370532439    -1.530232127005
    H            1.444269831947    -0.697653816038    -1.521481326507
    H            2.457258591485     0.220401999154    -0.414243463552
    H            0.251353488215     2.304324028472     0.356433307136
    H            1.330402318426     1.532677446984     1.515217050204
    H           -0.416192665263     1.421008425599     1.718008299716
    H            0.474954863810    -1.993615001859     0.485427556610
    H            1.428499998956    -1.015699095120     1.577691051910
    H           -0.307035731406    -1.103484043705     1.787223366401

  Mulliken Charges: (a.u.)
   Center  Symbol    Alpha    Beta     Spin     Total
       1     H     0.42967  0.42967  0.00000  0.14067
       2     C     3.07514  3.07514  0.00000 -0.15028
       3     O     4.32522  4.32522  0.00000 -0.65044
       4     H     0.41248  0.41248  0.00000  0.17504
       5     H     0.43160  0.43160  0.00000  0.13679
       6     C     2.83949  2.83949  0.00000  0.32103
       7     C     3.23241  3.23241  0.00000 -0.46483
       8     C     3.23144  3.23144  0.00000 -0.46288
       9     C     3.25811  3.25811  0.00000 -0.51621
      10     H     0.41330  0.41330  0.00000  0.17339
      11     H     0.42124  0.42124  0.00000  0.15751
      12     H     0.42589  0.42589  0.00000  0.14822
      13     H     0.41302  0.41302  0.00000  0.17396
      14     H     0.42620  0.42620  0.00000  0.14759
      15     H     0.41936  0.41936  0.00000  0.16129
      16     H     0.41627  0.41627  0.00000  0.16746
      17     H     0.41419  0.41419  0.00000  0.17162
      18     H     0.41497  0.41497  0.00000  0.17006

   Total alpha = 25.00000, Total beta = 25.00000, Total charge =  0.00000
