  ==> Input File <==

--------------------------------------------------------------------------
set {
	reference rhf
	basis 6-31G*
}

set_num_threads( 4 )
memory 2 gb

molecule MOL {
0 1

O	 2.743782	 1.064975	 0.582761
C	 2.701189	 0.057885	 -0.047330
C	 1.927079	 -0.147825	 -1.326872
O	 3.347903	 -1.046386	 0.304773
C	 1.174692	 1.101372	 -1.780234
H	 2.634128	 -0.490793	 -2.074967
H	 1.244208	 -0.977303	 -1.161496
C	 0.300557	 0.879666	 -3.019277
H	 1.886180	 1.899417	 -1.970042
H	 0.550794	 1.445070	 -0.962282
C	 1.071265	 0.569461	 -4.305703
H	 -0.292886	 1.777128	 -3.177741
H	 -0.410817	 0.078884	 -2.822539
C	 0.163348	 0.465724	 -5.532864
H	 1.814944	 1.347036	 -4.473447
H	 1.622316	 -0.361934	 -4.196992
C	 0.922095	 0.150833	 -6.823321
H	 -0.382343	 1.399609	 -5.656618
H	 -0.587224	 -0.304309	 -5.361430
C	 0.008658	 0.052721	 -8.044676
H	 1.673217	 0.918799	 -6.995618
H	 1.464698	 -0.784531	 -6.703087
H	 0.575301	 -0.171284	 -8.943199
H	 -0.522666	 0.985268	 -8.212745
H	 -0.733127	 -0.730785	 -7.917602
C	 4.728119	 -1.109107	 -0.004993
H	 4.882018	 -1.033965	 -1.071845
H	 5.068212	 -2.067527	 0.355250
H	 5.265056	 -0.311663	 0.488280

	symmetry c1
}
set optking {
	frozen_dihedral = ("
		1 2 4 26
	")
}

ee = optimize('scf')
oeprop('DIPOLE', 'QUADRUPOLE', 'MULLIKEN_CHARGES')
f=open( 'psi4out.xyz', 'w' )
f.write( "29  " )
f.write( str(ee) + "\n" )
f.write( MOL.save_string_xyz() )
f.close()
--------------------------------------------------------------------------

    Molecular point group: c1
  Charge       = 0
  Multiplicity = 1
  Basis Set: 6-31G*
  Basis Set:
  @DF-RHF Final Energy:  -501.02410597242044
    Total Energy =                       -501.0241059724201023
    Molecular point group: c1
  Basis Set: 6-31G*
  Basis Set:
  Basis Set: 6-31G*
  Basis Set:
  @DF-RHF Final Energy:  -501.02228305176641
    Total Energy =                       -501.0222830517661805
  Basis Set: 6-31G*
  Basis Set:
  Basis Set: 6-31G*
  Basis Set:
  @DF-RHF Final Energy:  -501.02508762536672
    Total Energy =                       -501.0250876253670640
  Basis Set: 6-31G*
  Basis Set:
  Basis Set: 6-31G*
  Basis Set:
  @DF-RHF Final Energy:  -501.02537451555690
    Total Energy =                       -501.0253745155571323
  Basis Set: 6-31G*
  Basis Set:
  Basis Set: 6-31G*
  Basis Set:
  @DF-RHF Final Energy:  -501.02538193580392
    Total Energy =                       -501.0253819358042620
  Basis Set: 6-31G*
  Basis Set:
  Charge       = 0
  Multiplicity = 1
  Basis Set: 6-31G*
  Basis Set:

    Orbital Energies (a.u.)
    -----------------------

    Doubly Occupied:

       1A    -20.585279     2A    -20.556829     3A    -11.374681
       4A    -11.290360     5A    -11.238275     6A    -11.221553
       7A    -11.219778     8A    -11.218492     9A    -11.217816
      10A    -11.216421    11A    -11.210609    12A     -1.458944
      13A     -1.366514    14A     -1.099954    15A     -1.067542
      16A     -1.016398    17A     -0.975245    18A     -0.936393
      19A     -0.866470    20A     -0.802301    21A     -0.792889
      22A     -0.762128    23A     -0.699482    24A     -0.678752
      25A     -0.670067    26A     -0.653217    27A     -0.626942
      28A     -0.618745    29A     -0.597116    30A     -0.588283
      31A     -0.569504    32A     -0.548190    33A     -0.543539
      34A     -0.531121    35A     -0.518611    36A     -0.503809
      37A     -0.496832    38A     -0.480394    39A     -0.473800
      40A     -0.464469    41A     -0.464383    42A     -0.451496
      43A     -0.442264    44A     -0.433044

  @DF-RHF Final Energy:  -501.02538099151377

   => Energetics <=

    Nuclear Repulsion Energy =            611.8723223806240412
    One-Electron Energy =               -1894.6975347461648198
    Two-Electron Energy =                 781.7998313740265530
    DFT Exchange-Correlation Energy =       0.0000000000000000
    Empirical Dispersion Energy =           0.0000000000000000
    PCM Polarization Energy =               0.0000000000000000
    EFP Energy =                            0.0000000000000000
    Total Energy =                       -501.0253809915141119
    Molecular point group: c1
  Basis Set: 6-31G*
  Basis Set:

  -Total Gradient:
     Atom            X                  Y                   Z
    ------   -----------------  -----------------  -----------------
       1       -0.004204990394    -0.001613777467     0.002390573498
       2        0.005891501546     0.001434393274    -0.005191243009
       3        0.000043318287     0.000017312364     0.000017513000
       4       -0.001080505919     0.001801089287     0.006457148201
       5       -0.000049681348    -0.000020975700     0.000014065891
       6        0.000010055019    -0.000018780710    -0.000053306930
       7        0.000012890974     0.000022273606     0.000006134911
       8       -0.000026817136     0.000072722647    -0.000010731254
       9       -0.000027048084     0.000015658227     0.000013775902
      10        0.000009130722    -0.000040048009     0.000004219679
      11        0.000026252587    -0.000001258073     0.000023738921
      12        0.000016489780     0.000012352816    -0.000031966714
      13       -0.000035849692     0.000032540279    -0.000002335651
      14       -0.000003899276    -0.000031178999     0.000002751076
      15       -0.000022082040    -0.000001969843    -0.000010187385
      16        0.000055862331    -0.000022346479     0.000042524945
      17        0.000000430817    -0.000001996266     0.000000668432
      18        0.000006872891    -0.000001453683     0.000005093572
      19       -0.000008295870    -0.000002404103    -0.000004136526
      20       -0.000000338435    -0.000001202416     0.000000327876
      21        0.000000574646     0.000000726551     0.000001212541
      22       -0.000000615602     0.000001826407    -0.000001110769
      23       -0.000000003901    -0.000000566133    -0.000000064700
      24        0.000000635759     0.000000270870    -0.000000425169
      25       -0.000000975712     0.000000186852     0.000000121329
      26       -0.000648489632    -0.001643112672    -0.003685303774
      27        0.000003311812    -0.000000666609     0.000003148897
      28        0.000025889866     0.000004936891     0.000002807893
      29        0.000006376000    -0.000014552908     0.000004985303

  **** Optimization is complete! (in 6 steps) ****
    Final optimized geometry and variables:
    Molecular point group: c1

    Geometry (in Angstrom), charge = 0, multiplicity = 1:

    O            0.963896653536     0.860921772102     3.288331692380
    C            0.955193400360    -0.121889992891     2.631793776469
    C            0.177437261039    -0.308808147432     1.352575322821
    O            1.598598817145    -1.247273236736     3.021037609550
    C           -0.586716230438     0.937136203443     0.911375513140
    H            0.879177421660    -0.644951424938     0.594253019534
    H           -0.496263979070    -1.146645532672     1.516486853695
    C           -1.467375073050     0.719191925044    -0.323699514514
    H            0.117475868717     1.742449632898     0.723124602404
    H           -1.207405265154     1.269174536836     1.736433231136
    C           -0.703614208725     0.411811629346    -1.614947765506
    H           -2.061265750909     1.617210496730    -0.476782757489
    H           -2.177853181331    -0.081759485758    -0.125003549341
    C           -1.618653994079     0.305678746018    -2.836614129333
    H            0.036767139876     1.191646576176    -1.787185734571
    H           -0.149343976088    -0.518288763217    -1.510045831435
    C           -0.866981398128    -0.006886341236    -4.131759625674
    H           -2.167555584248     1.238083566163    -2.956727684980
    H           -2.365998224395    -0.466376965252    -2.660605023534
    C           -1.787721951170    -0.107660979169    -5.347392671996
    H           -0.119213770634     0.763326204134    -4.308727268340
    H           -0.320946055846    -0.940748581883    -4.015012025348
    H           -1.226037792067    -0.330289083937    -6.249345035138
    H           -2.322523344941     0.823428266155    -5.512261962373
    H           -2.526572257706    -0.893110138737    -5.215566959898
    C            2.992187824137    -1.286973053402     2.797254107136
    H            3.215050168605    -1.248155957285     1.735764885323
    H            3.342551146245    -2.224931231580     3.198972974297
    H            3.485448587613    -0.467122294460     3.303603026217

  Mulliken Charges: (a.u.)
   Center  Symbol    Alpha    Beta     Spin     Total
       1     O     4.25476  4.25476  0.00000 -0.50951
       2     C     2.61215  2.61215  0.00000  0.77570
       3     C     3.21316  3.21316  0.00000 -0.42632
       4     O     4.31647  4.31647  0.00000 -0.63294
       5     C     3.15462  3.15462  0.00000 -0.30925
       6     H     0.40590  0.40590  0.00000  0.18821
       7     H     0.39824  0.39824  0.00000  0.20353
       8     C     3.15648  3.15648  0.00000 -0.31297
       9     H     0.41442  0.41442  0.00000  0.17117
      10     H     0.40697  0.40697  0.00000  0.18605
      11     C     3.15505  3.15505  0.00000 -0.31010
      12     H     0.41774  0.41774  0.00000  0.16451
      13     H     0.42310  0.42310  0.00000  0.15380
      14     C     3.15031  3.15031  0.00000 -0.30062
      15     H     0.42303  0.42303  0.00000  0.15394
      16     H     0.42449  0.42449  0.00000  0.15103
      17     C     3.15148  3.15148  0.00000 -0.30296
      18     H     0.42295  0.42295  0.00000  0.15411
      19     H     0.42358  0.42358  0.00000  0.15285
      20     C     3.23939  3.23939  0.00000 -0.47879
      21     H     0.42293  0.42293  0.00000  0.15414
      22     H     0.42376  0.42376  0.00000  0.15247
      23     H     0.41912  0.41912  0.00000  0.16176
      24     H     0.42131  0.42131  0.00000  0.15738
      25     H     0.42160  0.42160  0.00000  0.15681
      26     C     3.09334  3.09334  0.00000 -0.18667
      27     H     0.42271  0.42271  0.00000  0.15458
      28     H     0.40334  0.40334  0.00000  0.19332
      29     H     0.40761  0.40761  0.00000  0.18478

   Total alpha = 44.00000, Total beta = 44.00000, Total charge = -0.00000
