                              Psi4 1.0.54 Driver

  ==> Input File <==

--------------------------------------------------------------------------
set {
	reference rhf
	basis cc-pvtz
}

set_num_threads( 4 )
memory 2 gb

molecule MOL {
0 1

H	 -4.024094	 -0.454727	 0.000004
C	 -2.962215	 -0.297920	 0.000004
C	 -2.454736	 0.988978	 0.000025
C	 -2.105837	 -1.382632	 -0.000016
H	 -3.120052	 1.830438	 0.000041
C	 -1.090106	 1.189676	 0.000026
H	 -2.500390	 -2.380229	 -0.000033
C	 -0.739175	 -1.183302	 -0.000016
H	 -0.680214	 2.179144	 0.000042
C	 -0.227341	 0.104540	 0.000006
H	 -0.073209	 -2.021168	 -0.000032
C	 1.238974	 0.374429	 0.000004
O	 1.558256	 1.502102	 0.606963
O	 2.041928	 -0.345208	 -0.492508
C	 2.929888	 1.842265	 0.656712
H	 3.489954	 1.084712	 1.183795
H	 2.982791	 2.780648	 1.184185
H	 3.330601	 1.950134	 -0.339878

	symmetry c1
}
set optking {
	frozen_dihedral = ("
		13 12 10 6
	")
}

ee,wfn = optimize('scf', return_wfn=True)
oeprop( wfn, 'DIPOLE', 'QUADRUPOLE', 'MULLIKEN_CHARGES')
f=open( 'psi4out.xyz', 'w' )
f.write( "18  " )
f.write( str(ee) + "\n" )
f.write( MOL.save_string_xyz() )
f.close()
--------------------------------------------------------------------------

    Molecular point group: c1
  Charge       = 0
  Multiplicity = 1
  Basis Set: CC-PVTZ
  Basis Set:
  @DF-RHF Final Energy:  -457.50686362274968
    Total Energy =                       -457.5068636227497336
    Molecular point group: c1
  Basis Set: CC-PVTZ
  Basis Set:
  Basis Set: CC-PVTZ
  Basis Set:
  @DF-RHF Final Energy:  -457.50748009983209
    Total Energy =                       -457.5074800998322644
  Basis Set: CC-PVTZ
  Basis Set:
  Basis Set: CC-PVTZ
  Basis Set:
  @DF-RHF Final Energy:  -457.50810843316231
    Total Energy =                       -457.5081084331623060
  Basis Set: CC-PVTZ
  Basis Set:
  Basis Set: CC-PVTZ
  Basis Set:
  @DF-RHF Final Energy:  -457.50821289310539
    Total Energy =                       -457.5082128931051102
  Basis Set: CC-PVTZ
  Basis Set:
  Basis Set: CC-PVTZ
  Basis Set:
  @DF-RHF Final Energy:  -457.50822145292534
    Total Energy =                       -457.5082214529249995
  Basis Set: CC-PVTZ
  Basis Set:
  Charge       = 0
  Multiplicity = 1
  Basis Set: CC-PVTZ
  Basis Set:

    Orbital Energies (a.u.)
    -----------------------

    Doubly Occupied:

       1A    -20.601642     2A    -20.535783     3A    -11.372062
       4A    -11.281437     5A    -11.245954     6A    -11.242975
       7A    -11.242497     8A    -11.240586     9A    -11.236635
      10A    -11.235915    11A     -1.477411    12A     -1.369340
      13A     -1.171200    14A     -1.052178    15A     -1.029383
      16A     -0.980908    17A     -0.863184    18A     -0.839607
      19A     -0.781789    20A     -0.744070    21A     -0.688029
      22A     -0.682057    23A     -0.678078    24A     -0.633605
      25A     -0.631539    26A     -0.601000    27A     -0.589859
      28A     -0.561531    29A     -0.533863    30A     -0.520157
      31A     -0.510432    32A     -0.503622    33A     -0.463711
      34A     -0.449927    35A     -0.349665    36A     -0.346640

  @DF-RHF Final Energy:  -457.50822327751882

   => Energetics <=

    Nuclear Repulsion Energy =            493.8075843588190992
    One-Electron Energy =               -1602.0550781823155830
    Two-Electron Energy =                 650.7392705459778881
    DFT Exchange-Correlation Energy =       0.0000000000000000
    Empirical Dispersion Energy =           0.0000000000000000
    PCM Polarization Energy =               0.0000000000000000
    EFP Energy =                            0.0000000000000000
    Total Energy =                       -457.5082232775184821
    Molecular point group: c1
  Basis Set: CC-PVTZ
  Basis Set:

  -Total Gradient:
     Atom            X                  Y                   Z
    ------   -----------------  -----------------  -----------------
       1       -0.000005759064     0.000011468898    -0.000004340488
       2        0.000018611227    -0.000145127671     0.000000922475
       3        0.000109094396     0.000095650296     0.000035234185
       4       -0.000129462563     0.000050772092    -0.000016520669
       5       -0.000009882799    -0.000001647903    -0.000002612702
       6       -0.000162334521    -0.000033155199    -0.003535983858
       7        0.000010654711    -0.000006719815     0.000007193445
       8        0.000076968558     0.000091404549     0.000005005002
       9        0.000013371588     0.000007500185     0.000004505214
      10        0.000144441999    -0.000624554227     0.006205508247
      11       -0.000000014002    -0.000013253753    -0.000002034290
      12       -0.000350643704     0.002287834526    -0.005580979393
      13        0.000206905186    -0.001721132006     0.002895043791
      14        0.000025008356    -0.000012915140    -0.000023940402
      15        0.000063205143     0.000017786486     0.000020713967
      16       -0.000001829530     0.000000176597    -0.000003093261
      17        0.000001628062    -0.000000652720    -0.000004950483
      18       -0.000009963030    -0.000003435197     0.000000329220

  **** Optimization is complete! (in 6 steps) ****
    Final optimized geometry and variables:
    Molecular point group: c1

    Geometry (in Angstrom), charge = 0, multiplicity = 1:

    H           -3.962365018471    -0.813542984143    -0.173827274654
    C           -2.905296678363    -0.630367577527    -0.139831771194
    C           -2.431503321498     0.667693558139    -0.108905604701
    C           -2.020490773518    -1.693448787095    -0.132722409723
    H           -3.117846786685     1.492108911119    -0.125211207592
    C           -1.071906939684     0.905005201327    -0.056659908335
    H           -2.388468349811    -2.700757209282    -0.161463569925
    C           -0.661321429459    -1.457587508115    -0.100566963530
    H           -0.700684424922     1.909306252969    -0.023466938521
    C           -0.184398562174    -0.158245638447    -0.042853815212
    H            0.036493129388    -2.270478948091    -0.119897892366
    C            1.291293012952     0.056296949848    -0.059655342602
    O            1.650828449483     1.184445649614     0.523080097778
    O            2.065168816216    -0.715418977023    -0.517244992488
    C            3.031772987105     1.488626720470     0.544011482310
    H            3.578267561602     0.730445166868     1.084332115990
    H            3.118150892809     2.439133393658     1.044621895364
    H            3.421729670868     1.557727390187    -0.460537280069

  Mulliken Charges: (a.u.)
   Center  Symbol    Alpha    Beta     Spin     Total
       1     H     0.42061  0.42061  0.00000  0.15878
       2     C     3.07291  3.07291  0.00000 -0.14583
       3     C     3.07314  3.07314  0.00000 -0.14628
       4     C     3.07150  3.07150  0.00000 -0.14300
       5     H     0.42171  0.42171  0.00000  0.15658
       6     C     3.08666  3.08666  0.00000 -0.17332
       7     H     0.42070  0.42070  0.00000  0.15859
       8     C     3.08258  3.08258  0.00000 -0.16515
       9     H     0.41450  0.41450  0.00000  0.17100
      10     C     2.97863  2.97863  0.00000  0.04275
      11     H     0.41012  0.41012  0.00000  0.17975
      12     C     2.80751  2.80751  0.00000  0.38498
      13     O     4.14723  4.14723  0.00000 -0.29447
      14     O     4.20599  4.20599  0.00000 -0.41198
      15     C     3.03678  3.03678  0.00000 -0.07355
      16     H     0.45167  0.45167  0.00000  0.09666
      17     H     0.44431  0.44431  0.00000  0.11138
      18     H     0.45345  0.45345  0.00000  0.09310

   Total alpha = 36.00000, Total beta = 36.00000, Total charge = -0.00000

*** Psi4 exiting successfully. Buy a developer a beer!
