  ==> Input File <==

--------------------------------------------------------------------------
set {
	reference rhf
	basis cc-pvtz
}

set_num_threads( 4 )
memory 2 gb

molecule MOL {
0 1

O	 -2.071633	 -1.227563	 -0.223463
C	 -1.652164	 -0.152425	 0.058082
C	 -0.327811	 0.006324	 0.778296
C	 -2.402515	 1.108629	 -0.298924
C	 0.843231	 -0.001575	 -0.211665
H	 -0.319484	 0.928173	 1.350354
H	 -0.227804	 -0.823091	 1.466705
C	 2.197693	 0.138030	 0.476937
H	 0.722944	 0.805202	 -0.930230
H	 0.813976	 -0.926978	 -0.776588
C	 2.136232	 0.990747	 1.739576
H	 2.579112	 -0.848535	 0.725401
H	 2.908055	 0.574105	 -0.219314
H	 1.459323	 0.560893	 2.470366
H	 1.788110	 1.993623	 1.517273
H	 3.112471	 1.074294	 2.202585
H	 -3.240910	 0.874416	 -0.936711
H	 -1.747554	 1.818823	 -0.790984
H	 -2.760419	 1.579708	 0.610998

	symmetry c1
}
set optking {
	frozen_dihedral = ("
		11 8 5 9
	")
}

ee = optimize('scf')
oeprop('DIPOLE', 'QUADRUPOLE', 'MULLIKEN_CHARGES')
f=open( 'psi4out.xyz', 'w' )
f.write( "19  " )
f.write( str(ee) + "\n" )
f.write( MOL.save_string_xyz() )
f.close()
--------------------------------------------------------------------------

    Molecular point group: c1
  Charge       = 0
  Multiplicity = 1
  Basis Set: CC-PVTZ
  Basis Set:
  @DF-RHF Final Energy:  -309.16944674735828
    Total Energy =                       -309.1694467473582222
    Molecular point group: c1
  Basis Set: CC-PVTZ
  Basis Set:
  Basis Set: CC-PVTZ
  Basis Set:
  @DF-RHF Final Energy:  -309.17041676365233
    Total Energy =                       -309.1704167636520992
  Basis Set: CC-PVTZ
  Basis Set:
  Basis Set: CC-PVTZ
  Basis Set:
  @DF-RHF Final Energy:  -309.17198729817528
    Total Energy =                       -309.1719872981751678
  Basis Set: CC-PVTZ
  Basis Set:
  Basis Set: CC-PVTZ
  Basis Set:
  @DF-RHF Final Energy:  -309.17210421526380
    Total Energy =                       -309.1721042152635732
  Basis Set: CC-PVTZ
  Basis Set:
  Basis Set: CC-PVTZ
  Basis Set:
  @DF-RHF Final Energy:  -309.17213540592854
    Total Energy =                       -309.1721354059283158
  Basis Set: CC-PVTZ
  Basis Set:
  Basis Set: CC-PVTZ
  Basis Set:
  @DF-RHF Final Energy:  -309.17214001371832
    Total Energy =                       -309.1721400137183764
  Basis Set: CC-PVTZ
  Basis Set:
  Charge       = 0
  Multiplicity = 1
  Basis Set: CC-PVTZ
  Basis Set:

    Orbital Energies (a.u.)
    -----------------------

    Doubly Occupied:

       1A    -20.536890     2A    -11.319492     3A    -11.228910
       4A    -11.227912     5A    -11.226903     6A    -11.223463
       7A    -11.214618     8A     -1.397107     9A     -1.091327
      10A     -1.028444    11A     -0.982412    12A     -0.904111
      13A     -0.796443    14A     -0.735824    15A     -0.660785
      16A     -0.654991    17A     -0.622389    18A     -0.606104
      19A     -0.593914    20A     -0.570223    21A     -0.553941
      22A     -0.544351    23A     -0.523240    24A     -0.502226
      25A     -0.481361    26A     -0.470286    27A     -0.462842
      28A     -0.399971

  @DF-RHF Final Energy:  -309.17214045472315

   => Energetics <=

    Nuclear Repulsion Energy =            305.5162786760407698
    One-Electron Energy =               -1024.2558816020255108
    Two-Electron Energy =                 409.5674624712617060
    DFT Exchange-Correlation Energy =       0.0000000000000000
    Empirical Dispersion Energy =           0.0000000000000000
    PCM Polarization Energy =               0.0000000000000000
    EFP Energy =                            0.0000000000000000
    Total Energy =                       -309.1721404547230350
    Molecular point group: c1
  Basis Set: CC-PVTZ
  Basis Set:

  -Total Gradient:
     Atom            X                  Y                   Z
    ------   -----------------  -----------------  -----------------
       1        0.000009155232    -0.000001146454     0.000002792044
       2        0.000006687447     0.000013241495    -0.000057186807
       3       -0.000007497861     0.000009512950     0.000007667626
       4       -0.000039008802    -0.000020453529     0.000041524872
       5       -0.003138216013     0.002705588531     0.006252060815
       6        0.000013450201    -0.000014057388    -0.000006542309
       7       -0.000001734673    -0.000008406632     0.000011587971
       8        0.001907566333     0.004285310324    -0.004445003670
       9        0.002185747093    -0.003441622313    -0.004219842397
      10       -0.000016386983     0.000008932892     0.000016124178
      11       -0.000945269662    -0.003552226360     0.002406304068
      12        0.000009878405     0.000008335417     0.000015195140
      13       -0.000012114705    -0.000002268890    -0.000004228586
      14       -0.000009936732     0.000003426483    -0.000001786311
      15        0.000007136251    -0.000000572430    -0.000004759228
      16        0.000001283842    -0.000003571225     0.000003074517
      17        0.000003258021     0.000001371179    -0.000003914230
      18        0.000015550997     0.000000547954    -0.000010440843
      19        0.000010451607     0.000008057996    -0.000002626849

  **** Optimization is complete! (in 7 steps) ****
    Final optimized geometry and variables:
    Molecular point group: c1

    Geometry (in Angstrom), charge = 0, multiplicity = 1:

    O           -1.867811162073    -1.389995348468    -0.600045508650
    C           -1.493742875135    -0.301218227906    -0.307446388978
    C           -0.203576864155    -0.096202307750     0.462129881530
    C           -2.271615170793     0.933953313686    -0.694985909750
    C            0.991670977911    -0.057954818179    -0.496509522309
    H           -0.259773115076     0.817910111867     1.040209160057
    H           -0.097353712582    -0.928662806125     1.146471888794
    C            2.377087944644     0.016360244929     0.167830860227
    H            0.887872053488     0.751819602591    -1.213690149628
    H            0.959465992743    -0.960669292416    -1.096700175803
    C            2.468707587251     0.853436176727     1.441372008502
    H            2.693960662940    -0.993158584590     0.412056369272
    H            3.087989993453     0.385243691491    -0.562929412178
    H            1.860519888864     0.440924302282     2.236520605204
    H            2.150001223921     1.878054791438     1.275696939832
    H            3.492022727050     0.884280052379     1.796629275132
    H           -3.075388150713     0.671636785496    -1.365556342890
    H           -1.622249583570     1.666632669041    -1.160619021976
    H           -2.681835049228     1.391360789416     0.199707794410

  Mulliken Charges: (a.u.)
   Center  Symbol    Alpha    Beta     Spin     Total
       1     O     4.17725  4.17725  0.00000 -0.35451
       2     C     2.85754  2.85754  0.00000  0.28493
       3     C     3.10155  3.10155  0.00000 -0.20310
       4     C     3.15635  3.15635  0.00000 -0.31270
       5     C     3.10602  3.10602  0.00000 -0.21203
       6     H     0.44593  0.44593  0.00000  0.10815
       7     H     0.43860  0.43860  0.00000  0.12280
       8     C     3.08857  3.08857  0.00000 -0.17713
       9     H     0.45009  0.45009  0.00000  0.09981
      10     H     0.43904  0.43904  0.00000  0.12193
      11     C     3.15846  3.15846  0.00000 -0.31693
      12     H     0.44997  0.44997  0.00000  0.10005
      13     H     0.44750  0.44750  0.00000  0.10499
      14     H     0.45112  0.45112  0.00000  0.09775
      15     H     0.45444  0.45444  0.00000  0.09112
      16     H     0.44279  0.44279  0.00000  0.11441
      17     H     0.43580  0.43580  0.00000  0.12840
      18     H     0.45055  0.45055  0.00000  0.09891
      19     H     0.44843  0.44843  0.00000  0.10313

   Total alpha = 28.00000, Total beta = 28.00000, Total charge = -0.00000
