                              Psi4 1.0.54 Driver

  ==> Input File <==

--------------------------------------------------------------------------
set {
	reference rhf
	basis cc-pvtz
}

set_num_threads( 4 )
memory 2 gb

molecule MOL {
0 1

H	 3.262884	 0.175855	 -0.217470
N	 2.433987	 -0.362316	 -0.080024
C	 1.263552	 0.494993	 0.021953
H	 2.561938	 -0.891766	 0.757023
C	 -0.016533	 -0.325589	 -0.026925
H	 1.280915	 1.180773	 -0.818522
H	 1.263064	 1.106893	 0.925038
C	 -1.280353	 0.525521	 0.047747
H	 -0.016686	 -0.912532	 -0.939714
H	 -0.014099	 -1.037598	 0.796369
C	 -2.560681	 -0.301323	 -0.007747
H	 -1.279957	 1.241025	 -0.770189
H	 -1.270445	 1.110526	 0.963468
H	 -2.617064	 -0.872870	 -0.928010
H	 -3.439525	 0.331102	 0.043462
H	 -2.609427	 -1.002736	 0.818585

	symmetry c1
}
set optking {
	frozen_dihedral = ("
		1 2 3 6
	")
}

ee,wfn = optimize('scf', return_wfn=True)
oeprop( wfn, 'DIPOLE', 'QUADRUPOLE', 'MULLIKEN_CHARGES')
f=open( 'psi4out.xyz', 'w' )
f.write( "16  " )
f.write( str(ee) + "\n" )
f.write( MOL.save_string_xyz() )
f.close()
--------------------------------------------------------------------------

    Molecular point group: c1
  Charge       = 0
  Multiplicity = 1
  Basis Set: CC-PVTZ
  Basis Set:
  @DF-RHF Final Energy:  -212.40020919891813
    Total Energy =                       -212.4002091989181622
    Molecular point group: c1
  Basis Set: CC-PVTZ
  Basis Set:
  Basis Set: CC-PVTZ
  Basis Set:
  @DF-RHF Final Energy:  -212.40022306463223
    Total Energy =                       -212.4002230646323142
  Basis Set: CC-PVTZ
  Basis Set:
  Basis Set: CC-PVTZ
  Basis Set:
  @DF-RHF Final Energy:  -212.40022571211003
    Total Energy =                       -212.4002257121100001
  Basis Set: CC-PVTZ
  Basis Set:
  Charge       = 0
  Multiplicity = 1
  Basis Set: CC-PVTZ
  Basis Set:

    Orbital Energies (a.u.)
    -----------------------

    Doubly Occupied:

       1A    -15.526276     2A    -11.238160     3A    -11.212444
       4A    -11.206880     5A    -11.205490     6A     -1.177897
       7A     -1.060409     8A     -0.959560     9A     -0.843912
      10A     -0.791565    11A     -0.668134    12A     -0.635952
      13A     -0.607459    14A     -0.576937    15A     -0.563325
      16A     -0.526722    17A     -0.498845    18A     -0.470225
      19A     -0.465811    20A     -0.462397    21A     -0.382924

  @DF-RHF Final Energy:  -212.40022590932242

   => Energetics <=

    Nuclear Repulsion Energy =            186.5076321550274372
    One-Electron Energy =                -655.6530698904964538
    Two-Electron Energy =                 256.7452118261466012
    DFT Exchange-Correlation Energy =       0.0000000000000000
    Empirical Dispersion Energy =           0.0000000000000000
    PCM Polarization Energy =               0.0000000000000000
    EFP Energy =                            0.0000000000000000
    Total Energy =                       -212.4002259093224438
    Molecular point group: c1
  Basis Set: CC-PVTZ
  Basis Set:

  -Total Gradient:
     Atom            X                  Y                   Z
    ------   -----------------  -----------------  -----------------
       1       -0.000134251656    -0.000046361256    -0.000912084031
       2        0.000268224319     0.000150611066     0.001247937314
       3       -0.000605587010    -0.000659972990    -0.000750543507
       4       -0.000014361677     0.000013305488    -0.000020072737
       5        0.000018133707    -0.000006716424    -0.000007977553
       6        0.000437946162     0.000528146558     0.000457197037
       7        0.000001427414     0.000008772796    -0.000003485475
       8        0.000014887853     0.000009429113    -0.000008622565
       9        0.000001785239     0.000000217871    -0.000003698074
      10        0.000006893148     0.000009574641    -0.000006977674
      11        0.000000216368    -0.000006844196     0.000009850664
      12        0.000003619267    -0.000001050721    -0.000002064031
      13        0.000001448603     0.000000788354    -0.000003030303
      14        0.000001516157     0.000004625316     0.000000732617
      15        0.000000403660    -0.000000189230     0.000003544937
      16       -0.000002301553    -0.000004336385    -0.000000706620

  **** Optimization is complete! (in 4 steps) ****
    Final optimized geometry and variables:
    Molecular point group: c1

    Geometry (in Angstrom), charge = 0, multiplicity = 1:

    H            3.265082591342     0.179452640012    -0.202947389173
    N            2.435539846152    -0.358657952985    -0.072757646359
    C            1.261732721319     0.494956046034     0.018895514013
    H            2.555104637310    -0.899867103674     0.757368904852
    C           -0.017432898947    -0.326856739220    -0.030957501466
    H            1.284551697503     1.180602589826    -0.821435210268
    H            1.256964082986     1.111690930222     0.918843033764
    C           -1.282122338942     0.522510422541     0.047426803447
    H           -0.017259634792    -0.911802170299    -0.944893397483
    H           -0.012216112717    -1.040872301471     0.790366155998
    C           -2.561473766220    -0.306064650622    -0.004058798446
    H           -1.285320996343     1.238170333656    -0.770478562699
    H           -1.270285268595     1.107462606961     0.963184304510
    H           -2.620763820147    -0.876215772049    -0.925002083679
    H           -3.441129342170     0.324907492347     0.051859170737
    H           -2.605596011952    -1.008922393852     0.821299908942

  Mulliken Charges: (a.u.)
   Center  Symbol    Alpha    Beta     Spin     Total
       1     H     0.42910  0.42910  0.00000  0.14180
       2     N     3.69074  3.69074  0.00000 -0.38148
       3     C     3.02850  3.02850  0.00000 -0.05700
       4     H     0.43040  0.43040  0.00000  0.13921
       5     C     3.07746  3.07746  0.00000 -0.15493
       6     H     0.45691  0.45691  0.00000  0.08618
       7     H     0.46827  0.46827  0.00000  0.06347
       8     C     3.08866  3.08866  0.00000 -0.17733
       9     H     0.44999  0.44999  0.00000  0.10002
      10     H     0.46049  0.46049  0.00000  0.07902
      11     C     3.14932  3.14932  0.00000 -0.29865
      12     H     0.45508  0.45508  0.00000  0.08984
      13     H     0.45659  0.45659  0.00000  0.08683
      14     H     0.45419  0.45419  0.00000  0.09162
      15     H     0.44886  0.44886  0.00000  0.10228
      16     H     0.45543  0.45543  0.00000  0.08913

   Total alpha = 21.00000, Total beta = 21.00000, Total charge = -0.00000

*** Psi4 exiting successfully. Buy a developer a beer!
