  ==> Input File <==

--------------------------------------------------------------------------
set {
	reference rhf
	basis 6-31G*
}

set_num_threads( 4 )
memory 2 gb

molecule MOL {
0 1

H	 2.632767	 1.360832	 -1.646776
O	 3.142998	 0.831334	 -2.242064
C	 3.387820	 -0.426540	 -1.665985
C	 2.154060	 -1.321681	 -1.630122
H	 4.154812	 -0.885575	 -2.276464
H	 3.797934	 -0.313067	 -0.663134
C	 1.021261	 -0.785234	 -0.751568
H	 1.795115	 -1.455067	 -2.647341
H	 2.457611	 -2.303108	 -1.269533
C	 -0.180865	 -1.731972	 -0.693275
H	 0.703207	 0.182143	 -1.130237
H	 1.394473	 -0.619236	 0.259124
C	 -1.309753	 -1.282496	 0.241564
H	 -0.578106	 -1.868420	 -1.697481
H	 0.165198	 -2.711171	 -0.369068
C	 -2.037799	 -0.007733	 -0.193645
H	 -2.036145	 -2.089407	 0.312732
H	 -0.911654	 -1.145576	 1.245859
C	 -3.489788	 0.042957	 0.286558
H	 -2.017067	 0.064384	 -1.280144
H	 -1.513726	 0.868678	 0.179924
C	 -4.216917	 1.317354	 -0.141063
H	 -4.025645	 -0.823308	 -0.095450
H	 -3.513059	 -0.038752	 1.371301
H	 -4.239342	 1.411634	 -1.223113
H	 -5.243387	 1.322503	 0.212445
H	 -3.726170	 2.201406	 0.256408

	symmetry c1
}
set optking {
	frozen_dihedral = ("
		10 13 16 20
	")
}

ee = optimize('scf')
oeprop('DIPOLE', 'QUADRUPOLE', 'MULLIKEN_CHARGES')
f=open( 'psi4out.xyz', 'w' )
f.write( "27  " )
f.write( str(ee) + "\n" )
f.write( MOL.save_string_xyz() )
f.close()
--------------------------------------------------------------------------

    Molecular point group: c1
  Charge       = 0
  Multiplicity = 1
  Basis Set: 6-31G*
  Basis Set:
  @DF-RHF Final Energy:  -388.27992004220442
    Total Energy =                       -388.2799200422036847
    Molecular point group: c1
  Basis Set: 6-31G*
  Basis Set:
  Basis Set: 6-31G*
  Basis Set:
  @DF-RHF Final Energy:  -388.27993309436613
    Total Energy =                       -388.2799330943654468
  Basis Set: 6-31G*
  Basis Set:
  Basis Set: 6-31G*
  Basis Set:
  @DF-RHF Final Energy:  -388.28010683750074
    Total Energy =                       -388.2801068375007389
  Basis Set: 6-31G*
  Basis Set:
  Basis Set: 6-31G*
  Basis Set:
  @DF-RHF Final Energy:  -388.28012883586928
    Total Energy =                       -388.2801288358691636
  Basis Set: 6-31G*
  Basis Set:
  @DF-RHF Final Energy:  -388.28016684758757
    Total Energy =                       -388.2801668475876795
  @DF-RHF Final Energy:  -388.28016724920207
    Total Energy =                       -388.2801672492021225
  Basis Set: 6-31G*
  Basis Set:
  @DF-RHF Final Energy:  -388.28017402670724
    Total Energy =                       -388.2801740267069590
  Basis Set: 6-31G*
  Basis Set:
  Basis Set: 6-31G*
  Basis Set:
  @DF-RHF Final Energy:  -388.28017257232881
    Total Energy =                       -388.2801725723288655
  Basis Set: 6-31G*
  Basis Set:
  Basis Set: 6-31G*
  Basis Set:
  @DF-RHF Final Energy:  -388.28017567642246
    Total Energy =                       -388.2801756764222318
  Basis Set: 6-31G*
  Basis Set:
  Charge       = 0
  Multiplicity = 1
  Basis Set: 6-31G*
  Basis Set:

    Orbital Energies (a.u.)
    -----------------------

    Doubly Occupied:

       1A    -20.552161     2A    -11.266947     3A    -11.219666
       4A    -11.217316     5A    -11.216451     6A    -11.215495
       7A    -11.215138     8A    -11.214482     9A    -11.209333
      10A     -1.358933    11A     -1.095057    12A     -1.061197
      13A     -1.011603    14A     -0.947826    15A     -0.888278
      16A     -0.820443    17A     -0.802881    18A     -0.777176
      19A     -0.693511    20A     -0.653862    21A     -0.631989
      22A     -0.615537    23A     -0.602217    24A     -0.584585
      25A     -0.579017    26A     -0.553029    27A     -0.539096
      28A     -0.532231    29A     -0.505600    30A     -0.494197
      31A     -0.484604    32A     -0.474072    33A     -0.471311
      34A     -0.457994    35A     -0.452310    36A     -0.442196
      37A     -0.422467

  @DF-RHF Final Energy:  -388.28017567581122

   => Energetics <=

    Nuclear Repulsion Energy =            460.0310707181051271
    One-Electron Energy =               -1438.0620777456233554
    Two-Electron Energy =                 589.7508313517064380
    DFT Exchange-Correlation Energy =       0.0000000000000000
    Empirical Dispersion Energy =           0.0000000000000000
    PCM Polarization Energy =               0.0000000000000000
    EFP Energy =                            0.0000000000000000
    Total Energy =                       -388.2801756758117335
    Molecular point group: c1
  Basis Set: 6-31G*
  Basis Set:

  -Total Gradient:
     Atom            X                  Y                   Z
    ------   -----------------  -----------------  -----------------
       1       -0.000011606886     0.000002260978     0.000004806274
       2       -0.000010271155    -0.000000818539     0.000012354480
       3        0.000006229740    -0.000014407019    -0.000036043337
       4        0.000007686154     0.000012409615     0.000007342818
       5        0.000006002868    -0.000001562707    -0.000000975061
       6       -0.000007031737    -0.000001856908    -0.000001504373
       7       -0.000005716087    -0.000002369370    -0.000007823604
       8        0.000006585241    -0.000005087718     0.000001898340
       9        0.000007874763     0.000003717121     0.000005211049
      10       -0.001700468327    -0.001454703897    -0.001404660018
      11        0.000013005074     0.000015115578     0.000009299351
      12       -0.000000410667    -0.000012911629     0.000006586657
      13        0.003147737087     0.002509805959     0.002040510404
      14        0.000001063704    -0.000004764472     0.000002856589
      15        0.000003924583     0.000002228212     0.000005470788
      16       -0.004557788853    -0.002853730798    -0.000873226918
      17       -0.000007502915    -0.000009178231    -0.000005842778
      18       -0.000012982023    -0.000003520134    -0.000003899073
      19        0.000013368103     0.000011212053     0.000020293777
      20        0.003096551948     0.001811509626     0.000239471973
      21        0.000009265351     0.000005712794    -0.000012627896
      22       -0.000005670421    -0.000000907197    -0.000000983029
      23        0.000003588832    -0.000003125988    -0.000001909636
      24       -0.000000743131    -0.000003554865    -0.000001516446
      25       -0.000001004473     0.000001724923    -0.000002144027
      26       -0.000002932359     0.000001613352    -0.000003170826
      27        0.000001245587    -0.000004810744     0.000000224525

  **** Optimization is complete! (in 10 steps) ****
    Final optimized geometry and variables:
    Molecular point group: c1

    Geometry (in Angstrom), charge = 0, multiplicity = 1:

    H            2.680466929906     1.718145364848    -0.874872390168
    O            3.201485723521     1.203022886191    -1.473470560128
    C            3.487453479620    -0.046152353729    -0.897549731389
    C            2.279384514185    -0.974954968247    -0.846947052161
    H            4.260467595118    -0.484792424893    -1.515358027397
    H            3.904798999223     0.080911939142     0.100678333509
    C            1.140790145641    -0.467174425404     0.040785179351
    H            1.914475533526    -1.121637567661    -1.860214852547
    H            2.613198679463    -1.946477639561    -0.486206159124
    C           -0.037139540193    -1.442493777680     0.114130913289
    H            0.791255349774     0.490756800140    -0.335881736125
    H            1.518275243164    -0.288314802558     1.047712316897
    C           -1.181948227168    -0.986050174066     1.024331386460
    H           -0.426418621179    -1.611139738780    -0.888044386956
    H            0.327226294557    -2.405303172693     0.466254276373
    C           -1.895008136151     0.294298049171     0.561734169884
    H           -1.908946622943    -1.794542155909     1.069377542438
    H           -0.816932362537    -0.855787821172     2.040942267922
    C           -3.344196538011     0.388659310502     1.039728324717
    H           -1.854564554787     0.366763981137    -0.523943820259
    H           -1.349921033310     1.164090759843     0.923983157185
    C           -4.025738170574     1.694282548671     0.632778858138
    H           -3.907782512189    -0.452649183821     0.642392589701
    H           -3.371639211243     0.288729785389     2.123026120558
    H           -4.037266313240     1.809965882707    -0.447418643554
    H           -5.054007585243     1.726344479055     0.979537588254
    H           -3.508975955482     2.553673553433     1.050680490355

  Mulliken Charges: (a.u.)
   Center  Symbol    Alpha    Beta     Spin     Total
       1     H     0.27985  0.27985  0.00000  0.44031
       2     O     4.37099  4.37099  0.00000 -0.74197
       3     C     2.99731  2.99731  0.00000  0.00537
       4     C     3.16096  3.16096  0.00000 -0.32193
       5     H     0.41448  0.41448  0.00000  0.17104
       6     H     0.43206  0.43206  0.00000  0.13588
       7     C     3.16335  3.16335  0.00000 -0.32669
       8     H     0.41512  0.41512  0.00000  0.16976
       9     H     0.42432  0.42432  0.00000  0.15136
      10     C     3.15285  3.15285  0.00000 -0.30570
      11     H     0.42247  0.42247  0.00000  0.15505
      12     H     0.42546  0.42546  0.00000  0.14909
      13     C     3.15442  3.15442  0.00000 -0.30885
      14     H     0.42147  0.42147  0.00000  0.15707
      15     H     0.42183  0.42183  0.00000  0.15633
      16     C     3.15382  3.15382  0.00000 -0.30763
      17     H     0.42084  0.42084  0.00000  0.15832
      18     H     0.42246  0.42246  0.00000  0.15508
      19     C     3.15186  3.15186  0.00000 -0.30372
      20     H     0.42247  0.42247  0.00000  0.15506
      21     H     0.42411  0.42411  0.00000  0.15178
      22     C     3.23968  3.23968  0.00000 -0.47936
      23     H     0.42248  0.42248  0.00000  0.15505
      24     H     0.42278  0.42278  0.00000  0.15445
      25     H     0.42136  0.42136  0.00000  0.15727
      26     H     0.41914  0.41914  0.00000  0.16173
      27     H     0.42207  0.42207  0.00000  0.15586

   Total alpha = 37.00000, Total beta = 37.00000, Total charge = -0.00000
