                              Psi4 1.0.54 Driver

  ==> Input File <==

--------------------------------------------------------------------------
set {
	reference rhf
	basis cc-pvtz
}

set_num_threads( 4 )
memory 2 gb

molecule MOL {
0 1

O	 2.255362	 0.545423	 -0.957086
C	 1.704209	 0.119472	 -0.000093
C	 0.380337	 -0.600947	 -0.000234
O	 2.193867	 0.224529	 1.224495
C	 -0.824290	 0.329213	 -0.000115
H	 0.371455	 -1.255476	 -0.865660
H	 0.371410	 -1.255787	 0.864952
C	 -2.146151	 -0.432825	 -0.000068
H	 -0.773936	 0.979158	 -0.866319
H	 -0.773838	 0.979034	 0.866186
C	 -3.366283	 0.483552	 0.000557
H	 -2.189286	 -1.084450	 -0.869996
H	 -2.188867	 -1.085083	 0.869399
C	 -4.687436	 -0.278003	 0.000108
H	 -3.325150	 1.134819	 -0.867957
H	 -3.325087	 1.133730	 0.869885
H	 -4.773783	 -0.912098	 -0.876078
H	 -5.531922	 0.401392	 0.000363
H	 -4.773901	 -0.912898	 0.875703
C	 3.436574	 0.881139	 1.372369
H	 4.208189	 0.365919	 0.819765
H	 3.658998	 0.863244	 2.426909
H	 3.373217	 1.900646	 1.021933

	symmetry c1
}
set optking {
	frozen_dihedral = ("
		1 2 3 6
	")
}

ee,wfn = optimize('scf', return_wfn=True)
oeprop( wfn, 'DIPOLE', 'QUADRUPOLE', 'MULLIKEN_CHARGES')
f=open( 'psi4out.xyz', 'w' )
f.write( "23  " )
f.write( str(ee) + "\n" )
f.write( MOL.save_string_xyz() )
f.close()
--------------------------------------------------------------------------

    Molecular point group: c1
  Charge       = 0
  Multiplicity = 1
  Basis Set: CC-PVTZ
  Basis Set:
  @DF-RHF Final Energy:  -423.12904949099971
    Total Energy =                       -423.1290494909998188
    Molecular point group: c1
  Basis Set: CC-PVTZ
  Basis Set:
  Basis Set: CC-PVTZ
  Basis Set:
  @DF-RHF Final Energy:  -423.12906983279299
    Total Energy =                       -423.1290698327928794
  Basis Set: CC-PVTZ
  Basis Set:
  Basis Set: CC-PVTZ
  Basis Set:
  @DF-RHF Final Energy:  -423.12970628830135
    Total Energy =                       -423.1297062883008948
  Basis Set: CC-PVTZ
  Basis Set:
  Basis Set: CC-PVTZ
  Basis Set:
  @DF-RHF Final Energy:  -423.12982113359811
    Total Energy =                       -423.1298211335980568
  Basis Set: CC-PVTZ
  Basis Set:
  Basis Set: CC-PVTZ
  Basis Set:
  @DF-RHF Final Energy:  -423.12982775119281
    Total Energy =                       -423.1298277511928063
  Basis Set: CC-PVTZ
  Basis Set:
  Basis Set: CC-PVTZ
  Basis Set:
  @DF-RHF Final Energy:  -423.12982968239419
    Total Energy =                       -423.1298296823945293
  Basis Set: CC-PVTZ
  Basis Set:
  Charge       = 0
  Multiplicity = 1
  Basis Set: CC-PVTZ
  Basis Set:

    Orbital Energies (a.u.)
    -----------------------

    Doubly Occupied:

       1A    -20.597886     2A    -20.531170     3A    -11.363201
       4A    -11.278286     5A    -11.231717     6A    -11.226789
       7A    -11.219300     8A    -11.217649     9A    -11.209890
      10A     -1.471816    11A     -1.364076    12A     -1.097866
      13A     -1.046104    14A     -0.986581    15A     -0.935008
      16A     -0.846326    17A     -0.798601    18A     -0.774755
      19A     -0.696721    20A     -0.683217    21A     -0.675637
      22A     -0.654979    23A     -0.608215    24A     -0.597710
      25A     -0.579342    26A     -0.572725    27A     -0.541380
      28A     -0.536499    29A     -0.525363    30A     -0.506958
      31A     -0.491470    32A     -0.476324    33A     -0.470730
      34A     -0.466925    35A     -0.456989    36A     -0.431649

  @DF-RHF Final Energy:  -423.12982978334099

   => Energetics <=

    Nuclear Repulsion Energy =            454.8042775635875046
    One-Electron Energy =               -1477.5285085913296825
    Two-Electron Energy =                 599.5944012444007285
    DFT Exchange-Correlation Energy =       0.0000000000000000
    Empirical Dispersion Energy =           0.0000000000000000
    PCM Polarization Energy =               0.0000000000000000
    EFP Energy =                            0.0000000000000000
    Total Energy =                       -423.1298297833415063
    Molecular point group: c1
  Basis Set: CC-PVTZ
  Basis Set:

  -Total Gradient:
     Atom            X                  Y                   Z
    ------   -----------------  -----------------  -----------------
       1       -0.000197711436     0.000326956701     0.000099039319
       2        0.000314093355    -0.000527623798    -0.000123510818
       3       -0.000267372886     0.000453512604    -0.000174685123
       4        0.000010622988     0.000023710551     0.000021692614
       5       -0.000008711373     0.000015116447    -0.000007095706
       6        0.000152948604    -0.000267829063     0.000190870158
       7       -0.000002952674    -0.000001254475    -0.000008677419
       8        0.000008298050    -0.000003321952     0.000008243111
       9        0.000001659639     0.000004398277    -0.000000505126
      10        0.000000542167    -0.000007045566    -0.000001822721
      11        0.000001629578     0.000000423300     0.000002260021
      12        0.000000238007    -0.000001025566     0.000005034682
      13       -0.000000394512     0.000001760929    -0.000000376556
      14       -0.000004308036     0.000001146944    -0.000008019810
      15       -0.000001384907     0.000001547260     0.000001907988
      16        0.000000581284    -0.000003606845    -0.000001089452
      17       -0.000001044352    -0.000000563420     0.000001551905
      18       -0.000000576806    -0.000001908234    -0.000000906853
      19        0.000001565245     0.000003331063    -0.000000934816
      20       -0.000007538720    -0.000028188850     0.000000300687
      21        0.000002776733     0.000009383730     0.000003067156
      22       -0.000001313222     0.000003082148    -0.000005366465
      23       -0.000001646728    -0.000002002186    -0.000000976776

  **** Optimization is complete! (in 7 steps) ****
    Final optimized geometry and variables:
    Molecular point group: c1

    Geometry (in Angstrom), charge = 0, multiplicity = 1:

    O            2.263721691639     0.412287234585    -1.145380667418
    C            1.774964989487    -0.060980330817    -0.175641086412
    C            0.473342696424    -0.819221158807    -0.164856566752
    O            2.304143566164     0.052411422683     1.030744566473
    C           -0.720138552248     0.142434854090    -0.168257688973
    H            0.452709972937    -1.436482607747    -1.053316481458
    H            0.435934149265    -1.460694696336     0.704966180808
    C           -2.057918989988    -0.590121936699    -0.188759520842
    H           -0.644268934142     0.792786208600    -1.032693487518
    H           -0.669034200391     0.778808464559     0.710367281745
    C           -3.257654382674     0.352862659333    -0.195262812197
    H           -2.101380878019    -1.232134697942    -1.065065074680
    H           -2.122741177116    -1.247328207283     0.674998354476
    C           -4.594251600376    -0.380909403709    -0.219044497067
    H           -3.191842912570     1.010151592034    -1.057656618821
    H           -3.214310236483     0.994255204580     0.680640708831
    H           -4.682394034443    -1.005062066928    -1.102009526941
    H           -5.424099893794     0.316191167464    -0.223211430301
    H           -4.704852631693    -1.021444128194     0.649621441925
    C            3.506357332295     0.787366012778     1.143571435001
    H            4.286905370623     0.333077139327     0.551700551767
    H            3.770914560512     0.766791450520     2.188307062515
    H            3.362468491501     1.805837558532     0.814676116529

  Mulliken Charges: (a.u.)
   Center  Symbol    Alpha    Beta     Spin     Total
       1     O     4.20554  4.20554  0.00000 -0.41108
       2     C     2.80783  2.80783  0.00000  0.38435
       3     C     3.07694  3.07694  0.00000 -0.15388
       4     O     4.14852  4.14852  0.00000 -0.29705
       5     C     3.09964  3.09964  0.00000 -0.19929
       6     H     0.44095  0.44095  0.00000  0.11811
       7     H     0.44283  0.44283  0.00000  0.11433
       8     C     3.09100  3.09100  0.00000 -0.18200
       9     H     0.44173  0.44173  0.00000  0.11655
      10     H     0.44925  0.44925  0.00000  0.10149
      11     C     3.08476  3.08476  0.00000 -0.16953
      12     H     0.45310  0.45310  0.00000  0.09380
      13     H     0.45412  0.45412  0.00000  0.09176
      14     C     3.15019  3.15019  0.00000 -0.30039
      15     H     0.45272  0.45272  0.00000  0.09457
      16     H     0.45394  0.45394  0.00000  0.09212
      17     H     0.45453  0.45453  0.00000  0.09094
      18     H     0.44757  0.44757  0.00000  0.10486
      19     H     0.45506  0.45506  0.00000  0.08989
      20     C     3.03653  3.03653  0.00000 -0.07306
      21     H     0.45342  0.45342  0.00000  0.09315
      22     H     0.44546  0.44546  0.00000  0.10907
      23     H     0.45435  0.45435  0.00000  0.09130

   Total alpha = 36.00000, Total beta = 36.00000, Total charge = -0.00000

*** Psi4 exiting successfully. Buy a developer a beer!
