  ==> Input File <==

--------------------------------------------------------------------------
set {
	reference rhf
	basis 6-31G*
}

set_num_threads( 4 )
memory 2 gb

molecule MOL {
0 1

H	 1.255150	 1.136450	 1.593869
C	 0.342641	 1.250631	 1.025015
O	 0.000000	 0.000000	 0.521119
H	 -0.433816	 1.643130	 1.679805
H	 0.513763	 1.969559	 0.225296
C	 -1.165642	 0.000000	 -0.238270
H	 -1.228672	 0.883184	 -0.872070
H	 -2.003012	 0.000000	 0.445920
H	 -1.228672	 -0.883184	 -0.872070

	symmetry c1
}
set optking {
	frozen_dihedral = ("
		2 3 6 7
	")
}

ee = optimize('scf')
oeprop('DIPOLE', 'QUADRUPOLE', 'MULLIKEN_CHARGES')
f=open( 'psi4out.xyz', 'w' )
f.write( "9  " )
f.write( str(ee) + "\n" )
f.write( MOL.save_string_xyz() )
f.close()
--------------------------------------------------------------------------

    Molecular point group: c1
  Charge       = 0
  Multiplicity = 1
  Basis Set: 6-31G*
  Basis Set:
  @DF-RHF Final Energy:  -154.06260930408092
    Total Energy =                       -154.0626093040809508
    Molecular point group: c1
  Basis Set: 6-31G*
  Basis Set:
  Basis Set: 6-31G*
  Basis Set:
  @DF-RHF Final Energy:  -154.06337017325404
    Total Energy =                       -154.0633701732540999
  Basis Set: 6-31G*
  Basis Set:
  Basis Set: 6-31G*
  Basis Set:
  @DF-RHF Final Energy:  -154.06356514290391
    Total Energy =                       -154.0635651429038830
  Basis Set: 6-31G*
  Basis Set:
  Charge       = 0
  Multiplicity = 1
  Basis Set: 6-31G*
  Basis Set:

    Orbital Energies (a.u.)
    -----------------------

    Doubly Occupied:

       1A    -20.555289     2A    -11.265440     3A    -11.265137
       4A     -1.378190     5A     -0.974884     6A     -0.873070
       7A     -0.660238     8A     -0.654236     9A     -0.644838
      10A     -0.553062    11A     -0.529675    12A     -0.474847
      13A     -0.415517

  @DF-RHF Final Energy:  -154.06356655306195

   => Energetics <=

    Nuclear Repulsion Energy =             84.7026952683261101
    One-Electron Energy =                -377.0436780761889395
    Two-Electron Energy =                 138.2774162548008690
    DFT Exchange-Correlation Energy =       0.0000000000000000
    Empirical Dispersion Energy =           0.0000000000000000
    PCM Polarization Energy =               0.0000000000000000
    EFP Energy =                            0.0000000000000000
    Total Energy =                       -154.0635665530619463
    Molecular point group: c1
  Basis Set: 6-31G*
  Basis Set:

  -Total Gradient:
     Atom            X                  Y                   Z
    ------   -----------------  -----------------  -----------------
       1       -0.000027643175    -0.000099593194    -0.000027510322
       2        0.001052792136     0.000519605539    -0.001983760868
       3       -0.002077858125    -0.000280768883     0.003211628511
       4        0.000006593128    -0.000040467767     0.000006453317
       5        0.000013326495     0.000021413442    -0.000000804745
       6        0.002172635686    -0.001530115907    -0.003381263579
       7       -0.001257181878     0.001407386296     0.002083615813
       8        0.000025039204    -0.000000252069     0.000043806396
       9        0.000092296527     0.000002792546     0.000047835477

  **** Optimization is complete! (in 4 steps) ****
    Final optimized geometry and variables:
    Molecular point group: c1

    Geometry (in Angstrom), charge = 0, multiplicity = 1:

    H            1.553096396269     0.694660689961     1.148219619852
    C            0.635411291378     0.818848503153     0.589898725097
    O            0.280549622111    -0.427847383438     0.084328294656
    H           -0.128901257624     1.216041225045     1.256281789266
    H            0.803238160682     1.538353308328    -0.209391172883
    C           -0.891869729819    -0.428425961632    -0.667540046660
    H           -0.962166592743     0.452853005056    -1.301850573122
    H           -1.769810844001    -0.443255096442    -0.023603680111
    H           -0.894375264317    -1.317098991733    -1.283545300107

  Mulliken Charges: (a.u.)
   Center  Symbol    Alpha    Beta     Spin     Total
       1     H     0.41198  0.41198  0.00000  0.17604
       2     C     3.08013  3.08013  0.00000 -0.16027
       3     O     4.29637  4.29637  0.00000 -0.59275
       4     H     0.43056  0.43056  0.00000  0.13888
       5     H     0.42964  0.42964  0.00000  0.14072
       6     C     3.07925  3.07925  0.00000 -0.15850
       7     H     0.43139  0.43139  0.00000  0.13721
       8     H     0.42804  0.42804  0.00000  0.14392
       9     H     0.41263  0.41263  0.00000  0.17473

   Total alpha = 13.00000, Total beta = 13.00000, Total charge = -0.00000
