                              Psi4 1.0.54 Driver

  ==> Input File <==

--------------------------------------------------------------------------
set {
	reference rhf
	basis cc-pvtz
}

set_num_threads( 4 )
memory 2 gb

molecule MOL {
0 1

H	 -3.162190	 0.493205	 -0.000107
C	 -2.363908	 -0.234727	 0.000005
O	 -1.158738	 0.454634	 -0.000087
H	 -2.464314	 -0.863616	 -0.882153
H	 -2.464327	 -0.863359	 0.882345
C	 -0.028611	 -0.359694	 0.000037
C	 0.676956	 -0.234601	 -1.335223
H	 -0.314906	 -1.396513	 0.178024
H	 0.642345	 -0.067942	 0.808332
C	 1.929925	 -1.099499	 -1.415027
H	 -0.018162	 -0.510675	 -2.120411
H	 0.931520	 0.807318	 -1.495082
H	 1.694287	 -2.150115	 -1.281732
H	 2.413394	 -0.991119	 -2.378112
H	 2.650430	 -0.823123	 -0.652428

	symmetry c1
}
set optking {
	frozen_dihedral = ("
		8 6 3 2
	")
}

ee,wfn = optimize('scf', return_wfn=True)
oeprop( wfn, 'DIPOLE', 'QUADRUPOLE', 'MULLIKEN_CHARGES')
f=open( 'psi4out.xyz', 'w' )
f.write( "15  " )
f.write( str(ee) + "\n" )
f.write( MOL.save_string_xyz() )
f.close()
--------------------------------------------------------------------------

    Molecular point group: c1
  Charge       = 0
  Multiplicity = 1
  Basis Set: CC-PVTZ
  Basis Set:
  @DF-RHF Final Energy:  -232.22383876088043
    Total Energy =                       -232.2238387608806534
    Molecular point group: c1
  Basis Set: CC-PVTZ
  Basis Set:
  Basis Set: CC-PVTZ
  Basis Set:
  @DF-RHF Final Energy:  -232.22432688789792
    Total Energy =                       -232.2243268878983145
  Basis Set: CC-PVTZ
  Basis Set:
  Basis Set: CC-PVTZ
  Basis Set:
  @DF-RHF Final Energy:  -232.22444483393090
    Total Energy =                       -232.2244448339310452
  Basis Set: CC-PVTZ
  Basis Set:
  Basis Set: CC-PVTZ
  Basis Set:
  @DF-RHF Final Energy:  -232.22444607420701
    Total Energy =                       -232.2244460742069236
  Basis Set: CC-PVTZ
  Basis Set:
  Charge       = 0
  Multiplicity = 1
  Basis Set: CC-PVTZ
  Basis Set:

    Orbital Energies (a.u.)
    -----------------------

    Doubly Occupied:

       1A    -20.544172     2A    -11.264041     3A    -11.262477
       4A    -11.213018     5A    -11.211201     6A     -1.376782
       7A     -1.057255     8A     -0.957536     9A     -0.879891
      10A     -0.808376    11A     -0.670931    12A     -0.654932
      13A     -0.637727    14A     -0.600332    15A     -0.568990
      16A     -0.537540    17A     -0.508839    18A     -0.495252
      19A     -0.482691    20A     -0.462782    21A     -0.406776

  @DF-RHF Final Energy:  -232.22444616396689

   => Energetics <=

    Nuclear Repulsion Energy =            190.5477889558351308
    One-Electron Energy =                -692.3413822173271228
    Two-Electron Energy =                 269.5691470975251036
    DFT Exchange-Correlation Energy =       0.0000000000000000
    Empirical Dispersion Energy =           0.0000000000000000
    PCM Polarization Energy =               0.0000000000000000
    EFP Energy =                            0.0000000000000000
    Total Energy =                       -232.2244461639668884
    Molecular point group: c1
  Basis Set: CC-PVTZ
  Basis Set:

  -Total Gradient:
     Atom            X                  Y                   Z
    ------   -----------------  -----------------  -----------------
       1        0.000005572344    -0.000001803930    -0.000000584315
       2        0.000009085708    -0.000019335421     0.000453866578
       3       -0.000005234681    -0.000008704009    -0.000806653177
       4       -0.000003023484     0.000000371155     0.000003617663
       5       -0.000001473463    -0.000000125977    -0.000001180830
       6        0.000070622951     0.000120683177     0.000898693326
       7       -0.000004874159    -0.000015005043     0.000011703056
       8       -0.000076544302    -0.000082672853    -0.000549918859
       9       -0.000000527591    -0.000000354319     0.000003632677
      10        0.000002028118     0.000011133586    -0.000007104253
      11       -0.000001815147     0.000001774743    -0.000004371069
      12       -0.000000201018    -0.000002016053     0.000000188747
      13       -0.000000927642     0.000003219127    -0.000000138355
      14        0.000006456190    -0.000003558548    -0.000002051323
      15        0.000000856174    -0.000003605634     0.000000300138

  **** Optimization is complete! (in 5 steps) ****
    Final optimized geometry and variables:
    Molecular point group: c1

    Geometry (in Angstrom), charge = 0, multiplicity = 1:

    H           -2.951360101582     0.832093853767     0.585369936167
    C           -2.173368457058     0.082075303059     0.589093960068
    O           -0.950916566151     0.741789555230     0.553614602533
    H           -2.311253481408    -0.562501245927    -0.276199318652
    H           -2.277318930118    -0.521373447663     1.487785749871
    C            0.186747139168    -0.072120782482     0.510422315789
    C            0.901746316101     0.054876866887    -0.824662462827
    H           -0.080106518984    -1.110999359038     0.688681374487
    H            0.848436387206     0.232669919159     1.315055425505
    C            2.176123680607    -0.780095864846    -0.885595886714
    H            0.223554831707    -0.243858073723    -1.618078636681
    H            1.132447717983     1.101392702804    -0.991104835387
    H            1.964616427538    -1.835576015470    -0.748126667023
    H            2.670261495364    -0.666233715069    -1.842769755326
    H            2.879147070270    -0.481821568051    -0.114877522100

  Mulliken Charges: (a.u.)
   Center  Symbol    Alpha    Beta     Spin     Total
       1     H     0.44915  0.44915  0.00000  0.10170
       2     C     3.03152  3.03152  0.00000 -0.06303
       3     O     4.18029  4.18029  0.00000 -0.36059
       4     H     0.47305  0.47305  0.00000  0.05390
       5     H     0.46920  0.46920  0.00000  0.06159
       6     C     2.97088  2.97088  0.00000  0.05824
       7     C     3.07856  3.07856  0.00000 -0.15711
       8     H     0.47403  0.47403  0.00000  0.05194
       9     H     0.45410  0.45410  0.00000  0.09179
      10     C     3.15468  3.15468  0.00000 -0.30937
      11     H     0.45634  0.45634  0.00000  0.08733
      12     H     0.45080  0.45080  0.00000  0.09840
      13     H     0.45590  0.45590  0.00000  0.08819
      14     H     0.44667  0.44667  0.00000  0.10667
      15     H     0.45483  0.45483  0.00000  0.09034

   Total alpha = 21.00000, Total beta = 21.00000, Total charge =  0.00000

*** Psi4 exiting successfully. Buy a developer a beer!
