  ==> Input File <==

--------------------------------------------------------------------------
set {
	reference rhf
	basis 6-31G*
}

set_num_threads( 4 )
memory 2 gb

molecule MOL {
0 1

H	 5.015524	 -0.324624	 2.159914
C	 4.488327	 -0.824831	 1.353454
C	 2.980708	 -0.596350	 1.453751
H	 4.878604	 -0.441483	 0.415334
H	 4.730910	 -1.882765	 1.405685
C	 2.205626	 -1.294646	 0.334177
H	 2.777059	 0.469145	 1.424635
H	 2.625532	 -0.958612	 2.417238
C	 0.691758	 -1.098855	 0.418654
H	 2.554058	 -0.935946	 -0.627890
H	 2.414736	 -2.361458	 0.369214
C	 0.222122	 0.308959	 0.082880
H	 0.195133	 -1.766859	 -0.283418
H	 0.318314	 -1.375814	 1.402020
C	 -1.181045	 0.701995	 0.511084
O	 0.918641	 1.075850	 -0.511380
C	 -2.285934	 -0.139295	 -0.145128
H	 -1.307652	 1.748130	 0.259513
H	 -1.251527	 0.608065	 1.593162
C	 -3.651768	 0.085446	 0.506485
H	 -2.346596	 0.110469	 -1.202272
H	 -2.034737	 -1.195320	 -0.088721
C	 -4.759797	 -0.746382	 -0.137905
H	 -3.908762	 1.140117	 0.445781
H	 -3.588286	 -0.154158	 1.565709
H	 -4.868882	 -0.505166	 -1.191300
H	 -4.548009	 -1.809175	 -0.062213
H	 -5.715422	 -0.564821	 0.343442

	symmetry c1
}
set optking {
	frozen_dihedral = ("
		12 15 17 21
	")
}

ee = optimize('scf')
oeprop('DIPOLE', 'QUADRUPOLE', 'MULLIKEN_CHARGES')
f=open( 'psi4out.xyz', 'w' )
f.write( "28  " )
f.write( str(ee) + "\n" )
f.write( MOL.save_string_xyz() )
f.close()
--------------------------------------------------------------------------

    Molecular point group: c1
  Charge       = 0
  Multiplicity = 1
  Basis Set: 6-31G*
  Basis Set:
  @DF-RHF Final Energy:  -426.16827479911410
    Total Energy =                       -426.1682747991138740
    Molecular point group: c1
  Basis Set: 6-31G*
  Basis Set:
  Basis Set: 6-31G*
  Basis Set:
  @DF-RHF Final Energy:  -426.16738109287576
    Total Energy =                       -426.1673810928753028
  Basis Set: 6-31G*
  Basis Set:
  Basis Set: 6-31G*
  Basis Set:
  @DF-RHF Final Energy:  -426.16797346040869
    Total Energy =                       -426.1679734604088026
  Basis Set: 6-31G*
  Basis Set:
  Basis Set: 6-31G*
  Basis Set:
  @DF-RHF Final Energy:  -426.16842992691284
    Total Energy =                       -426.1684299269126086
  Basis Set: 6-31G*
  Basis Set:
  @DF-RHF Final Energy:  -426.16843253166462
    Total Energy =                       -426.1684325316647346
  Basis Set: 6-31G*
  Basis Set:
  @DF-RHF Final Energy:  -426.16845031520586
    Total Energy =                       -426.1684503152057459
  Basis Set: 6-31G*
  Basis Set:
  Basis Set: 6-31G*
  Basis Set:
  @DF-RHF Final Energy:  -426.16845368078589
    Total Energy =                       -426.1684536807857739
  Basis Set: 6-31G*
  Basis Set:
  Basis Set: 6-31G*
  Basis Set:
  @DF-RHF Final Energy:  -426.16845509675318
    Total Energy =                       -426.1684550967529503
  Basis Set: 6-31G*
  Basis Set:
  Charge       = 0
  Multiplicity = 1
  Basis Set: 6-31G*
  Basis Set:

    Orbital Energies (a.u.)
    -----------------------

    Doubly Occupied:

       1A    -20.547650     2A    -11.322137     3A    -11.232216
       4A    -11.229937     5A    -11.229100     6A    -11.226273
       7A    -11.216815     8A    -11.216506     9A    -11.213184
      10A    -11.206253    11A     -1.392831    12A     -1.095272
      13A     -1.077685    14A     -1.022486    15A     -0.990962
      16A     -0.907394    17A     -0.873888    18A     -0.809491
      19A     -0.800103    20A     -0.722520    21A     -0.666602
      22A     -0.656998    23A     -0.625638    24A     -0.620058
      25A     -0.610370    26A     -0.588430    27A     -0.576705
      28A     -0.575500    29A     -0.543596    30A     -0.533397
      31A     -0.520159    32A     -0.507597    33A     -0.498013
      34A     -0.485299    35A     -0.478758    36A     -0.475989
      37A     -0.472155    38A     -0.465749    39A     -0.455206
      40A     -0.392034

  @DF-RHF Final Energy:  -426.16845517945239

   => Energetics <=

    Nuclear Repulsion Energy =            531.6407772035573771
    One-Electron Energy =               -1631.4565527483462120
    Two-Electron Energy =                 673.6473203653365545
    DFT Exchange-Correlation Energy =       0.0000000000000000
    Empirical Dispersion Energy =           0.0000000000000000
    PCM Polarization Energy =               0.0000000000000000
    EFP Energy =                            0.0000000000000000
    Total Energy =                       -426.1684551794521667
    Molecular point group: c1
  Basis Set: 6-31G*
  Basis Set:

  -Total Gradient:
     Atom            X                  Y                   Z
    ------   -----------------  -----------------  -----------------
       1       -0.000002839829    -0.000007451235     0.000003792704
       2       -0.000000320179    -0.000011892837     0.000008049383
       3        0.000004650104     0.000007890142    -0.000003755282
       4       -0.000004335261     0.000006735494     0.000005169953
       5        0.000001643927    -0.000002057224    -0.000006426975
       6        0.000011478657     0.000004426786    -0.000001493523
       7        0.000013700404     0.000006569152    -0.000001550327
       8       -0.000004587694     0.000007418277    -0.000002414853
       9       -0.000017018387    -0.000027228756     0.000055351553
      10       -0.000007196993     0.000008690176     0.000000287305
      11        0.000001290437    -0.000001455712    -0.000009881363
      12        0.000105223980    -0.001292900987     0.001498562250
      13        0.000007702500     0.000015947669    -0.000009832050
      14        0.000006259638    -0.000008247281     0.000004228446
      15       -0.000608326655     0.002312365661    -0.002047604556
      16        0.000010462459    -0.000006811204     0.000003337984
      17        0.002266780244    -0.002980190935    -0.000075859556
      18        0.000004828921     0.000007431788     0.000003613326
      19       -0.000006105568    -0.000008402092    -0.000009161458
      20        0.000005551725     0.000007265280    -0.000003309976
      21       -0.001793908748     0.001972438747     0.000595440602
      22        0.000006909656    -0.000010758981    -0.000000272440
      23       -0.000000645628     0.000003437352    -0.000005075037
      24        0.000000006574    -0.000000620675     0.000004706978
      25        0.000002082801    -0.000004052773    -0.000004009452
      26       -0.000002493225    -0.000000783848    -0.000001454773
      27        0.000001583418     0.000003198623     0.000000350122
      28       -0.000002377272    -0.000000960609    -0.000000788985

  **** Optimization is complete! (in 9 steps) ****
    Final optimized geometry and variables:
    Molecular point group: c1

    Geometry (in Angstrom), charge = 0, multiplicity = 1:

    H            4.961295588648    -0.040382082938     1.911944190131
    C            4.486235855563    -0.533656846867     1.069638635432
    C            2.971109647582    -0.336741595293     1.096873069157
    H            4.915822940708    -0.123285533524     0.160600259621
    H            4.747269120293    -1.587567676183     1.113167362566
    C            2.268329887316    -1.026820235863    -0.074326540355
    H            2.748001501391     0.725397903927     1.078021473199
    H            2.574810698304    -0.724754407026     2.033906486449
    C            0.747588829825    -0.866681458933    -0.060216881353
    H            2.653983406375    -0.638478061803    -1.010135781907
    H            2.500146924043    -2.089213189246    -0.052095280413
    C            0.268577046568     0.543545259966    -0.376205805768
    H            0.305654494057    -1.519412597296    -0.811173165239
    H            0.332228058281    -1.186734336025     0.892385067220
    C           -1.123545094938     0.936816625778     0.086281334570
    O            0.958639937622     1.314725241875    -0.972630663683
    C           -2.254972209056     0.082749878941    -0.506449636651
    H           -1.267635771051     1.980795337102    -0.162892258582
    H           -1.143033310354     0.848998470579     1.171719352573
    C           -3.599118600328     0.351948115553     0.175425375825
    H           -2.351947154516     0.311151357558    -1.565145512777
    H           -2.022036545643    -0.974889998528    -0.424945039149
    C           -4.746888030376    -0.446283334343    -0.441134774108
    H           -3.824822320677     1.414188196595     0.117436789730
    H           -3.519249434218     0.113153466551     1.233662672272
    H           -4.875884138379    -0.200748417863    -1.491250097479
    H           -4.563903612352    -1.514894348769    -0.371687773467
    H           -5.684377746380    -0.238153021281     0.064583828915

  Mulliken Charges: (a.u.)
   Center  Symbol    Alpha    Beta     Spin     Total
       1     H     0.41928  0.41928  0.00000  0.16144
       2     C     3.24007  3.24007  0.00000 -0.48014
       3     C     3.15657  3.15657  0.00000 -0.31314
       4     H     0.41817  0.41817  0.00000  0.16366
       5     H     0.42342  0.42342  0.00000  0.15315
       6     C     3.14942  3.14942  0.00000 -0.29884
       7     H     0.41149  0.41149  0.00000  0.17702
       8     H     0.42751  0.42751  0.00000  0.14499
       9     C     3.21178  3.21178  0.00000 -0.42357
      10     H     0.40579  0.40579  0.00000  0.18842
      11     H     0.42180  0.42180  0.00000  0.15640
      12     C     2.73048  2.73048  0.00000  0.53904
      13     H     0.40280  0.40280  0.00000  0.19439
      14     H     0.41382  0.41382  0.00000  0.17235
      15     C     3.20288  3.20288  0.00000 -0.40576
      16     O     4.26703  4.26703  0.00000 -0.53407
      17     C     3.16359  3.16359  0.00000 -0.32719
      18     H     0.39909  0.39909  0.00000  0.20182
      19     H     0.41327  0.41327  0.00000  0.17347
      20     C     3.15233  3.15233  0.00000 -0.30466
      21     H     0.41303  0.41303  0.00000  0.17395
      22     H     0.41755  0.41755  0.00000  0.16490
      23     C     3.24030  3.24030  0.00000 -0.48060
      24     H     0.41903  0.41903  0.00000  0.16194
      25     H     0.42174  0.42174  0.00000  0.15652
      26     H     0.41962  0.41962  0.00000  0.16076
      27     H     0.42120  0.42120  0.00000  0.15760
      28     H     0.41693  0.41693  0.00000  0.16613

   Total alpha = 40.00000, Total beta = 40.00000, Total charge =  0.00000
