  ==> Input File <==

--------------------------------------------------------------------------
set {
	reference rhf
	basis cc-pvtz
}

set_num_threads( 4 )
memory 2 gb

molecule MOL {
0 1

H	 -1.364257	 0.067629	 1.626399
C	 -0.776238	 -0.484975	 0.925404
C	 -0.771357	 -1.865075	 0.919553
C	 0.000000	 0.179985	 0.000046
H	 -1.368207	 -2.400834	 1.631064
C	 -0.000002	 -2.552036	 -0.000012
N	 0.000000	 1.644631	 0.000076
C	 0.776239	 -0.484937	 -0.925338
H	 -0.000000	 -3.625035	 -0.000032
C	 0.771355	 -1.865038	 -0.919547
O	 1.050559	 2.194174	 -0.000073
O	 -1.050559	 2.194174	 -0.000074
H	 1.364252	 0.067696	 -1.626316
H	 1.368208	 -2.400767	 -1.631076

	symmetry c1
}
set optking {
	frozen_dihedral = ("
		2 4 7 11
	")
}

ee = optimize('scf')
oeprop('DIPOLE', 'QUADRUPOLE', 'MULLIKEN_CHARGES')
f=open( 'psi4out.xyz', 'w' )
f.write( "14  " )
f.write( str(ee) + "\n" )
f.write( MOL.save_string_xyz() )
f.close()
--------------------------------------------------------------------------

    Molecular point group: c1
  Charge       = 0
  Multiplicity = 1
  Basis Set: CC-PVTZ
  Basis Set:
  @DF-RHF Final Energy:  -434.32486419425925
    Total Energy =                       -434.3248641942592485
    Molecular point group: c1
  Basis Set: CC-PVTZ
  Basis Set:
  Basis Set: CC-PVTZ
  Basis Set:
  @DF-RHF Final Energy:  -434.31878544102693
    Total Energy =                       -434.3187854410266482
  Basis Set: CC-PVTZ
  Basis Set:
  Basis Set: CC-PVTZ
  Basis Set:
  @DF-RHF Final Energy:  -434.32512328583454
    Total Energy =                       -434.3251232858349340
  Basis Set: CC-PVTZ
  Basis Set:
  Basis Set: CC-PVTZ
  Basis Set:
  @DF-RHF Final Energy:  -434.32535794527769
    Total Energy =                       -434.3253579452774602
  Basis Set: CC-PVTZ
  Basis Set:
  Basis Set: CC-PVTZ
  Basis Set:
  @DF-RHF Final Energy:  -434.32535987210611
    Total Energy =                       -434.3253598721062190
  Basis Set: CC-PVTZ
  Basis Set:
  Charge       = 0
  Multiplicity = 1
  Basis Set: CC-PVTZ
  Basis Set:

    Orbital Energies (a.u.)
    -----------------------

    Doubly Occupied:

       1A    -20.595311     2A    -20.594961     3A    -15.847559
       4A    -11.305242     5A    -11.267963     6A    -11.267725
       7A    -11.261998     8A    -11.259704     9A    -11.259335
      10A     -1.642981    11A     -1.425936    12A     -1.206090
      13A     -1.096793    14A     -1.056444    15A     -0.959489
      16A     -0.872095    17A     -0.830145    18A     -0.786953
      19A     -0.740362    20A     -0.736358    21A     -0.715934
      22A     -0.655373    23A     -0.651246    24A     -0.626224
      25A     -0.559518    26A     -0.547879    27A     -0.533283
      28A     -0.497164    29A     -0.489037    30A     -0.457181
      31A     -0.374154    32A     -0.370308

  @DF-RHF Final Energy:  -434.32536030357630

   => Energetics <=

    Nuclear Repulsion Energy =            417.9236504929207285
    One-Electron Energy =               -1419.5165361914077948
    Two-Electron Energy =                 567.2675253949108765
    DFT Exchange-Correlation Energy =       0.0000000000000000
    Empirical Dispersion Energy =           0.0000000000000000
    PCM Polarization Energy =               0.0000000000000000
    EFP Energy =                            0.0000000000000000
    Total Energy =                       -434.3253603035761898
    Molecular point group: c1
  Basis Set: CC-PVTZ
  Basis Set:

  -Total Gradient:
     Atom            X                  Y                   Z
    ------   -----------------  -----------------  -----------------
       1        0.000004148251     0.000002337701     0.000003355465
       2        0.003551320727    -0.000143075369     0.002833272366
       3        0.000032655515     0.000020948304     0.000034329044
       4       -0.004969518852     0.000137218683    -0.002026367065
       5       -0.000002845004     0.000000395952    -0.000005248813
       6        0.000007141699     0.000000346238    -0.000019463238
       7        0.001368264750     0.000030122477    -0.006169232923
       8       -0.000088009676    -0.000000557595    -0.000046871704
       9       -0.000001037335    -0.000002085989     0.000001951012
      10       -0.000039307580    -0.000005136333    -0.000011344258
      11        0.000116804918    -0.000075194786     0.005414629904
      12        0.000017713291     0.000027981505    -0.000006843092
      13       -0.000002904926     0.000001527733    -0.000007181377
      14        0.000005574225     0.000005171475     0.000005014681

  **** Optimization is complete! (in 6 steps) ****
    Final optimized geometry and variables:
    Molecular point group: c1

    Geometry (in Angstrom), charge = 0, multiplicity = 1:

    H           -1.394172312804     0.078846724232     1.594658563474
    C           -0.792627224725    -0.476744265071     0.904786982086
    C           -0.766802756942    -1.857462858471     0.918795667765
    C           -0.026161716308     0.179615401507    -0.029941842511
    H           -1.349274020206    -2.391843098276     1.643240725161
    C            0.005187103806    -2.546141381753     0.001625626002
    N            0.000496831964     1.641169574475    -0.005015317757
    C            0.776245654339    -0.480499549924    -0.931823613845
    H            0.014384297385    -3.618838059604     0.011442355586
    C            0.770656446448    -1.860935875990    -0.924372677611
    O            1.063961243755     2.164438053644    -0.022084887850
    O           -1.040904247334     2.202379086879     0.072220423840
    H            1.383950370258     0.072672503262    -1.618338892954
    H            1.371185691969    -2.398485683465    -1.631524125983

  Mulliken Charges: (a.u.)
   Center  Symbol    Alpha    Beta     Spin     Total
       1     H     0.40714  0.40714  0.00000  0.18573
       2     C     3.08665  3.08665  0.00000 -0.17330
       3     C     3.06874  3.06874  0.00000 -0.13748
       4     C     2.93779  2.93779  0.00000  0.12441
       5     H     0.41718  0.41718  0.00000  0.16563
       6     C     3.07022  3.07022  0.00000 -0.14044
       7     N     3.27730  3.27730  0.00000  0.44539
       8     C     3.08525  3.08525  0.00000 -0.17050
       9     H     0.41754  0.41754  0.00000  0.16492
      10     C     3.06816  3.06816  0.00000 -0.13633
      11     O     4.16790  4.16790  0.00000 -0.33579
      12     O     4.17009  4.17009  0.00000 -0.34017
      13     H     0.40881  0.40881  0.00000  0.18238
      14     H     0.41722  0.41722  0.00000  0.16555

   Total alpha = 32.00000, Total beta = 32.00000, Total charge = -0.00000
