  ==> Input File <==

--------------------------------------------------------------------------
set {
	reference rhf
	basis 6-31G*
}

set_num_threads( 1 )
memory 2 gb

molecule MOL {
0 1

H	 -0.868180	 2.591242	 2.521300
O	 -0.648557	 3.017393	 1.704875
C	 -0.379700	 2.050486	 0.725184
C	 0.975534	 1.402697	 0.947396
H	 -1.150142	 1.285074	 0.694834
H	 -0.384222	 2.559756	 -0.228269
O	 1.171513	 0.459272	 -0.058250
H	 1.007210	 0.927967	 1.930050
H	 1.752252	 2.164891	 0.928581
C	 2.397842	 -0.198080	 -0.002151
H	 2.508049	 -0.905315	 -0.822092
H	 3.173794	 0.550865	 -0.078850
H	 2.517602	 -0.735921	 0.936026

	symmetry c1
}
set optking {
	frozen_dihedral = ("
		8 4 3 5,
		1 2 3 5,
		10 7 4 8
	")
}

ee = energy('scf')
oeprop('DIPOLE', 'QUADRUPOLE', 'MULLIKEN_CHARGES')
f=open( 'psi4out.xyz', 'w' )
f.write( "13  " )
f.write( str(ee) + "\n" )
f.write( MOL.save_string_xyz() )
f.close()
--------------------------------------------------------------------------

    Molecular point group: c1

    Geometry (in Angstrom), charge = 0, multiplicity = 1:

       Center              X                  Y                   Z               Mass
    ------------   -----------------  -----------------  -----------------  -----------------
           H         -1.563911428115     1.234614900579     1.833480055464     1.007825032070
           O         -1.344288428115     1.660765900579     1.017055055464    15.994914619560
           C         -1.075431428115     0.693858900579     0.037364055464    12.000000000000
           C          0.279802571885     0.046069900579     0.259576055464    12.000000000000
           H         -1.845873428115    -0.071553099421     0.007014055464     1.007825032070
           H         -1.079953428115     1.203128900579    -0.916088944536     1.007825032070
           O          0.475781571885    -0.897355099421    -0.746069944536    15.994914619560
           H          0.311478571885    -0.428660099421     1.242230055464     1.007825032070
           H          1.056520571885     0.808263900579     0.240761055464     1.007825032070
           C          1.702110571885    -1.554707099421    -0.689970944536    12.000000000000
           H          1.812317571885    -2.261942099421    -1.509911944536     1.007825032070
           H          2.478062571885    -0.805762099421    -0.766669944536     1.007825032070
           H          1.821870571885    -2.092548099421     0.248206055464     1.007825032070

  Charge       = 0
  Multiplicity = 1
  Basis Set: 6-31G*
  Basis Set:

    Orbital Energies (a.u.)
    -----------------------

    Doubly Occupied:

       1A    -20.561373     2A    -20.560353     3A    -11.271468
       4A    -11.270657     5A    -11.269210     6A     -1.388650
       7A     -1.365362     8A     -1.018280     9A     -0.913348
      10A     -0.842309    11A     -0.710052    12A     -0.674269
      13A     -0.658623    14A     -0.640150    15A     -0.595396
      16A     -0.569791    17A     -0.546809    18A     -0.489138
      19A     -0.480382    20A     -0.438784    21A     -0.421544

  @DF-RHF Final Energy:  -267.94949040333819

   => Energetics <=

    Nuclear Repulsion Energy =            190.2947996581987695
    One-Electron Energy =                -743.1167086338188028
    Two-Electron Energy =                 284.8724185722818447
    DFT Exchange-Correlation Energy =       0.0000000000000000
    Empirical Dispersion Energy =           0.0000000000000000
    PCM Polarization Energy =               0.0000000000000000
    EFP Energy =                            0.0000000000000000
    Total Energy =                       -267.9494904033382454

  Mulliken Charges: (a.u.)
   Center  Symbol    Alpha    Beta     Spin     Total
       1     H     0.28123  0.28123  0.00000  0.43754
       2     O     4.37083  4.37083  0.00000 -0.74167
       3     C     3.00461  3.00461  0.00000 -0.00921
       4     C     2.99644  2.99644  0.00000  0.00712
       5     H     0.42209  0.42209  0.00000  0.15582
       6     H     0.40835  0.40835  0.00000  0.18330
       7     O     4.30833  4.30833  0.00000 -0.61667
       8     H     0.43738  0.43738  0.00000  0.12524
       9     H     0.42344  0.42344  0.00000  0.15312
      10     C     3.07966  3.07966  0.00000 -0.15932
      11     H     0.41073  0.41073  0.00000  0.17853
      12     H     0.42757  0.42757  0.00000  0.14486
      13     H     0.42933  0.42933  0.00000  0.14133

   Total alpha = 21.00000, Total beta = 21.00000, Total charge =  0.00000
