  ==> Input File <==

--------------------------------------------------------------------------
set {
	reference rhf
	basis 6-31G*
}

set_num_threads( 4 )
memory 2 gb

molecule MOL {
0 1

H	 -2.061343	 0.375628	 -1.031719
N	 -1.852125	 0.165761	 -0.074816
C	 -0.563778	 -0.502042	 0.037919
H	 -2.586653	 -0.429334	 0.258482
C	 0.575259	 0.508231	 -0.048326
H	 -0.482092	 -1.204004	 -0.786564
H	 -0.460411	 -1.085169	 0.956626
C	 1.954651	 -0.143624	 0.035137
H	 0.475158	 1.060484	 -0.977307
H	 0.469181	 1.234488	 0.755973
H	 2.103292	 -0.853109	 -0.774172
H	 2.742821	 0.599562	 -0.030094
H	 2.083613	 -0.679371	 0.971560

	symmetry c1
}
set optking {
	frozen_dihedral = ("
		1 2 3 6
	")
}

ee = optimize('scf')
oeprop('DIPOLE', 'QUADRUPOLE', 'MULLIKEN_CHARGES')
f=open( 'psi4out.xyz', 'w' )
f.write( "13  " )
f.write( str(ee) + "\n" )
f.write( MOL.save_string_xyz() )
f.close()
--------------------------------------------------------------------------

    Molecular point group: c1
  Charge       = 0
  Multiplicity = 1
  Basis Set: 6-31G*
  Basis Set:
  @DF-RHF Final Energy:  -173.27971794835921
    Total Energy =                       -173.2797179483591208
    Molecular point group: c1
  Basis Set: 6-31G*
  Basis Set:
  Basis Set: 6-31G*
  Basis Set:
  @DF-RHF Final Energy:  -173.28144534534110
    Total Energy =                       -173.2814453453411545
  Basis Set: 6-31G*
  Basis Set:
  Basis Set: 6-31G*
  Basis Set:
  @DF-RHF Final Energy:  -173.28173687854238
    Total Energy =                       -173.2817368785424890
  Basis Set: 6-31G*
  Basis Set:
  Basis Set: 6-31G*
  Basis Set:
  @DF-RHF Final Energy:  -173.28174370954343
    Total Energy =                       -173.2817437095434627
  Basis Set: 6-31G*
  Basis Set:
  Basis Set: 6-31G*
  Basis Set:
  @DF-RHF Final Energy:  -173.28174827896052
    Total Energy =                       -173.2817482789605492
  Basis Set: 6-31G*
  Basis Set:
  Charge       = 0
  Multiplicity = 1
  Basis Set: 6-31G*
  Basis Set:

    Orbital Energies (a.u.)
    -----------------------

    Doubly Occupied:

       1A    -15.533506     2A    -11.240618     3A    -11.208900
       4A    -11.207604     5A     -1.176621     6A     -1.033803
       7A     -0.898379     8A     -0.796804     9A     -0.667755
      10A     -0.621401    11A     -0.602027    12A     -0.568848
      13A     -0.525405    14A     -0.489789    15A     -0.479538
      16A     -0.466619    17A     -0.382181

  @DF-RHF Final Energy:  -173.28174845899463

   => Energetics <=

    Nuclear Repulsion Energy =            131.6375317033325132
    One-Electron Energy =                -494.0389683152825455
    Two-Electron Energy =                 189.1196881529554048
    DFT Exchange-Correlation Energy =       0.0000000000000000
    Empirical Dispersion Energy =           0.0000000000000000
    PCM Polarization Energy =               0.0000000000000000
    EFP Energy =                            0.0000000000000000
    Total Energy =                       -173.2817484589946275
    Molecular point group: c1
  Basis Set: 6-31G*
  Basis Set:

  -Total Gradient:
     Atom            X                  Y                   Z
    ------   -----------------  -----------------  -----------------
       1       -0.001077589909    -0.002112635759    -0.000167468460
       2        0.001593400526     0.003069003334    -0.000162261928
       3       -0.001419573340    -0.002510701627     0.001641677288
       4       -0.000010971692     0.000004088891     0.000001870147
       5        0.000000302246    -0.000021389865    -0.000033324213
       6        0.000910336085     0.001578274475    -0.001289556549
       7        0.000002042685    -0.000008607536     0.000004197572
       8        0.000003926558     0.000005930480     0.000009767003
       9        0.000002746896    -0.000000557047    -0.000000574864
      10       -0.000002896989    -0.000004995440     0.000002335835
      11        0.000001574011     0.000002717613    -0.000006234729
      12        0.000002466000    -0.000000595058     0.000006457518
      13       -0.000005763079    -0.000000532462    -0.000006884620

  **** Optimization is complete! (in 6 steps) ****
    Final optimized geometry and variables:
    Molecular point group: c1

    Geometry (in Angstrom), charge = 0, multiplicity = 1:

    H           -2.087540175330     0.374584703390    -0.991642483820
    N           -1.853655566906     0.175405730878    -0.037706745376
    C           -0.562843995003    -0.498739456544     0.041512214883
    H           -2.581575713804    -0.420324280519     0.307064473225
    C            0.577888944702     0.512930220382    -0.022875699460
    H           -0.421349313936    -1.237383054374    -0.750382780916
    H           -0.516906955955    -1.031442536729     0.986084025124
    C            1.956829427919    -0.140412898600     0.057024106954
    H            0.496175670778     1.079562496820    -0.948443276064
    H            0.450304269189     1.226102848676     0.785216502836
    H            2.114148045204    -0.836381563892    -0.762624715447
    H            2.745849966881     0.603453207732     0.012465795094
    H            2.077463530355    -0.692415150295     0.985295118947

  Mulliken Charges: (a.u.)
   Center  Symbol    Alpha    Beta     Spin     Total
       1     H     0.33456  0.33456  0.00000  0.33088
       2     N     3.92104  3.92104  0.00000 -0.84209
       3     C     3.06410  3.06410  0.00000 -0.12820
       4     H     0.33241  0.33241  0.00000  0.33519
       5     C     3.14527  3.14527  0.00000 -0.29053
       6     H     0.43344  0.43344  0.00000  0.13312
       7     H     0.42179  0.42179  0.00000  0.15641
       8     C     3.24477  3.24477  0.00000 -0.48954
       9     H     0.42578  0.42578  0.00000  0.14843
      10     H     0.41405  0.41405  0.00000  0.17190
      11     H     0.42297  0.42297  0.00000  0.15406
      12     H     0.41776  0.41776  0.00000  0.16447
      13     H     0.42206  0.42206  0.00000  0.15588

   Total alpha = 17.00000, Total beta = 17.00000, Total charge = -0.00000
