                              Psi4 1.0.54 Driver

  ==> Input File <==

--------------------------------------------------------------------------
set {
	reference rhf
	basis cc-pvtz
}

set_num_threads( 4 )
memory 2 gb

molecule MOL {
0 1

O	 -2.876863	 1.186017	 -0.488378
C	 -2.664672	 0.129869	 0.003507
C	 -3.716962	 -0.698527	 0.689605
O	 -1.481217	 -0.452708	 0.001092
H	 -4.513410	 -0.895686	 -0.015291
H	 -3.317773	 -1.627490	 1.064194
H	 -4.133409	 -0.120123	 1.503297
C	 -0.332055	 0.384012	 -0.000250
C	 0.892252	 -0.506059	 -0.000295
H	 -0.360822	 1.020205	 -0.874146
H	 -0.359817	 1.021310	 0.872861
C	 2.188199	 0.299473	 -0.001416
H	 0.857046	 -1.152781	 -0.871031
H	 0.857910	 -1.151798	 0.871202
C	 3.437151	 -0.577593	 -0.000991
H	 2.209565	 0.950707	 -0.871712
H	 2.210062	 0.952234	 0.867721
C	 4.732399	 0.226982	 -0.000914
H	 3.417321	 -1.229122	 -0.869998
H	 3.416993	 -1.228707	 0.868337
H	 4.797903	 0.863451	 -0.876963
H	 5.598517	 -0.424436	 -0.000420
H	 4.797415	 0.864118	 0.874691

	symmetry c1
}
set optking {
	frozen_dihedral = ("
		1 2 4 8
	")
}

ee,wfn = optimize('scf', return_wfn=True)
oeprop( wfn, 'DIPOLE', 'QUADRUPOLE', 'MULLIKEN_CHARGES')
f=open( 'psi4out.xyz', 'w' )
f.write( "23  " )
f.write( str(ee) + "\n" )
f.write( MOL.save_string_xyz() )
f.close()
--------------------------------------------------------------------------

    Molecular point group: c1
  Charge       = 0
  Multiplicity = 1
  Basis Set: CC-PVTZ
  Basis Set:
  @DF-RHF Final Energy:  -423.12945011182688
    Total Energy =                       -423.1294501118267135
    Molecular point group: c1
  Basis Set: CC-PVTZ
  Basis Set:
  Basis Set: CC-PVTZ
  Basis Set:
  @DF-RHF Final Energy:  -423.12516857509019
    Total Energy =                       -423.1251685750905835
  Basis Set: CC-PVTZ
  Basis Set:
  Basis Set: CC-PVTZ
  Basis Set:
  @DF-RHF Final Energy:  -423.12339079037980
    Total Energy =                       -423.1233907903799718
  Basis Set: CC-PVTZ
  Basis Set:
  Basis Set: CC-PVTZ
  Basis Set:
  @DF-RHF Final Energy:  -423.12986603302778
    Total Energy =                       -423.1298660330281791
  Basis Set: CC-PVTZ
  Basis Set:
  @DF-RHF Final Energy:  -423.12990786654007
    Total Energy =                       -423.1299078665401794
  @DF-RHF Final Energy:  -423.12990574936077
    Total Energy =                       -423.1299057493607734
  @DF-RHF Final Energy:  -423.12998116361240
    Total Energy =                       -423.1299811636127970
  @DF-RHF Final Energy:  -423.02032423722460
    Total Energy =                       -423.0203242372245995
  @DF-RHF Final Energy:  -423.10020729183907
    Total Energy =                       -423.1002072918390695
  @DF-RHF Final Energy:  -423.12638190751113
    Total Energy =                       -423.1263819075111314
  @DF-RHF Final Energy:  -423.13007898157576
    Total Energy =                       -423.1300789815761618
  @DF-RHF Final Energy:  -423.12757875102511
    Total Energy =                       -423.1275787510255668
  @DF-RHF Final Energy:  -423.13040226476437
    Total Energy =                       -423.1304022647644842
  @DF-RHF Final Energy:  -423.13038089910037
    Total Energy =                       -423.1303808990999187
  @DF-RHF Final Energy:  -423.13085844668569
    Total Energy =                       -423.1308584466858065
  @DF-RHF Final Energy:  -423.13061003810185
    Total Energy =                       -423.1306100381017359
  @DF-RHF Final Energy:  -423.13098563510789
    Total Energy =                       -423.1309856351081180
  @DF-RHF Final Energy:  -423.13105511632506
    Total Energy =                       -423.1310551163252285
  @DF-RHF Final Energy:  -423.13109177413565
    Total Energy =                       -423.1310917741368485
  Basis Set: CC-PVTZ
  Basis Set:
  @DF-RHF Final Energy:  -423.13112955288642
    Total Energy =                       -423.1311295528862502
  Basis Set: CC-PVTZ
  Basis Set:
  Basis Set: CC-PVTZ
  Basis Set:
  @DF-RHF Final Energy:  -423.13114659154388
    Total Energy =                       -423.1311465915434837
  Basis Set: CC-PVTZ
  Basis Set:
  Basis Set: CC-PVTZ
  Basis Set:
  @DF-RHF Final Energy:  -423.13114860798822
    Total Energy =                       -423.1311486079875976
  Basis Set: CC-PVTZ
  Basis Set:
  Charge       = 0
  Multiplicity = 1
  Basis Set: CC-PVTZ
  Basis Set:

    Orbital Energies (a.u.)
    -----------------------

    Doubly Occupied:

       1A    -20.589330     2A    -20.534418     3A    -11.366818
       4A    -11.281263     5A    -11.231489     6A    -11.222597
       7A    -11.221730     8A    -11.219765     9A    -11.211172
      10A     -1.467465    11A     -1.365258    12A     -1.095357
      13A     -1.042968    14A     -1.005261    15A     -0.931425
      16A     -0.841864    17A     -0.803264    18A     -0.775386
      19A     -0.695813    20A     -0.687975    21A     -0.668371
      22A     -0.648637    23A     -0.608760    24A     -0.589470
      25A     -0.585017    26A     -0.567098    27A     -0.559982
      28A     -0.542099    29A     -0.521632    30A     -0.505341
      31A     -0.494211    32A     -0.478675    33A     -0.471805
      34A     -0.468929    35A     -0.453301    36A     -0.438365

  @DF-RHF Final Energy:  -423.13114861259322

   => Energetics <=

    Nuclear Repulsion Energy =            450.2332984955560846
    One-Electron Energy =               -1468.3442763040143291
    Two-Electron Energy =                 594.9798291958652499
    DFT Exchange-Correlation Energy =       0.0000000000000000
    Empirical Dispersion Energy =           0.0000000000000000
    PCM Polarization Energy =               0.0000000000000000
    EFP Energy =                            0.0000000000000000
    Total Energy =                       -423.1311486125930514
    Molecular point group: c1
  Basis Set: CC-PVTZ
  Basis Set:

  -Total Gradient:
     Atom            X                  Y                   Z
    ------   -----------------  -----------------  -----------------
       1       -0.000632897497    -0.000572574179    -0.008145420028
       2        0.000533970608    -0.000472987595     0.014955989080
       3        0.000008834546    -0.000002573177     0.000115990226
       4        0.000871750943     0.003692772693    -0.012858930687
       5        0.000028690819    -0.000007298526     0.000004979921
       6       -0.000001712698     0.000000661772     0.000015898428
       7       -0.000001545916    -0.000000120503    -0.000019841483
       8       -0.000804916319    -0.002625561841     0.005907494360
       9        0.000004895210    -0.000004190801     0.000014152048
      10       -0.000000707965     0.000006457529    -0.000000050444
      11       -0.000005913613    -0.000011708212     0.000008783964
      12       -0.000004462193    -0.000003511909     0.000003626645
      13       -0.000000971696     0.000001535718    -0.000003176044
      14       -0.000000766116    -0.000003569415     0.000001718955
      15        0.000001333400     0.000001187028    -0.000001884940
      16        0.000000968323     0.000000721591    -0.000000524733
      17       -0.000000498764    -0.000000319014     0.000003924290
      18        0.000001870048     0.000000162800    -0.000002354676
      19        0.000000849168    -0.000001594105    -0.000002797328
      20       -0.000001754967     0.000000332350     0.000001569327
      21        0.000001766094     0.000002096000    -0.000001245103
      22        0.000001563985     0.000000091496     0.000000401659
      23       -0.000000345411    -0.000000009696     0.000001696564

  **** Optimization is complete! (in 23 steps) ****
    Final optimized geometry and variables:
    Molecular point group: c1

    Geometry (in Angstrom), charge = 0, multiplicity = 1:

    O           -2.858691285097     1.285246905957    -0.482535246867
    C           -2.640101599996     0.124956679218    -0.422358580986
    C           -3.695237087166    -0.940898435473    -0.343151525197
    O           -1.421075367511    -0.394004209018    -0.489549497265
    H           -4.671907207626    -0.497369532043    -0.449030246890
    H           -3.528427280640    -1.679217579895    -1.116073255491
    H           -3.620516050717    -1.445007088492     0.612804898619
    C           -0.339761034400     0.388647205689    -0.000850566402
    C            0.912356522654    -0.460149333347    -0.049834555572
    H           -0.236348256459     1.278289114854    -0.605978975792
    H           -0.565134965172     0.699426624289     1.011925510353
    C            2.138816476021     0.293427160148     0.456415501830
    H            1.072816008522    -0.785628926959    -1.072521745735
    H            0.755287971254    -1.355461089597     0.542998325504
    C            3.413869394423    -0.544139527139     0.414884856622
    H            2.282487959100     1.192404332696    -0.137758365529
    H            1.964445606010     0.627319385313     1.476515561191
    C            4.639909278691     0.208661469767     0.919962375403
    H            3.589804756222    -0.877713936472    -0.603883164309
    H            3.271914149602    -1.442370915310     1.009255125790
    H            4.828421628818     1.094913305922     0.323350748958
    H            5.526558828991    -0.413105809206     0.877164164151
    H            4.508111113621     0.526188876966     1.948959987671

  Mulliken Charges: (a.u.)
   Center  Symbol    Alpha    Beta     Spin     Total
       1     O     4.19173  4.19173  0.00000 -0.38346
       2     C     2.81143  2.81143  0.00000  0.37713
       3     C     3.13761  3.13761  0.00000 -0.27521
       4     O     4.15450  4.15450  0.00000 -0.30901
       5     H     0.43836  0.43836  0.00000  0.12327
       6     H     0.44418  0.44418  0.00000  0.11165
       7     H     0.44882  0.44882  0.00000  0.10236
       8     C     2.97855  2.97855  0.00000  0.04290
       9     C     3.08167  3.08167  0.00000 -0.16333
      10     H     0.44909  0.44909  0.00000  0.10181
      11     H     0.46070  0.46070  0.00000  0.07860
      12     C     3.09846  3.09846  0.00000 -0.19692
      13     H     0.44915  0.44915  0.00000  0.10169
      14     H     0.45165  0.45165  0.00000  0.09670
      15     C     3.08502  3.08502  0.00000 -0.17004
      16     H     0.45240  0.45240  0.00000  0.09519
      17     H     0.45354  0.45354  0.00000  0.09291
      18     C     3.14952  3.14952  0.00000 -0.29905
      19     H     0.45316  0.45316  0.00000  0.09369
      20     H     0.45366  0.45366  0.00000  0.09269
      21     H     0.45436  0.45436  0.00000  0.09127
      22     H     0.44764  0.44764  0.00000  0.10473
      23     H     0.45479  0.45479  0.00000  0.09042

   Total alpha = 36.00000, Total beta = 36.00000, Total charge = -0.00000

*** Psi4 exiting successfully. Buy a developer a beer!
