  ==> Input File <==

--------------------------------------------------------------------------
set {
	reference rhf
	basis 6-31G*
}

set_num_threads( 4 )
memory 2 gb

molecule MOL {
0 1

H	 -3.135461	 -1.215070	 0.001379
O	 -2.310168	 -0.871793	 -0.309793
C	 -2.026376	 0.340750	 0.341611
C	 -0.673256	 0.843270	 -0.132153
H	 -2.792215	 1.080697	 0.115987
H	 -2.013526	 0.200402	 1.421792
C	 0.486613	 -0.083066	 0.235839
H	 -0.715586	 0.970948	 -1.210718
H	 -0.508072	 1.829858	 0.297090
C	 1.740724	 0.170346	 -0.602495
H	 0.170040	 -1.114073	 0.116174
H	 0.728134	 0.046530	 1.290217
C	 2.901689	 -0.751418	 -0.230764
H	 1.501107	 0.040444	 -1.655789
H	 2.052122	 1.206684	 -0.486406
H	 2.632592	 -1.794578	 -0.369672
H	 3.776014	 -0.550728	 -0.842502
H	 3.188570	 -0.620890	 0.809030

	symmetry c1
}
set optking {
	frozen_dihedral = ("
		10 7 4 8
	")
}

ee = optimize('scf')
oeprop('DIPOLE', 'QUADRUPOLE', 'MULLIKEN_CHARGES')
f=open( 'psi4out.xyz', 'w' )
f.write( "18  " )
f.write( str(ee) + "\n" )
f.write( MOL.save_string_xyz() )
f.close()
--------------------------------------------------------------------------

    Molecular point group: c1
  Charge       = 0
  Multiplicity = 1
  Basis Set: 6-31G*
  Basis Set:
  @DF-RHF Final Energy:  -271.17886026099234
    Total Energy =                       -271.1788602609921099
    Molecular point group: c1
  Basis Set: 6-31G*
  Basis Set:
  Basis Set: 6-31G*
  Basis Set:
  @DF-RHF Final Energy:  -271.17893436080340
    Total Energy =                       -271.1789343608033960
  Basis Set: 6-31G*
  Basis Set:
  Basis Set: 6-31G*
  Basis Set:
  @DF-RHF Final Energy:  -271.17898510018000
    Total Energy =                       -271.1789851001800571
  Basis Set: 6-31G*
  Basis Set:
  Basis Set: 6-31G*
  Basis Set:
  @DF-RHF Final Energy:  -271.17898697449323
    Total Energy =                       -271.1789869744931138
  Basis Set: 6-31G*
  Basis Set:
  Charge       = 0
  Multiplicity = 1
  Basis Set: 6-31G*
  Basis Set:

    Orbital Energies (a.u.)
    -----------------------

    Doubly Occupied:

       1A    -20.553242     2A    -11.268311     3A    -11.211842
       4A    -11.210231     5A    -11.206246     6A    -11.204132
       7A     -1.359944     8A     -1.074136     9A     -1.008463
      10A     -0.912956    11A     -0.817585    12A     -0.783986
      13A     -0.705612    14A     -0.637355    15A     -0.628135
      16A     -0.580834    17A     -0.569626    18A     -0.558294
      19A     -0.522030    20A     -0.497156    21A     -0.490306
      22A     -0.467556    23A     -0.457600    24A     -0.447655
      25A     -0.428473

  @DF-RHF Final Energy:  -271.17898715853369

   => Energetics <=

    Nuclear Repulsion Energy =            249.2729931165833648
    One-Electron Energy =                -861.7005483483037551
    Two-Electron Energy =                 341.2485680731867888
    DFT Exchange-Correlation Energy =       0.0000000000000000
    Empirical Dispersion Energy =           0.0000000000000000
    PCM Polarization Energy =               0.0000000000000000
    EFP Energy =                            0.0000000000000000
    Total Energy =                       -271.1789871585335732
    Molecular point group: c1
  Basis Set: 6-31G*
  Basis Set:

  -Total Gradient:
     Atom            X                  Y                   Z
    ------   -----------------  -----------------  -----------------
       1       -0.000001623904     0.000001276251    -0.000002026726
       2       -0.000013476483     0.000016188990    -0.000002656776
       3        0.000027244714    -0.000015165921     0.000017545549
       4       -0.002465405026    -0.003430157183    -0.000866560894
       5       -0.000005249222    -0.000015106630    -0.000008434866
       6       -0.000009722695     0.000008014998     0.000003673072
       7        0.001346347995     0.002492368390     0.002041084759
       8        0.001786092483     0.002317009212     0.000215840856
       9       -0.000004947882    -0.000004537197     0.000024578975
      10       -0.000666132032    -0.001384427231    -0.001435766123
      11       -0.000006380365     0.000007779902     0.000021455598
      12        0.000010993005     0.000010071936    -0.000006294244
      13       -0.000003294963    -0.000005130492    -0.000004929627
      14        0.000004884867     0.000002267956    -0.000006534534
      15       -0.000001860675    -0.000004798922     0.000007374463
      16       -0.000002725385     0.000002839946     0.000009861223
      17       -0.000000324390    -0.000004169157    -0.000005199054
      18        0.000005579963     0.000005675154    -0.000003011653

  **** Optimization is complete! (in 5 steps) ****
    Final optimized geometry and variables:
    Molecular point group: c1

    Geometry (in Angstrom), charge = 0, multiplicity = 1:

    H           -3.128200040423    -1.106232396507     0.123681093092
    O           -2.309434105841    -0.763970280224    -0.205373822528
    C           -1.990327692233     0.427813559232     0.467807272163
    C           -0.638406424829     0.916932831314    -0.021024634595
    H           -2.747049250979     1.185865089408     0.274676268732
    H           -1.958495735747     0.262437848989     1.544117289583
    C            0.523630982993    -0.013616525747     0.340550411897
    H           -0.682514378091     1.058962030230    -1.097449577317
    H           -0.460895299182     1.903218657396     0.404549520843
    C            1.780632239407     0.247951073303    -0.490874809522
    H            0.212456177626    -1.042673695913     0.190108303085
    H            0.754408366622     0.090400347820     1.399516428390
    C            2.951802188153    -0.652227259862    -0.099449961429
    H            1.546185868397     0.099006725151    -1.542228621772
    H            2.077833317786     1.290331316351    -0.388778053652
    H            2.694300707424    -1.701140496244    -0.216082323547
    H            3.823790357780    -0.455001871842    -0.715595898187
    H            3.237391476606    -0.496298769778     0.937173348853

  Mulliken Charges: (a.u.)
   Center  Symbol    Alpha    Beta     Spin     Total
       1     H     0.28058  0.28058  0.00000  0.43884
       2     O     4.36926  4.36926  0.00000 -0.73853
       3     C     2.99767  2.99767  0.00000  0.00465
       4     C     3.16056  3.16056  0.00000 -0.32112
       5     H     0.42914  0.42914  0.00000  0.14172
       6     H     0.43269  0.43269  0.00000  0.13461
       7     C     3.15505  3.15505  0.00000 -0.31010
       8     H     0.41460  0.41460  0.00000  0.17079
       9     H     0.42373  0.42373  0.00000  0.15254
      10     C     3.15231  3.15231  0.00000 -0.30463
      11     H     0.40792  0.40792  0.00000  0.18415
      12     H     0.42678  0.42678  0.00000  0.14644
      13     C     3.23921  3.23921  0.00000 -0.47841
      14     H     0.42088  0.42088  0.00000  0.15824
      15     H     0.42547  0.42547  0.00000  0.14906
      16     H     0.42095  0.42095  0.00000  0.15810
      17     H     0.42028  0.42028  0.00000  0.15944
      18     H     0.42290  0.42290  0.00000  0.15420

   Total alpha = 25.00000, Total beta = 25.00000, Total charge =  0.00000
