  ==> Input File <==

--------------------------------------------------------------------------
set {
	reference rhf
	basis 6-31G*
}

set_num_threads( 4 )
memory 2 gb

molecule MOL {
0 1

O	 -0.291628	 1.323815	 -0.000732
C	 -0.449655	 0.146360	 0.000961
C	 -1.783294	 -0.549321	 -0.000296
O	 0.550821	 -0.724572	 0.000672
H	 -1.863538	 -1.185371	 -0.874187
H	 -2.574672	 0.185258	 -0.002793
H	 -1.866414	 -1.182381	 0.875436
C	 1.180558	 -0.979012	 1.243642
H	 1.610452	 -0.072196	 1.643932
H	 1.954852	 -1.701829	 1.039305
H	 0.471248	 -1.379854	 1.953253

	symmetry c1
}
set optking {
	frozen_dihedral = ("
		8 4 2 1
	")
}

ee = optimize('scf')
oeprop('DIPOLE', 'QUADRUPOLE', 'MULLIKEN_CHARGES')
f=open( 'psi4out.xyz', 'w' )
f.write( "11  " )
f.write( str(ee) + "\n" )
f.write( MOL.save_string_xyz() )
f.close()
--------------------------------------------------------------------------

    Molecular point group: c1
  Charge       = 0
  Multiplicity = 1
  Basis Set: 6-31G*
  Basis Set:
  @DF-RHF Final Energy:  -266.81610560637466
    Total Energy =                       -266.8161056063746628
    Molecular point group: c1
  Basis Set: 6-31G*
  Basis Set:
  Basis Set: 6-31G*
  Basis Set:
  @DF-RHF Final Energy:  -266.81480105681703
    Total Energy =                       -266.8148010568169752
  Basis Set: 6-31G*
  Basis Set:
  Basis Set: 6-31G*
  Basis Set:
  @DF-RHF Final Energy:  -266.81705144224497
    Total Energy =                       -266.8170514422449742
  Basis Set: 6-31G*
  Basis Set:
  Basis Set: 6-31G*
  Basis Set:
  @DF-RHF Final Energy:  -266.81735608395707
    Total Energy =                       -266.8173560839568950
  Basis Set: 6-31G*
  Basis Set:
  Basis Set: 6-31G*
  Basis Set:
  @DF-RHF Final Energy:  -266.81736384750991
    Total Energy =                       -266.8173638475099096
  Basis Set: 6-31G*
  Basis Set:
  Basis Set: 6-31G*
  Basis Set:
  @DF-RHF Final Energy:  -266.81736514425359
    Total Energy =                       -266.8173651442537562
  Basis Set: 6-31G*
  Basis Set:
  Charge       = 0
  Multiplicity = 1
  Basis Set: 6-31G*
  Basis Set:

    Orbital Energies (a.u.)
    -----------------------

    Doubly Occupied:

       1A    -20.587693     2A    -20.558683     3A    -11.379444
       4A    -11.292193     5A    -11.238446     6A     -1.461239
       7A     -1.368868     8A     -1.027929     9A     -0.961652
      10A     -0.778399    11A     -0.694676    12A     -0.682737
      13A     -0.668807    14A     -0.611253    15A     -0.591525
      16A     -0.576378    17A     -0.540029    18A     -0.497884
      19A     -0.458633    20A     -0.441651

  @DF-RHF Final Energy:  -266.81736532744969

   => Energetics <=

    Nuclear Repulsion Energy =            182.3322344708133471
    One-Electron Energy =                -725.4629593776315915
    Two-Electron Energy =                 276.3133595793688073
    DFT Exchange-Correlation Energy =       0.0000000000000000
    Empirical Dispersion Energy =           0.0000000000000000
    PCM Polarization Energy =               0.0000000000000000
    EFP Energy =                            0.0000000000000000
    Total Energy =                       -266.8173653274494654
    Molecular point group: c1
  Basis Set: 6-31G*
  Basis Set:

  -Total Gradient:
     Atom            X                  Y                   Z
    ------   -----------------  -----------------  -----------------
       1       -0.000124813396    -0.000173525716    -0.004982786930
       2       -0.001041945802    -0.001069443144     0.007666817698
       3       -0.000007717726     0.000011394732    -0.000012156320
       4        0.003760982398     0.004192577067    -0.003551364143
       5        0.000000220680    -0.000009451376     0.000012078848
       6       -0.000001795495    -0.000012488075     0.000008141493
       7       -0.000004504549    -0.000006790284     0.000020182550
       8       -0.002574107844    -0.002932746297     0.000834684142
       9        0.000000656376     0.000010537721     0.000000703478
      10       -0.000003224135    -0.000002544587    -0.000002444873
      11       -0.000003750508    -0.000007520046     0.000006144058

  **** Optimization is complete! (in 7 steps) ****
    Final optimized geometry and variables:
    Molecular point group: c1

    Geometry (in Angstrom), charge = 0, multiplicity = 1:

    O           -0.135350706242     1.473130814843    -0.285622887005
    C           -0.319718746091     0.307071977767    -0.244368857136
    C           -1.672518009680    -0.350246788113    -0.278889161671
    O            0.699270090296    -0.582680118682    -0.248451459523
    H           -1.743744652039    -0.967593190185    -1.167575190610
    H           -2.451840889734     0.397343480986    -0.283827170975
    H           -1.790986841449    -1.004557893073     0.578413870835
    C            1.356892740752    -0.794589227384     0.983548891393
    H            1.761202174444     0.133638272569     1.366371391197
    H            2.159927033653    -1.487969137070     0.788624245353
    H            0.680565666012    -1.227847390826     1.713535737251

  Mulliken Charges: (a.u.)
   Center  Symbol    Alpha    Beta     Spin     Total
       1     O     4.25009  4.25009  0.00000 -0.50018
       2     C     2.62931  2.62931  0.00000  0.74139
       3     C     3.28511  3.28511  0.00000 -0.57021
       4     O     4.30970  4.30970  0.00000 -0.61940
       5     H     0.39681  0.39681  0.00000  0.20637
       6     H     0.39693  0.39693  0.00000  0.20615
       7     H     0.40674  0.40674  0.00000  0.18653
       8     C     3.09282  3.09282  0.00000 -0.18564
       9     H     0.40715  0.40715  0.00000  0.18570
      10     H     0.40286  0.40286  0.00000  0.19429
      11     H     0.42249  0.42249  0.00000  0.15501

   Total alpha = 20.00000, Total beta = 20.00000, Total charge = -0.00000
