                              Psi4 1.0.54 Driver

  ==> Input File <==

--------------------------------------------------------------------------
set {
	reference rhf
	basis cc-pvtz
}

set_num_threads( 4 )
memory 2 gb

molecule MOL {
0 1

H	 -3.436473	 1.252944	 -1.023892
O	 -3.458596	 0.315260	 -0.960865
C	 -3.176635	 -0.080824	 0.355601
C	 -1.763371	 0.265266	 0.799691
H	 -3.321825	 -1.153438	 0.379502
H	 -3.895468	 0.357385	 1.043382
C	 -0.673390	 -0.426948	 -0.013392
H	 -1.631049	 1.344913	 0.747560
H	 -1.664587	 -0.001624	 1.849167
C	 0.737842	 -0.043159	 0.423759
H	 -0.806103	 -0.190518	 -1.063345
H	 -0.797221	 -1.503753	 0.074146
C	 1.824000	 -0.743224	 -0.390623
H	 0.850588	 1.033777	 0.343840
H	 0.868587	 -0.286314	 1.476203
C	 3.255957	 -0.453067	 0.062319
H	 1.718250	 -0.470599	 -1.438164
H	 1.658105	 -1.815850	 -0.339904
C	 4.330112	 -0.768014	 -0.976018
H	 3.457017	 -1.034514	 0.956897
H	 3.334402	 0.590390	 0.356367
H	 4.272241	 -1.804279	 -1.293638
H	 5.320399	 -0.604101	 -0.566500
H	 4.236661	 -0.146237	 -1.858212

	symmetry c1
}
set optking {
	frozen_dihedral = ("
		20 16 13 17
	")
}

ee,wfn = optimize('scf', return_wfn=True)
oeprop( wfn, 'DIPOLE', 'QUADRUPOLE', 'MULLIKEN_CHARGES')
f=open( 'psi4out.xyz', 'w' )
f.write( "24  " )
f.write( str(ee) + "\n" )
f.write( MOL.save_string_xyz() )
f.close()
--------------------------------------------------------------------------

    Molecular point group: c1
  Charge       = 0
  Multiplicity = 1
  Basis Set: CC-PVTZ
  Basis Set:
  @DF-RHF Final Energy:  -349.38054829819214
    Total Energy =                       -349.3805482981922523
    Molecular point group: c1
  Basis Set: CC-PVTZ
  Basis Set:
  Basis Set: CC-PVTZ
  Basis Set:
  @DF-RHF Final Energy:  -349.38089547764332
    Total Energy =                       -349.3808954776434916
  Basis Set: CC-PVTZ
  Basis Set:
  Basis Set: CC-PVTZ
  Basis Set:
  @DF-RHF Final Energy:  -349.38092755810521
    Total Energy =                       -349.3809275581050997
  Basis Set: CC-PVTZ
  Basis Set:
  Charge       = 0
  Multiplicity = 1
  Basis Set: CC-PVTZ
  Basis Set:

    Orbital Energies (a.u.)
    -----------------------

    Doubly Occupied:

       1A    -20.546324     2A    -11.265560     3A    -11.215242
       4A    -11.211654     5A    -11.210810     6A    -11.209106
       7A    -11.208975     8A    -11.205164     9A     -1.364177
      10A     -1.089728    11A     -1.050110    12A     -0.989150
      13A     -0.914559    14A     -0.842926    15A     -0.798188
      16A     -0.788609    17A     -0.681802    18A     -0.657729
      19A     -0.631547    20A     -0.616020    21A     -0.594419
      22A     -0.585884    23A     -0.548373    24A     -0.542486
      25A     -0.532405    26A     -0.501164    27A     -0.495402
      28A     -0.471604    29A     -0.469367    30A     -0.460448
      31A     -0.457797    32A     -0.456436    33A     -0.420760

  @DF-RHF Final Energy:  -349.38092796695867

   => Energetics <=

    Nuclear Repulsion Energy =            381.0197816157696025
    One-Electron Energy =               -1228.7335644643801515
    Two-Electron Energy =                 498.3328548816521106
    DFT Exchange-Correlation Energy =       0.0000000000000000
    Empirical Dispersion Energy =           0.0000000000000000
    PCM Polarization Energy =               0.0000000000000000
    EFP Energy =                            0.0000000000000000
    Total Energy =                       -349.3809279669584384
    Molecular point group: c1
  Basis Set: CC-PVTZ
  Basis Set:

  -Total Gradient:
     Atom            X                  Y                   Z
    ------   -----------------  -----------------  -----------------
       1        0.000001033587    -0.000007328828     0.000000674712
       2       -0.000004689859     0.000008050980    -0.000016738022
       3        0.000017075823     0.000009721879    -0.000010830239
       4       -0.000002624841     0.000023867529    -0.000026855971
       5        0.000004852477     0.000002891784     0.000005494699
       6        0.000010351907    -0.000000275891     0.000003706704
       7       -0.000051396559     0.000013874527     0.000013267130
       8       -0.000004671843     0.000008853370     0.000012039074
       9        0.000009898067    -0.000013363590    -0.000011670002
      10       -0.000041560142    -0.000029580648     0.000040430793
      11       -0.000002192780    -0.000014448646    -0.000002480667
      12        0.000026923274     0.000011942479     0.000023434515
      13       -0.000910537281     0.003354441151     0.000690819249
      14        0.000005900476    -0.000006556661     0.000015351046
      15        0.000014767850    -0.000028032934    -0.000028635840
      16       -0.001350787282     0.002430601573     0.002145767423
      17        0.001014077582    -0.003168184649    -0.000879724617
      18        0.000028881241    -0.000001925240     0.000009542290
      19        0.000081957520     0.000045361739    -0.000042086032
      20        0.001164655163    -0.002567203605    -0.001891666616
      21       -0.000013339205    -0.000057111567    -0.000025501376
      22        0.000012192397     0.000066542294     0.000012458200
      23       -0.000039809809    -0.000027433121    -0.000069229369
      24        0.000029042242    -0.000054703922     0.000032432914

  **** Optimization is complete! (in 4 steps) ****
    Final optimized geometry and variables:
    Molecular point group: c1

    Geometry (in Angstrom), charge = 0, multiplicity = 1:

    H           -3.498693870493     1.503385904633    -0.912956934914
    O           -3.528970592755     0.565418661675    -0.858454674926
    C           -3.254649598429     0.155347230748     0.455261951874
    C           -1.839869302689     0.485235364264     0.906716601393
    H           -3.409175025381    -0.916143461662     0.468878057159
    H           -3.971895136265     0.593474471962     1.144744213319
    C           -0.753335615832    -0.207067366972     0.089190665752
    H           -1.698582528661     1.564250451532     0.866413642848
    H           -1.745969782974     0.206445295790     1.953528849004
    C            0.659310694918     0.160535961233     0.533747203938
    H           -0.881275848841     0.041190297471    -0.958629275636
    H           -0.885576438124    -1.283720705931     0.165441843388
    C            1.748973328801    -0.522841193053    -0.285217480489
    H            0.787486087443     1.238475010890     0.468192638068
    H            0.787001017402    -0.095943044547     1.583259051332
    C            3.168493372763    -0.203510174442     0.185500906638
    H            1.646735880024    -0.262791005797    -1.335898781120
    H            1.603230468721    -1.600060618773    -0.244526988372
    C            4.230335057862    -0.549833821644    -0.855130381212
    H            3.380102003422    -0.768680381334     1.088594683997
    H            3.246245935653     0.848707832578     0.441992155476
    H            4.181116576086    -1.598754796594    -1.128842798520
    H            5.228379326812    -0.353698140235    -0.480222327473
    H            4.095989577937     0.032311090741    -1.760530058797

  Mulliken Charges: (a.u.)
   Center  Symbol    Alpha    Beta     Spin     Total
       1     H     0.39531  0.39531  0.00000  0.20938
       2     O     4.20370  4.20370  0.00000 -0.40741
       3     C     2.97759  2.97759  0.00000  0.04482
       4     C     3.10248  3.10248  0.00000 -0.20496
       5     H     0.45889  0.45889  0.00000  0.08221
       6     H     0.46030  0.46030  0.00000  0.07940
       7     C     3.08807  3.08807  0.00000 -0.17613
       8     H     0.45909  0.45909  0.00000  0.08182
       9     H     0.45329  0.45329  0.00000  0.09343
      10     C     3.08818  3.08818  0.00000 -0.17636
      11     H     0.44634  0.44634  0.00000  0.10733
      12     H     0.45527  0.45527  0.00000  0.08946
      13     C     3.08754  3.08754  0.00000 -0.17508
      14     H     0.45537  0.45537  0.00000  0.08925
      15     H     0.45571  0.45571  0.00000  0.08858
      16     C     3.08420  3.08420  0.00000 -0.16840
      17     H     0.45485  0.45485  0.00000  0.09030
      18     H     0.45457  0.45457  0.00000  0.09087
      19     C     3.14992  3.14992  0.00000 -0.29985
      20     H     0.45414  0.45414  0.00000  0.09173
      21     H     0.45569  0.45569  0.00000  0.08863
      22     H     0.45490  0.45490  0.00000  0.09021
      23     H     0.44918  0.44918  0.00000  0.10165
      24     H     0.45544  0.45544  0.00000  0.08912

   Total alpha = 33.00000, Total beta = 33.00000, Total charge = -0.00000

*** Psi4 exiting successfully. Buy a developer a beer!
