  ==> Input File <==

--------------------------------------------------------------------------
set {
	reference rhf
	basis 6-31G*
}

set_num_threads( 1 )
memory 2 gb

molecule MOL {
0 1

H	 -2.630943	 -0.696935	 -1.182893
O	 -2.310168	 -0.871793	 -0.309793
C	 -2.026376	 0.340750	 0.341611
C	 -0.673256	 0.843270	 -0.132153
H	 -2.792215	 1.080697	 0.115987
H	 -2.013526	 0.200402	 1.421792
C	 0.486613	 -0.083066	 0.235839
H	 -0.715586	 0.970948	 -1.210718
H	 -0.508072	 1.829858	 0.297090
C	 1.840406	 0.433480	 -0.254303
H	 0.300215	 -1.068318	 -0.178947
H	 0.519509	 -0.203625	 1.318070
C	 3.000220	 -0.489290	 0.118523
H	 1.809207	 0.553576	 -1.335192
H	 2.021860	 1.424500	 0.157276
H	 2.864959	 -1.479103	 -0.307933
H	 3.946603	 -0.099227	 -0.243630
H	 3.080049	 -0.602997	 1.196117

	symmetry c1
}
set optking {
	frozen_dihedral = ("
		14 10 7 11,
		10 7 4 8,
		2 3 4 8
	")
}

ee = energy('scf')
oeprop('DIPOLE', 'QUADRUPOLE', 'MULLIKEN_CHARGES')
f=open( 'psi4out.xyz', 'w' )
f.write( "18  " )
f.write( str(ee) + "\n" )
f.write( MOL.save_string_xyz() )
f.close()
--------------------------------------------------------------------------

    Molecular point group: c1

    Geometry (in Angstrom), charge = 0, multiplicity = 1:

       Center              X                  Y                   Z               Mass
    ------------   -----------------  -----------------  -----------------  -----------------
           H         -2.636714804187    -0.702863033627    -1.169343928424     1.007825032070
           O         -2.315939804187    -0.877721033627    -0.296243928424    15.994914619560
           C         -2.032147804187     0.334821966373     0.355160071576    12.000000000000
           C         -0.679027804187     0.837341966373    -0.118603928424    12.000000000000
           H         -2.797986804187     1.074768966373     0.129536071576     1.007825032070
           H         -2.019297804187     0.194473966373     1.435341071576     1.007825032070
           C          0.480841195813    -0.088994033627     0.249388071576    12.000000000000
           H         -0.721357804187     0.965019966373    -1.197168928424     1.007825032070
           H         -0.513843804187     1.823929966373     0.310639071576     1.007825032070
           C          1.834634195813     0.427551966373    -0.240753928424    12.000000000000
           H          0.294443195813    -1.074246033627    -0.165397928424     1.007825032070
           H          0.513737195813    -0.209553033627     1.331619071576     1.007825032070
           C          2.994448195813    -0.495218033627     0.132072071576    12.000000000000
           H          1.803435195813     0.547647966373    -1.321642928424     1.007825032070
           H          2.016088195813     1.418571966373     0.170825071576     1.007825032070
           H          2.859187195813    -1.485031033627    -0.294383928424     1.007825032070
           H          3.940831195813    -0.105155033627    -0.230080928424     1.007825032070
           H          3.074277195813    -0.608925033627     1.209666071576     1.007825032070

  Charge       = 0
  Multiplicity = 1
  Basis Set: 6-31G*
  Basis Set:

    Orbital Energies (a.u.)
    -----------------------

    Doubly Occupied:

       1A    -20.552558     2A    -11.269199     3A    -11.212805
       4A    -11.212721     5A    -11.208399     6A    -11.205997
       7A     -1.360710     8A     -1.076244     9A     -1.009390
      10A     -0.915029    11A     -0.824822    12A     -0.789731
      13A     -0.687593    14A     -0.651875    15A     -0.612762
      16A     -0.603856    17A     -0.573469    18A     -0.551993
      19A     -0.533565    20A     -0.493507    21A     -0.490996
      22A     -0.471699    23A     -0.461050    24A     -0.454261
      25A     -0.421879

  @DF-RHF Final Energy:  -271.17782720100490

   => Energetics <=

    Nuclear Repulsion Energy =            249.5125076397010560
    One-Electron Energy =                -862.0884933616921444
    Two-Electron Energy =                 341.3981585209865557
    DFT Exchange-Correlation Energy =       0.0000000000000000
    Empirical Dispersion Energy =           0.0000000000000000
    PCM Polarization Energy =               0.0000000000000000
    EFP Energy =                            0.0000000000000000
    Total Energy =                       -271.1778272010045043

  Mulliken Charges: (a.u.)
   Center  Symbol    Alpha    Beta     Spin     Total
       1     H     0.28107  0.28107  0.00000  0.43786
       2     O     4.36835  4.36835  0.00000 -0.73670
       3     C     3.00243  3.00243  0.00000 -0.00486
       4     C     3.15976  3.15976  0.00000 -0.31952
       5     H     0.42804  0.42804  0.00000  0.14392
       6     H     0.41651  0.41651  0.00000  0.16697
       7     C     3.15167  3.15167  0.00000 -0.30335
       8     H     0.42814  0.42814  0.00000  0.14372
       9     H     0.42642  0.42642  0.00000  0.14716
      10     C     3.15126  3.15126  0.00000 -0.30253
      11     H     0.40975  0.40975  0.00000  0.18050
      12     H     0.42557  0.42557  0.00000  0.14885
      13     C     3.23893  3.23893  0.00000 -0.47786
      14     H     0.42423  0.42423  0.00000  0.15153
      15     H     0.42470  0.42470  0.00000  0.15060
      16     H     0.42100  0.42100  0.00000  0.15800
      17     H     0.42028  0.42028  0.00000  0.15943
      18     H     0.42187  0.42187  0.00000  0.15626

   Total alpha = 25.00000, Total beta = 25.00000, Total charge = -0.00000
