  ==> Input File <==

--------------------------------------------------------------------------
set {
	reference rhf
	basis 6-31G*
}

set_num_threads( 4 )
memory 2 gb

molecule MOL {
0 1

O	 1.780271	 1.411520	 0.338969
C	 1.505292	 0.462126	 0.999390
C	 0.185745	 -0.270144	 0.978341
O	 2.349119	 -0.092570	 1.860438
C	 -0.823008	 0.326187	 0.001381
H	 0.395190	 -1.309922	 0.742314
H	 -0.201827	 -0.270057	 1.993480
C	 -2.149452	 -0.435131	 -0.000098
H	 -0.396738	 0.326666	 -0.996858
H	 -0.995266	 1.367201	 0.256188
C	 -3.368779	 0.488503	 -0.000883
H	 -2.193746	 -1.087250	 -0.871175
H	 -2.195311	 -1.087803	 0.870418
C	 -4.693822	 -0.272754	 -0.001129
H	 -3.325798	 1.139422	 -0.871284
H	 -3.326423	 1.139959	 0.869145
H	 -4.781274	 -0.907928	 -0.878124
H	 -5.538651	 0.408946	 -0.001420
H	 -4.781694	 -0.907783	 0.875984
C	 3.630179	 0.499301	 1.976759
H	 4.150143	 0.469087	 1.030052
H	 4.159545	 -0.085146	 2.713012
H	 3.546340	 1.525895	 2.303226

	symmetry c1
}
set optking {
	frozen_dihedral = ("
		9 5 8 12
	")
}

ee = optimize('scf')
oeprop('DIPOLE', 'QUADRUPOLE', 'MULLIKEN_CHARGES')
f=open( 'psi4out.xyz', 'w' )
f.write( "23  " )
f.write( str(ee) + "\n" )
f.write( MOL.save_string_xyz() )
f.close()
--------------------------------------------------------------------------

    Molecular point group: c1
  Charge       = 0
  Multiplicity = 1
  Basis Set: 6-31G*
  Basis Set:
  @DF-RHF Final Energy:  -422.97156835230379
    Total Energy =                       -422.9715683523043026
    Molecular point group: c1
  Basis Set: 6-31G*
  Basis Set:
  Basis Set: 6-31G*
  Basis Set:
  @DF-RHF Final Energy:  -422.97174683880354
    Total Energy =                       -422.9717468388040515
  Basis Set: 6-31G*
  Basis Set:
  Basis Set: 6-31G*
  Basis Set:
  @DF-RHF Final Energy:  -422.97072135659334
    Total Energy =                       -422.9707213565935717
  Basis Set: 6-31G*
  Basis Set:
  Basis Set: 6-31G*
  Basis Set:
  @DF-RHF Final Energy:  -422.97188881043729
    Total Energy =                       -422.9718888104372354
  Basis Set: 6-31G*
  Basis Set:
  Basis Set: 6-31G*
  Basis Set:
  @DF-RHF Final Energy:  -422.97190151312367
    Total Energy =                       -422.9719015131233846
  Basis Set: 6-31G*
  Basis Set:
  Basis Set: 6-31G*
  Basis Set:
  @DF-RHF Final Energy:  -422.97190320927803
    Total Energy =                       -422.9719032092780253
  Basis Set: 6-31G*
  Basis Set:
  Charge       = 0
  Multiplicity = 1
  Basis Set: 6-31G*
  Basis Set:

    Orbital Energies (a.u.)
    -----------------------

    Doubly Occupied:

       1A    -20.603522     2A    -20.545416     3A    -11.371939
       4A    -11.280781     5A    -11.235553     6A    -11.219129
       7A    -11.217697     8A    -11.216796     9A    -11.209579
      10A     -1.469192    11A     -1.362651    12A     -1.091473
      13A     -1.043433    14A     -0.986288    15A     -0.931409
      16A     -0.844394    17A     -0.795032    18A     -0.767262
      19A     -0.698750    20A     -0.682745    21A     -0.671861
      22A     -0.644217    23A     -0.614852    24A     -0.598896
      25A     -0.571927    26A     -0.559191    27A     -0.555188
      28A     -0.526957    29A     -0.521448    30A     -0.502715
      31A     -0.489065    32A     -0.470141    33A     -0.464287
      34A     -0.459112    35A     -0.453826    36A     -0.434881

  @DF-RHF Final Energy:  -422.97190323068037

   => Energetics <=

    Nuclear Repulsion Energy =            452.4744648883840910
    One-Electron Energy =               -1472.6695255765503134
    Two-Electron Energy =                 597.2231574574860815
    DFT Exchange-Correlation Energy =       0.0000000000000000
    Empirical Dispersion Energy =           0.0000000000000000
    PCM Polarization Energy =               0.0000000000000000
    EFP Energy =                            0.0000000000000000
    Total Energy =                       -422.9719032306801410
    Molecular point group: c1
  Basis Set: 6-31G*
  Basis Set:

  -Total Gradient:
     Atom            X                  Y                   Z
    ------   -----------------  -----------------  -----------------
       1       -0.000001163206    -0.000000642457    -0.000005960102
       2       -0.000008257020     0.000017056751     0.000008456733
       3       -0.000013919203    -0.000019459460     0.000007139399
       4        0.000000991090    -0.000007380226    -0.000000057074
       5       -0.002509813086     0.004247459386    -0.001378366758
       6       -0.000002612253    -0.000000776283     0.000004503172
       7        0.000006272434     0.000001282037     0.000005503989
       8        0.002269193212    -0.003832440291     0.002472054216
       9        0.001723100373    -0.002952916899     0.000730137166
      10       -0.000017334168    -0.000011254828    -0.000003373953
      11        0.000009310396     0.000020064928     0.000029195041
      12       -0.001469170147     0.002534525219    -0.001861518402
      13        0.000018821236     0.000008799517     0.000009499634
      14        0.000004246161    -0.000004325855    -0.000015593320
      15        0.000002967708     0.000001289308     0.000005483256
      16       -0.000011179569     0.000000291754     0.000002891637
      17       -0.000005897954    -0.000004318609    -0.000002603317
      18        0.000001839928     0.000000666426    -0.000001545423
      19        0.000004654766     0.000003694480    -0.000002050728
      20        0.000000861002    -0.000001691174    -0.000005502448
      21        0.000001107021     0.000000523938     0.000001008982
      22       -0.000002096041    -0.000000550892     0.000000397109
      23       -0.000001922688     0.000000103230     0.000000301189

  **** Optimization is complete! (in 7 steps) ****
    Final optimized geometry and variables:
    Molecular point group: c1

    Geometry (in Angstrom), charge = 0, multiplicity = 1:

    O            1.925066105141     1.168124546245    -0.364034262005
    C            1.655058510080     0.222293354589     0.303701524649
    C            0.328100483174    -0.496724715379     0.311760791030
    O            2.510193488703    -0.336326685244     1.150994994193
    C           -0.696821881731     0.107625681869    -0.646445976475
    H            0.521311233663    -1.539284822772     0.073459269855
    H           -0.038703467597    -0.490809948498     1.334534367059
    C           -2.026667926393    -0.672455400216    -0.649603819296
    H           -0.263740416190     0.110100262874    -1.640187474477
    H           -0.862840686528     1.144569226915    -0.376225486452
    C           -3.255127335037     0.241087174906    -0.698918582430
    H           -2.061199143650    -1.327702198664    -1.516457779052
    H           -2.097752296757    -1.310026292325     0.228742714247
    C           -4.571981291478    -0.530953910827    -0.760286933194
    H           -3.178849744272     0.896932428939    -1.563529064212
    H           -3.255095417347     0.888931454211     0.175121264378
    H           -4.618089200211    -1.158769450861    -1.645743243847
    H           -5.422324763482     0.143264159952    -0.788850681809
    H           -4.689920190851    -1.175195446114     0.106702478591
    C            3.798024771739     0.245311628084     1.241328753411
    H            4.300322751248     0.206952615316     0.285425753791
    H            4.336021191575    -0.340614173985     1.970179119784
    H            3.728675200479     1.273864436253     1.565050670540

  Mulliken Charges: (a.u.)
   Center  Symbol    Alpha    Beta     Spin     Total
       1     O     4.28612  4.28612  0.00000 -0.57223
       2     C     2.60559  2.60559  0.00000  0.78882
       3     C     3.21018  3.21018  0.00000 -0.42035
       4     O     4.30727  4.30727  0.00000 -0.61454
       5     C     3.15452  3.15452  0.00000 -0.30904
       6     H     0.40038  0.40038  0.00000  0.19923
       7     H     0.40091  0.40091  0.00000  0.19818
       8     C     3.15560  3.15560  0.00000 -0.31120
       9     H     0.40931  0.40931  0.00000  0.18137
      10     H     0.40968  0.40968  0.00000  0.18064
      11     C     3.15337  3.15337  0.00000 -0.30674
      12     H     0.42002  0.42002  0.00000  0.15996
      13     H     0.42253  0.42253  0.00000  0.15494
      14     C     3.24021  3.24021  0.00000 -0.48043
      15     H     0.42041  0.42041  0.00000  0.15919
      16     H     0.42269  0.42269  0.00000  0.15462
      17     H     0.42152  0.42152  0.00000  0.15696
      18     H     0.41849  0.41849  0.00000  0.16301
      19     H     0.42208  0.42208  0.00000  0.15583
      20     C     3.09244  3.09244  0.00000 -0.18488
      21     H     0.40910  0.40910  0.00000  0.18180
      22     H     0.40847  0.40847  0.00000  0.18307
      23     H     0.40910  0.40910  0.00000  0.18180

   Total alpha = 36.00000, Total beta = 36.00000, Total charge =  0.00000
