  ==> Input File <==

--------------------------------------------------------------------------
set {
	reference rhf
	basis 6-31G*
}

set_num_threads( 4 )
memory 2 gb

molecule MOL {
0 1

H	 3.734625	 0.020441	 0.652733
N	 3.092854	 -0.246221	 -0.068770
C	 1.865559	 0.531981	 0.018834
H	 2.900266	 -1.221343	 0.061137
C	 0.645745	 -0.382037	 -0.029944
H	 1.841966	 1.207024	 -0.831236
H	 1.815756	 1.155410	 0.915079
C	 -0.679275	 0.379305	 0.025956
H	 0.698998	 -0.976915	 -0.937203
H	 0.693479	 -1.083846	 0.802235
C	 -1.903357	 -0.536963	 -0.023547
H	 -0.726309	 1.082987	 -0.803784
H	 -0.717680	 0.977832	 0.934877
C	 -3.225172	 0.228290	 0.028445
H	 -1.867824	 -1.134999	 -0.931459
H	 -1.860449	 -1.239604	 0.805977
H	 -3.313397	 0.915643	 -0.808262
H	 -4.073500	 -0.448134	 -0.008893
H	 -3.306061	 0.809945	 0.942516

	symmetry c1
}
set optking {
	frozen_dihedral = ("
		1 2 3 6
	")
}

ee = optimize('scf')
oeprop('DIPOLE', 'QUADRUPOLE', 'MULLIKEN_CHARGES')
f=open( 'psi4out.xyz', 'w' )
f.write( "19  " )
f.write( str(ee) + "\n" )
f.write( MOL.save_string_xyz() )
f.close()
--------------------------------------------------------------------------

    Molecular point group: c1
  Charge       = 0
  Multiplicity = 1
  Basis Set: 6-31G*
  Basis Set:
  @DF-RHF Final Energy:  -251.34699766677178
    Total Energy =                       -251.3469976667719266
    Molecular point group: c1
  Basis Set: 6-31G*
  Basis Set:
  Basis Set: 6-31G*
  Basis Set:
  @DF-RHF Final Energy:  -251.34742653907620
    Total Energy =                       -251.3474265390761389
  Basis Set: 6-31G*
  Basis Set:
  Basis Set: 6-31G*
  Basis Set:
  @DF-RHF Final Energy:  -251.34751749921119
    Total Energy =                       -251.3475174992111647
  Basis Set: 6-31G*
  Basis Set:
  Basis Set: 6-31G*
  Basis Set:
  @DF-RHF Final Energy:  -251.34751949383516
    Total Energy =                       -251.3475194938351933
  Basis Set: 6-31G*
  Basis Set:
  Basis Set: 6-31G*
  Basis Set:
  @DF-RHF Final Energy:  -251.34752068658523
    Total Energy =                       -251.3475206865853124
  Basis Set: 6-31G*
  Basis Set:
  Charge       = 0
  Multiplicity = 1
  Basis Set: 6-31G*
  Basis Set:

    Orbital Energies (a.u.)
    -----------------------

    Doubly Occupied:

       1A    -15.529204     2A    -11.239330     3A    -11.217021
       4A    -11.216672     5A    -11.216028     6A    -11.209591
       7A     -1.173549     8A     -1.076006     9A     -1.000794
      10A     -0.901752    11A     -0.818056    12A     -0.793968
      13A     -0.662352    14A     -0.643935    15A     -0.607918
      16A     -0.597927    17A     -0.565430    18A     -0.548057
      19A     -0.536396    20A     -0.497462    21A     -0.488737
      22A     -0.468584    23A     -0.465310    24A     -0.453469
      25A     -0.375419

  @DF-RHF Final Energy:  -251.34752086663573

   => Energetics <=

    Nuclear Repulsion Energy =            245.6399439232509110
    One-Electron Energy =                -825.3689964993241119
    Two-Electron Energy =                 328.3815317094375246
    DFT Exchange-Correlation Energy =       0.0000000000000000
    Empirical Dispersion Energy =           0.0000000000000000
    PCM Polarization Energy =               0.0000000000000000
    EFP Energy =                            0.0000000000000000
    Total Energy =                       -251.3475208666356480
    Molecular point group: c1
  Basis Set: 6-31G*
  Basis Set:

  -Total Gradient:
     Atom            X                  Y                   Z
    ------   -----------------  -----------------  -----------------
       1       -0.000569865004    -0.001121241435     0.000914146183
       2        0.000583187848     0.001155280384    -0.001340836139
       3        0.000647632134     0.000921166074     0.001212909122
       4       -0.000005809259     0.000004030761     0.000000415947
       5        0.000020582083     0.000002402133    -0.000016144926
       6       -0.000656714517    -0.000977996472    -0.000780737875
       7       -0.000007495307     0.000009024476     0.000005511378
       8       -0.000003990385     0.000001390133    -0.000006084979
       9        0.000001010025     0.000004071784     0.000009238267
      10        0.000001489157     0.000002985764    -0.000006182129
      11       -0.000009294557     0.000001264638     0.000013383662
      12       -0.000000619172     0.000002898144    -0.000002730450
      13        0.000002064976    -0.000005062747    -0.000002956190
      14       -0.000002559417    -0.000002581104    -0.000004695059
      15        0.000000799530     0.000001743790     0.000002578648
      16        0.000000210282    -0.000000638674     0.000002468925
      17        0.000000498951     0.000003016509     0.000000347486
      18       -0.000000309845     0.000000730037    -0.000002752095
      19       -0.000000817519    -0.000002484193     0.000002120224

  **** Optimization is complete! (in 6 steps) ****
    Final optimized geometry and variables:
    Molecular point group: c1

    Geometry (in Angstrom), charge = 0, multiplicity = 1:

    H            3.770411519927     0.031180591291     0.622936182358
    N            3.119913170409    -0.217616292395    -0.094543573650
    C            1.868585205514     0.529862035687     0.033718520160
    H            2.960050747918    -1.201643800903    -0.005727021958
    C            0.644416411304    -0.382217111256    -0.008570049917
    H            1.797966820610     1.241218440631    -0.784589327958
    H            1.849737755878     1.107710174472     0.955739144507
    C           -0.678794878825     0.383308838594     0.024266613761
    H            0.691567239268    -0.986922238591    -0.912598869369
    H            0.686135063884    -1.074229140699     0.831558809670
    C           -1.905419736082    -0.529980916700    -0.017898134187
    H           -0.716527068881     1.072867056474    -0.816965593638
    H           -0.719696997273     0.996287981443     0.923260434152
    C           -3.224608080701     0.240890958175     0.012979030619
    H           -1.866510587796    -1.142689069160    -0.915909473038
    H           -1.870558098260    -1.219000920435     0.823323290792
    H           -3.304816289980     0.914697095126    -0.835353409093
    H           -4.074989677216    -0.433185789851    -0.018803338867
    H           -3.309159867260     0.837515725875     0.916944684178

  Mulliken Charges: (a.u.)
   Center  Symbol    Alpha    Beta     Spin     Total
       1     H     0.33232  0.33232  0.00000  0.33536
       2     N     3.93093  3.93093  0.00000 -0.86186
       3     C     3.04519  3.04519  0.00000 -0.09037
       4     H     0.33223  0.33223  0.00000  0.33553
       5     C     3.16890  3.16890  0.00000 -0.33781
       6     H     0.42046  0.42046  0.00000  0.15908
       7     H     0.42974  0.42974  0.00000  0.14052
       8     C     3.15374  3.15374  0.00000 -0.30749
       9     H     0.41807  0.41807  0.00000  0.16386
      10     H     0.42543  0.42543  0.00000  0.14913
      11     C     3.15129  3.15129  0.00000 -0.30257
      12     H     0.42126  0.42126  0.00000  0.15749
      13     H     0.42363  0.42363  0.00000  0.15275
      14     C     3.23948  3.23948  0.00000 -0.47896
      15     H     0.42213  0.42213  0.00000  0.15573
      16     H     0.42319  0.42319  0.00000  0.15362
      17     H     0.42120  0.42120  0.00000  0.15760
      18     H     0.41901  0.41901  0.00000  0.16198
      19     H     0.42179  0.42179  0.00000  0.15642

   Total alpha = 25.00000, Total beta = 25.00000, Total charge = -0.00000
