  ==> Input File <==

--------------------------------------------------------------------------
set {
	reference rhf
	basis cc-pvtz
}

set_num_threads( 4 )
memory 2 gb

molecule MOL {
0 1

H	 3.794331	 0.445213	 0.657728
N	 2.978615	 -0.129233	 0.673092
C	 1.860978	 0.530248	 0.016256
H	 2.768534	 -0.316814	 1.631229
C	 0.644130	 -0.381765	 -0.031064
H	 2.167008	 0.771115	 -0.996283
H	 1.585046	 1.472239	 0.492144
C	 -0.678115	 0.376691	 0.025731
H	 0.693998	 -0.977147	 -0.936845
H	 0.693309	 -1.082142	 0.800523
C	 -1.900706	 -0.535531	 -0.022488
H	 -0.725296	 1.079516	 -0.802982
H	 -0.715474	 0.974884	 0.933278
C	 -3.220513	 0.226854	 0.028039
H	 -1.865036	 -1.134397	 -0.928236
H	 -1.857948	 -1.236381	 0.806820
H	 -3.309098	 0.911849	 -0.808725
H	 -4.066838	 -0.449485	 -0.008086
H	 -3.301685	 0.809374	 0.939860

	symmetry c1
}
set optking {
	frozen_dihedral = ("
		6 3 5 9
	")
}

ee = optimize('scf')
oeprop('DIPOLE', 'QUADRUPOLE', 'MULLIKEN_CHARGES')
f=open( 'psi4out.xyz', 'w' )
f.write( "19  " )
f.write( str(ee) + "\n" )
f.write( MOL.save_string_xyz() )
f.close()
--------------------------------------------------------------------------

    Molecular point group: c1
  Charge       = 0
  Multiplicity = 1
  Basis Set: CC-PVTZ
  Basis Set:
  @DF-RHF Final Energy:  -251.44456961770902
    Total Energy =                       -251.4445696177090213
    Molecular point group: c1
  Basis Set: CC-PVTZ
  Basis Set:
  Basis Set: CC-PVTZ
  Basis Set:
  @DF-RHF Final Energy:  -251.44489967350157
    Total Energy =                       -251.4448996735015953
  Basis Set: CC-PVTZ
  Basis Set:
  Basis Set: CC-PVTZ
  Basis Set:
  @DF-RHF Final Energy:  -251.44497488090894
    Total Energy =                       -251.4449748809087168
  Basis Set: CC-PVTZ
  Basis Set:
  Basis Set: CC-PVTZ
  Basis Set:
  @DF-RHF Final Energy:  -251.44497629801307
    Total Energy =                       -251.4449762980129890
  Basis Set: CC-PVTZ
  Basis Set:
  Charge       = 0
  Multiplicity = 1
  Basis Set: CC-PVTZ
  Basis Set:

    Orbital Energies (a.u.)
    -----------------------

    Doubly Occupied:

       1A    -15.526040     2A    -11.238204     3A    -11.211798
       4A    -11.210347     5A    -11.207875     6A    -11.205617
       7A     -1.177082     8A     -1.073963     9A     -0.998584
      10A     -0.900573    11A     -0.814122    12A     -0.789035
      13A     -0.669615    14A     -0.637699    15A     -0.620156
      16A     -0.584489    17A     -0.569873    18A     -0.549199
      19A     -0.527763    20A     -0.502884    21A     -0.482463
      22A     -0.464884    23A     -0.461355    24A     -0.447484
      25A     -0.383236

  @DF-RHF Final Energy:  -251.44497655324847

   => Energetics <=

    Nuclear Repulsion Energy =            246.0660861759359932
    One-Electron Energy =                -826.5134451786364025
    Two-Electron Energy =                 329.0023824494517726
    DFT Exchange-Correlation Energy =       0.0000000000000000
    Empirical Dispersion Energy =           0.0000000000000000
    PCM Polarization Energy =               0.0000000000000000
    EFP Energy =                            0.0000000000000000
    Total Energy =                       -251.4449765532486367
    Molecular point group: c1
  Basis Set: CC-PVTZ
  Basis Set:

  -Total Gradient:
     Atom            X                  Y                   Z
    ------   -----------------  -----------------  -----------------
       1       -0.000000552771    -0.000010770584     0.000004432455
       2       -0.000011986111     0.000033916393    -0.000001860018
       3       -0.004076657337     0.005388619978    -0.000463722818
       4       -0.000002956192     0.000004916318    -0.000018096724
       5        0.003711844366    -0.004937725403     0.002818452345
       6        0.002859030131    -0.003768374122    -0.000052065890
       7       -0.000005495284    -0.000022263657    -0.000003263420
       8        0.000007846930    -0.000002140714     0.000024995668
       9       -0.002467370173     0.003300689205    -0.002301396363
      10        0.000000289094     0.000013592069     0.000001949331
      11       -0.000007125363     0.000000513919    -0.000015104379
      12        0.000004862610    -0.000001302033    -0.000000359472
      13       -0.000006697906     0.000004127564     0.000004455782
      14       -0.000002216067    -0.000003300991     0.000006826938
      15        0.000000994498    -0.000006297256    -0.000002581056
      16       -0.000002333526     0.000004839069    -0.000001997257
      17        0.000000527900    -0.000002222017    -0.000001843373
      18       -0.000001327229     0.000001068399     0.000001731396
      19       -0.000000677567     0.000002113863    -0.000000553145

  **** Optimization is complete! (in 5 steps) ****
    Final optimized geometry and variables:
    Molecular point group: c1

    Geometry (in Angstrom), charge = 0, multiplicity = 1:

    H            3.849340331934     0.412268570837     0.428971528908
    N            3.029256559180    -0.152072898802     0.499154198118
    C            1.880149980781     0.514902294599    -0.098986780737
    H            2.874383085282    -0.328579178004     1.469757071334
    C            0.661202431642    -0.410488822949    -0.107276547048
    H            2.162471310971     0.746446642525    -1.119412070857
    H            1.630620010456     1.451631287153     0.397672532754
    C           -0.663626083516     0.349623307673    -0.081672440390
    H            0.684404538318    -1.021206227308    -1.003484562585
    H            0.711127595037    -1.082769285272     0.743305830770
    C           -1.885630493606    -0.559909368450    -0.168112737362
    H           -0.688341987046     1.059095223491    -0.906413849735
    H           -0.722429146549     0.942640304057     0.828185529257
    C           -3.205785403074     0.202680753519    -0.130218068872
    H           -1.833796699287    -1.144519017204    -1.082431983404
    H           -1.858868321998    -1.274268608785     0.650403742973
    H           -3.277765685878     0.901595636124    -0.957039884558
    H           -4.051762677125    -0.472111755564    -0.193776805788
    H           -3.304082913970     0.770052301632     0.789415318828

  Mulliken Charges: (a.u.)
   Center  Symbol    Alpha    Beta     Spin     Total
       1     H     0.42959  0.42959  0.00000  0.14083
       2     N     3.69091  3.69091  0.00000 -0.38182
       3     C     3.03094  3.03094  0.00000 -0.06188
       4     H     0.43078  0.43078  0.00000  0.13844
       5     C     3.08145  3.08145  0.00000 -0.16291
       6     H     0.45585  0.45585  0.00000  0.08830
       7     H     0.46591  0.46591  0.00000  0.06817
       8     C     3.09305  3.09305  0.00000 -0.18610
       9     H     0.45247  0.45247  0.00000  0.09507
      10     H     0.45468  0.45468  0.00000  0.09065
      11     C     3.08455  3.08455  0.00000 -0.16910
      12     H     0.45530  0.45530  0.00000  0.08939
      13     H     0.45676  0.45676  0.00000  0.08648
      14     C     3.14951  3.14951  0.00000 -0.29901
      15     H     0.45407  0.45407  0.00000  0.09186
      16     H     0.45463  0.45463  0.00000  0.09075
      17     H     0.45539  0.45539  0.00000  0.08922
      18     H     0.44855  0.44855  0.00000  0.10290
      19     H     0.45563  0.45563  0.00000  0.08874

   Total alpha = 25.00000, Total beta = 25.00000, Total charge = -0.00000
