  ==> Input File <==

--------------------------------------------------------------------------
set {
	reference rhf
	basis 6-31G*
}

set_num_threads( 4 )
memory 2 gb

molecule MOL {
0 1

H	 2.478176	 -2.187061	 -4.009260
C	 2.606641	 -1.169998	 -3.652044
C	 1.391359	 -0.709193	 -2.848351
H	 3.507153	 -1.143700	 -3.045639
H	 2.771154	 -0.533694	 -4.517406
C	 1.536880	 0.725042	 -2.334925
H	 1.241381	 -1.380434	 -2.008980
H	 0.500828	 -0.779734	 -3.470983
C	 0.327530	 1.220659	 -1.541764
H	 2.421403	 0.800492	 -1.712375
H	 1.687189	 1.391743	 -3.181068
C	 0.169600	 0.576866	 -0.172154
H	 0.413735	 2.292827	 -1.372070
H	 -0.590909	 1.085853	 -2.108750
C	 -1.181045	 0.701995	 0.511084
O	 1.075100	 0.008501	 0.360233
C	 -2.285934	 -0.139295	 -0.145128
H	 -1.449051	 1.751551	 0.493206
H	 -1.071135	 0.403303	 1.551943
C	 -3.651768	 0.085446	 0.506485
H	 -2.346596	 0.110469	 -1.202272
H	 -2.034737	 -1.195320	 -0.088721
C	 -4.759797	 -0.746382	 -0.137905
H	 -3.908762	 1.140117	 0.445781
H	 -3.588286	 -0.154158	 1.565709
H	 -4.868882	 -0.505166	 -1.191300
H	 -4.548009	 -1.809175	 -0.062213
H	 -5.715422	 -0.564821	 0.343442

	symmetry c1
}
set optking {
	frozen_dihedral = ("
		16 12 15 17
	")
}

ee = optimize('scf')
oeprop('DIPOLE', 'QUADRUPOLE', 'MULLIKEN_CHARGES')
f=open( 'psi4out.xyz', 'w' )
f.write( "28  " )
f.write( str(ee) + "\n" )
f.write( MOL.save_string_xyz() )
f.close()
--------------------------------------------------------------------------

    Molecular point group: c1
  Charge       = 0
  Multiplicity = 1
  Basis Set: 6-31G*
  Basis Set:
  @DF-RHF Final Energy:  -426.16853830922946
    Total Energy =                       -426.1685383092298025
    Molecular point group: c1
  Basis Set: 6-31G*
  Basis Set:
  Basis Set: 6-31G*
  Basis Set:
  @DF-RHF Final Energy:  -426.16731609943963
    Total Energy =                       -426.1673160994400860
  Basis Set: 6-31G*
  Basis Set:
  Basis Set: 6-31G*
  Basis Set:
  @DF-RHF Final Energy:  -426.16882478064588
    Total Energy =                       -426.1688247806459913
  Basis Set: 6-31G*
  Basis Set:
  Basis Set: 6-31G*
  Basis Set:
  @DF-RHF Final Energy:  -426.16905438123058
    Total Energy =                       -426.1690543812308078
  Basis Set: 6-31G*
  Basis Set:
  @DF-RHF Final Energy:  -426.16881470251269
    Total Energy =                       -426.1688147025128046
  @DF-RHF Final Energy:  -426.16914733344152
    Total Energy =                       -426.1691473334419697
  Basis Set: 6-31G*
  Basis Set:
  @DF-RHF Final Energy:  -426.16915677784493
    Total Energy =                       -426.1691567778449325
  Basis Set: 6-31G*
  Basis Set:
  Basis Set: 6-31G*
  Basis Set:
  @DF-RHF Final Energy:  -426.16915780461727
    Total Energy =                       -426.1691578046170434
  Basis Set: 6-31G*
  Basis Set:
  Basis Set: 6-31G*
  Basis Set:
  @DF-RHF Final Energy:  -426.16915991875589
    Total Energy =                       -426.1691599187563497
  Basis Set: 6-31G*
  Basis Set:
  Charge       = 0
  Multiplicity = 1
  Basis Set: 6-31G*
  Basis Set:

    Orbital Energies (a.u.)
    -----------------------

    Doubly Occupied:

       1A    -20.548106     2A    -11.322246     3A    -11.232071
       4A    -11.230037     5A    -11.228960     6A    -11.225894
       7A    -11.216167     8A    -11.216057     9A    -11.212019
      10A    -11.205549    11A     -1.393235    12A     -1.094650
      13A     -1.077347    14A     -1.022545    15A     -0.990883
      16A     -0.908183    17A     -0.871691    18A     -0.808441
      19A     -0.799985    20A     -0.723406    21A     -0.669701
      22A     -0.652974    23A     -0.625972    24A     -0.620310
      25A     -0.609368    26A     -0.589381    27A     -0.576218
      28A     -0.573079    29A     -0.546478    30A     -0.527704
      31A     -0.518895    32A     -0.507828    33A     -0.503989
      34A     -0.484486    35A     -0.477121    36A     -0.474297
      37A     -0.470317    38A     -0.465145    39A     -0.456126
      40A     -0.392357

  @DF-RHF Final Energy:  -426.16916028941591

   => Energetics <=

    Nuclear Repulsion Energy =            534.8654733335455376
    One-Electron Energy =               -1637.9308329758939635
    Two-Electron Energy =                 676.8961993529323991
    DFT Exchange-Correlation Energy =       0.0000000000000000
    Empirical Dispersion Energy =           0.0000000000000000
    PCM Polarization Energy =               0.0000000000000000
    EFP Energy =                            0.0000000000000000
    Total Energy =                       -426.1691602894161406
    Molecular point group: c1
  Basis Set: 6-31G*
  Basis Set:

  -Total Gradient:
     Atom            X                  Y                   Z
    ------   -----------------  -----------------  -----------------
       1       -0.000000128468     0.000000568945    -0.000001607051
       2       -0.000000907328    -0.000003593154    -0.000000434354
       3        0.000008138227     0.000001755024    -0.000033165607
       4       -0.000001570616    -0.000000585932     0.000000209664
       5        0.000000138838     0.000000990154     0.000000738136
       6       -0.000001276354     0.000010748831    -0.000003226074
       7       -0.000001978908    -0.000005945886     0.000009561362
       8        0.000000337180    -0.000001527311     0.000004183082
       9       -0.000003533315    -0.000014755282    -0.000017155653
      10       -0.000002648471    -0.000000097855     0.000000335674
      11        0.000000878400    -0.000002527196     0.000001213455
      12       -0.000842765125    -0.001569528345    -0.001207941299
      13        0.000002283304     0.000004924183     0.000005582132
      14        0.000010728638     0.000006939757     0.000002293984
      15        0.000560605540    -0.000671980147     0.001280281063
      16        0.000527226637     0.001384119869     0.000671496698
      17       -0.000236235122     0.000877288324    -0.000727711590
      18        0.000005741026    -0.000020396967    -0.000003980351
      19       -0.000011214943    -0.000001796190     0.000014152997
      20       -0.000010076130     0.000002523156    -0.000007166927
      21        0.000004388152     0.000004931737     0.000008005710
      22       -0.000007226486     0.000002595947    -0.000002172238
      23        0.000000185219    -0.000005580833     0.000008139691
      24        0.000000369400     0.000001332942    -0.000002146946
      25       -0.000002315063     0.000000982531     0.000000316503
      26       -0.000000152289     0.000003444131     0.000002277697
      27       -0.000000180169    -0.000002240190    -0.000003642929
      28        0.000001188222    -0.000002590245     0.000001563169

  **** Optimization is complete! (in 10 steps) ****
    Final optimized geometry and variables:
    Molecular point group: c1

    Geometry (in Angstrom), charge = 0, multiplicity = 1:

    H            3.099663504895    -2.199788124641    -3.048773577444
    C            3.200547615296    -1.185723759464    -2.674562010316
    C            1.949269581908    -0.751036859611    -1.912725011450
    H            4.076718578895    -1.155390925643    -2.033655913863
    H            3.389552968280    -0.536462950257    -3.525210592111
    C            2.055083302170     0.678647684652    -1.377167267641
    H            1.776315706657    -1.433887258894    -1.087412031413
    H            1.084245910281    -0.825660522177    -2.569924398541
    C            0.809328656819     1.146669737190    -0.625719045788
    H            2.914672821767     0.758336355999    -0.721015261215
    H            2.227710244159     1.357713941143    -2.209116970355
    C            0.614302075169     0.502717588763     0.738304924510
    H            0.865199489105     2.219617513271    -0.441707572600
    H           -0.081930394060     1.002171214545    -1.229859550580
    C           -0.727709700814     0.701990718195     1.422154799899
    O            1.494498089247    -0.094263204270     1.281782027282
    C           -1.865524594318    -0.106870268837     0.779787729116
    H           -0.982970086656     1.759741256956     1.398113826713
    H           -0.602871483479     0.410893373628     2.458086151055
    C           -3.184501941530     0.041045302121     1.541000212132
    H           -2.013404004980     0.205769117909    -0.250252440381
    H           -1.583933874407    -1.156987900453     0.748817490565
    C           -4.323680272917    -0.760788152921     0.913096509777
    H           -3.460648891034     1.092526680868     1.580893414490
    H           -3.041981967320    -0.277726783181     2.570617144210
    H           -4.514137652020    -0.440256778273    -0.107244571107
    H           -4.089472029200    -1.821062180275     0.888299854339
    H           -5.244105369320    -0.638500137791     1.475066999234

  Mulliken Charges: (a.u.)
   Center  Symbol    Alpha    Beta     Spin     Total
       1     H     0.41946  0.41946  0.00000  0.16107
       2     C     3.24011  3.24011  0.00000 -0.48022
       3     C     3.15612  3.15612  0.00000 -0.31224
       4     H     0.41832  0.41832  0.00000  0.16335
       5     H     0.42370  0.42370  0.00000  0.15261
       6     C     3.14910  3.14910  0.00000 -0.29819
       7     H     0.41009  0.41009  0.00000  0.17983
       8     H     0.42793  0.42793  0.00000  0.14414
       9     C     3.21244  3.21244  0.00000 -0.42488
      10     H     0.40700  0.40700  0.00000  0.18599
      11     H     0.42203  0.42203  0.00000  0.15594
      12     C     2.73229  2.73229  0.00000  0.53542
      13     H     0.40505  0.40505  0.00000  0.18989
      14     H     0.41029  0.41029  0.00000  0.17943
      15     C     3.20093  3.20093  0.00000 -0.40185
      16     O     4.26679  4.26679  0.00000 -0.53359
      17     C     3.16276  3.16276  0.00000 -0.32552
      18     H     0.41448  0.41448  0.00000  0.17104
      19     H     0.39956  0.39956  0.00000  0.20087
      20     C     3.15162  3.15162  0.00000 -0.30324
      21     H     0.41934  0.41934  0.00000  0.16131
      22     H     0.41254  0.41254  0.00000  0.17492
      23     C     3.24035  3.24035  0.00000 -0.48070
      24     H     0.42165  0.42165  0.00000  0.15671
      25     H     0.41845  0.41845  0.00000  0.16310
      26     H     0.42123  0.42123  0.00000  0.15755
      27     H     0.41939  0.41939  0.00000  0.16122
      28     H     0.41698  0.41698  0.00000  0.16604

   Total alpha = 40.00000, Total beta = 40.00000, Total charge =  0.00000
