                              Psi4 1.0.54 Driver

  ==> Input File <==

--------------------------------------------------------------------------
set {
	reference rhf
	basis cc-pvtz
}

set_num_threads( 4 )
memory 2 gb

molecule MOL {
0 1

H	 2.462485	 -2.216993	 0.000000
O	 2.777472	 -1.330706	 0.000000
C	 1.763288	 -0.447523	 0.000000
C	 0.484400	 -0.941357	 -0.213760
C	 1.956679	 0.902365	 0.201894
H	 0.356383	 -1.994349	 -0.368604
C	 -0.592207	 -0.084530	 -0.224493
H	 2.931766	 1.310475	 0.369075
C	 0.853619	 1.732864	 0.184597
H	 -1.576892	 -0.475167	 -0.390462
C	 -0.423251	 1.275338	 -0.024101
N	 1.066921	 3.168421	 0.400188
H	 -1.249379	 1.952244	 -0.029754
O	 2.180209	 3.537198	 0.578143
O	 0.115233	 3.873200	 0.383702

	symmetry c1
}
set optking {
	frozen_dihedral = ("
		4 3 2 1
	")
}

ee,wfn = optimize('scf', return_wfn=True)
oeprop( wfn, 'DIPOLE', 'QUADRUPOLE', 'MULLIKEN_CHARGES')
f=open( 'psi4out.xyz', 'w' )
f.write( "15  " )
f.write( str(ee) + "\n" )
f.write( MOL.save_string_xyz() )
f.close()
--------------------------------------------------------------------------

    Molecular point group: c1
  Charge       = 0
  Multiplicity = 1
  Basis Set: CC-PVTZ
  Basis Set:
  @DF-RHF Final Energy:  -509.21589330394426
    Total Energy =                       -509.2158933039440853
    Molecular point group: c1
  Basis Set: CC-PVTZ
  Basis Set:
  Basis Set: CC-PVTZ
  Basis Set:
  @DF-RHF Final Energy:  -509.21798067708073
    Total Energy =                       -509.2179806770805044
  Basis Set: CC-PVTZ
  Basis Set:
  Basis Set: CC-PVTZ
  Basis Set:
  @DF-RHF Final Energy:  -509.21631738193838
    Total Energy =                       -509.2163173819385520
  Basis Set: CC-PVTZ
  Basis Set:
  Basis Set: CC-PVTZ
  Basis Set:
  @DF-RHF Final Energy:  -509.21813682134677
    Total Energy =                       -509.2181368213472297
  Basis Set: CC-PVTZ
  Basis Set:
  Basis Set: CC-PVTZ
  Basis Set:
  @DF-RHF Final Energy:  -509.21819706216257
    Total Energy =                       -509.2181970621622895
  Basis Set: CC-PVTZ
  Basis Set:
  Basis Set: CC-PVTZ
  Basis Set:
  @DF-RHF Final Energy:  -509.21820938652701
    Total Energy =                       -509.2182093865271781
  Basis Set: CC-PVTZ
  Basis Set:
  Charge       = 0
  Multiplicity = 1
  Basis Set: CC-PVTZ
  Basis Set:

    Orbital Energies (a.u.)
    -----------------------

    Doubly Occupied:

       1A    -20.608209     2A    -20.592277     3A    -20.592065
       4A    -15.847920     5A    -11.327654     6A    -11.307569
       7A    -11.264702     8A    -11.261381     9A    -11.258953
      10A    -11.257248    11A     -1.641885    12A     -1.440834
      13A     -1.424336    14A     -1.201839    15A     -1.094400
      16A     -1.049320    17A     -0.964921    18A     -0.866298
      19A     -0.851486    20A     -0.800435    21A     -0.741065
      22A     -0.738003    23A     -0.721808    24A     -0.712500
      25A     -0.682381    26A     -0.636687    27A     -0.623076
      28A     -0.598666    29A     -0.566948    30A     -0.539721
      31A     -0.519735    32A     -0.492210    33A     -0.491695
      34A     -0.457401    35A     -0.381299    36A     -0.345475

  @DF-RHF Final Energy:  -509.21821125993768

   => Energetics <=

    Nuclear Repulsion Energy =            504.6215554174668796
    One-Electron Energy =               -1695.8747259315200608
    Two-Electron Energy =                 682.0349592541156198
    DFT Exchange-Correlation Energy =       0.0000000000000000
    Empirical Dispersion Energy =           0.0000000000000000
    PCM Polarization Energy =               0.0000000000000000
    EFP Energy =                            0.0000000000000000
    Total Energy =                       -509.2182112599375614
    Molecular point group: c1
  Basis Set: CC-PVTZ
  Basis Set:

  -Total Gradient:
     Atom            X                  Y                   Z
    ------   -----------------  -----------------  -----------------
       1        0.000003680951     0.000008110658     0.000826637445
       2        0.000001346093     0.000121763781    -0.001368132223
       3       -0.000004957789    -0.000177233567     0.001163787333
       4       -0.000035590023     0.000133173098    -0.000616057252
       5        0.000043253662    -0.000053771282    -0.000004841688
       6       -0.000005113523    -0.000000772820     0.000000703652
       7        0.000030223232    -0.000128837473    -0.000017344920
       8        0.000001804774    -0.000033850852    -0.000002753913
       9       -0.000119026240     0.000042049839    -0.000003660868
      10       -0.000011839158     0.000016397661     0.000002050147
      11        0.000097973206     0.000075462030     0.000021664166
      12        0.000106496182     0.000126646494     0.000024951624
      13       -0.000009434214    -0.000024498067    -0.000004343921
      14       -0.000123755295    -0.000070085123    -0.000022193085
      15        0.000024938144    -0.000034554374    -0.000000466495

  **** Optimization is complete! (in 7 steps) ****
    Final optimized geometry and variables:
    Molecular point group: c1

    Geometry (in Angstrom), charge = 0, multiplicity = 1:

    H            1.516038641431    -3.392675249921    -0.135515120032
    O            1.758031435412    -2.484060377788    -0.129532786728
    C            0.674683483640    -1.686387855431    -0.138661226947
    C           -0.604803096286    -2.164136080085    -0.356557961943
    C            0.883043129417    -0.333988859858     0.062461199630
    H           -0.763630717013    -3.214233198034    -0.519620059506
    C           -1.678392413153    -1.293959644301    -0.366324904399
    H            1.868673563288     0.042738419118     0.228907601920
    C           -0.207151883984     0.502869806179     0.041641077731
    H           -2.666053793819    -1.676220279948    -0.534126015219
    C           -1.494985353558     0.057765177743    -0.167524076778
    N            0.016413044836     1.938485355073     0.255723284449
    H           -2.312844237360     0.744368505860    -0.174048230214
    O            1.130327054084     2.300985891165     0.432709764308
    O           -0.932880276383     2.647856258604     0.238367469222

  Mulliken Charges: (a.u.)
   Center  Symbol    Alpha    Beta     Spin     Total
       1     H     0.38604  0.38604  0.00000  0.22791
       2     O     4.16716  4.16716  0.00000 -0.33431
       3     C     2.84901  2.84901  0.00000  0.30197
       4     C     3.12084  3.12084  0.00000 -0.24169
       5     C     3.10790  3.10790  0.00000 -0.21579
       6     H     0.42824  0.42824  0.00000  0.14352
       7     C     3.06277  3.06277  0.00000 -0.12554
       8     H     0.39432  0.39432  0.00000  0.21135
       9     C     2.96887  2.96887  0.00000  0.06225
      10     H     0.41599  0.41599  0.00000  0.16801
      11     C     3.09744  3.09744  0.00000 -0.19488
      12     N     3.25118  3.25118  0.00000  0.49764
      13     H     0.39951  0.39951  0.00000  0.20098
      14     O     4.17460  4.17460  0.00000 -0.34920
      15     O     4.17612  4.17612  0.00000 -0.35224

   Total alpha = 36.00000, Total beta = 36.00000, Total charge =  0.00000

*** Psi4 exiting successfully. Buy a developer a beer!
