                              Psi4 1.0.54 Driver

  ==> Input File <==

--------------------------------------------------------------------------
set {
	reference rhf
	basis cc-pvtz
}

set_num_threads( 4 )
memory 2 gb

molecule MOL {
0 1

H	 -3.162190	 0.493205	 -0.000107
C	 -2.363908	 -0.234727	 0.000005
O	 -1.158738	 0.454634	 -0.000087
H	 -2.464314	 -0.863616	 -0.882153
H	 -2.464327	 -0.863359	 0.882345
C	 -0.028611	 -0.359694	 0.000037
C	 1.212847	 0.509314	 -0.000053
H	 -0.034155	 -1.007047	 -0.877198
H	 -0.034195	 -1.006836	 0.877430
C	 1.205265	 1.535461	 -1.127579
H	 1.284606	 1.009243	 0.959555
H	 2.083289	 -0.131904	 -0.084440
H	 0.354301	 2.203781	 -1.048240
H	 2.102301	 2.141918	 -1.103968
H	 1.158625	 1.055010	 -2.099207

	symmetry c1
}
set optking {
	frozen_dihedral = ("
		11 7 6 8
	")
}

ee,wfn = optimize('scf', return_wfn=True)
oeprop( wfn, 'DIPOLE', 'QUADRUPOLE', 'MULLIKEN_CHARGES')
f=open( 'psi4out.xyz', 'w' )
f.write( "15  " )
f.write( str(ee) + "\n" )
f.write( MOL.save_string_xyz() )
f.close()
--------------------------------------------------------------------------

    Molecular point group: c1
  Charge       = 0
  Multiplicity = 1
  Basis Set: CC-PVTZ
  Basis Set:
  @DF-RHF Final Energy:  -232.22747943030916
    Total Energy =                       -232.2274794303091312
    Molecular point group: c1
  Basis Set: CC-PVTZ
  Basis Set:
  Basis Set: CC-PVTZ
  Basis Set:
  @DF-RHF Final Energy:  -232.22771168199537
    Total Energy =                       -232.2277116819952880
  Basis Set: CC-PVTZ
  Basis Set:
  Basis Set: CC-PVTZ
  Basis Set:
  @DF-RHF Final Energy:  -232.22780549844947
    Total Energy =                       -232.2278054984494702
  Basis Set: CC-PVTZ
  Basis Set:
  Basis Set: CC-PVTZ
  Basis Set:
  @DF-RHF Final Energy:  -232.22780715250747
    Total Energy =                       -232.2278071525075234
  Basis Set: CC-PVTZ
  Basis Set:
  Charge       = 0
  Multiplicity = 1
  Basis Set: CC-PVTZ
  Basis Set:

    Orbital Energies (a.u.)
    -----------------------

    Doubly Occupied:

       1A    -20.548482     2A    -11.264895     3A    -11.262525
       4A    -11.213804     5A    -11.201598     6A     -1.382976
       7A     -1.054922     8A     -0.951379     9A     -0.888320
      10A     -0.798234    11A     -0.672573    12A     -0.662907
      13A     -0.635494    14A     -0.594882    15A     -0.563790
      16A     -0.546087    17A     -0.502880    18A     -0.485060
      19A     -0.477340    20A     -0.460403    21A     -0.416109

  @DF-RHF Final Energy:  -232.22780727243713

   => Energetics <=

    Nuclear Repulsion Energy =            193.1495314205248519
    One-Electron Energy =                -697.5853558466349114
    Two-Electron Energy =                 272.2080171536728699
    DFT Exchange-Correlation Energy =       0.0000000000000000
    Empirical Dispersion Energy =           0.0000000000000000
    PCM Polarization Energy =               0.0000000000000000
    EFP Energy =                            0.0000000000000000
    Total Energy =                       -232.2278072724371896
    Molecular point group: c1
  Basis Set: CC-PVTZ
  Basis Set:

  -Total Gradient:
     Atom            X                  Y                   Z
    ------   -----------------  -----------------  -----------------
       1        0.000004512040     0.000003197323     0.000000043739
       2        0.000005583790    -0.000011182055    -0.000000637551
       3       -0.000012536494     0.000021608759     0.000002163330
       4       -0.000003637991    -0.000001381592    -0.000002832006
       5       -0.000000951748     0.000001986969     0.000000754550
       6       -0.001094646597     0.001587409352    -0.001266580016
       7       -0.001242344099     0.001759195243    -0.000701935126
       8        0.001120127192    -0.001614394935     0.001167334657
       9       -0.000005780266     0.000003882220     0.000001082759
      10        0.000013006485    -0.000004847674    -0.000007129464
      11        0.001221916468    -0.001755279782     0.000812585562
      12        0.000004697516     0.000002706212    -0.000001088226
      13       -0.000003522157     0.000003471855     0.000002754516
      14       -0.000005443363    -0.000000414806    -0.000002023180
      15       -0.000000980772     0.000004042910    -0.000004493544

  **** Optimization is complete! (in 5 steps) ****
    Final optimized geometry and variables:
    Molecular point group: c1

    Geometry (in Angstrom), charge = 0, multiplicity = 1:

    H           -2.924739122191     0.072201377821     0.257153713410
    C           -2.112412230586    -0.639804378522     0.234577514288
    O           -0.920628042214     0.071967098597     0.238920460262
    H           -2.208395653782    -1.251485216791    -0.660055711737
    H           -2.192491993757    -1.289181919226     1.103932688260
    C            0.224233654643    -0.720357478447     0.211761771642
    C            1.464906115255     0.153066932181     0.228433645179
    H            0.226318861989    -1.358421253888    -0.672808994688
    H            0.235536662653    -1.384203161139     1.075916309733
    C            1.516550414069     1.175895499581    -0.900355163382
    H            1.535534542378     0.646549311047     1.192192663911
    H            2.325551277134    -0.507237265699     0.163630065700
    H            0.688046446300     1.867762035792    -0.836454401674
    H            2.438274039610     1.744776348932    -0.860269754823
    H            1.469926758340     0.688555874160    -1.869108668995

  Mulliken Charges: (a.u.)
   Center  Symbol    Alpha    Beta     Spin     Total
       1     H     0.44724  0.44724  0.00000  0.10551
       2     C     3.03124  3.03124  0.00000 -0.06248
       3     O     4.17416  4.17416  0.00000 -0.34831
       4     H     0.47200  0.47200  0.00000  0.05600
       5     H     0.47146  0.47146  0.00000  0.05708
       6     C     2.97203  2.97203  0.00000  0.05594
       7     C     3.08134  3.08134  0.00000 -0.16269
       8     H     0.47281  0.47281  0.00000  0.05437
       9     H     0.46642  0.46642  0.00000  0.06717
      10     C     3.14732  3.14732  0.00000 -0.29463
      11     H     0.45286  0.45286  0.00000  0.09429
      12     H     0.45641  0.45641  0.00000  0.08718
      13     H     0.44496  0.44496  0.00000  0.11007
      14     H     0.45113  0.45113  0.00000  0.09775
      15     H     0.45863  0.45863  0.00000  0.08275

   Total alpha = 21.00000, Total beta = 21.00000, Total charge = -0.00000

*** Psi4 exiting successfully. Buy a developer a beer!
