  ==> Input File <==

--------------------------------------------------------------------------
set {
	reference rhf
	basis cc-pvtz
}

set_num_threads( 4 )
memory 2 gb

molecule MOL {
0 1

O	 -2.817697	 1.304178	 0.001046
C	 -2.664672	 0.129869	 0.003507
C	 -3.797908	 -0.860100	 -0.001145
O	 -1.481217	 -0.452708	 0.001092
H	 -4.408836	 -0.679689	 -0.875387
H	 -3.443486	 -1.878443	 -0.002770
H	 -4.412123	 -0.683688	 0.871605
C	 -0.332055	 0.384012	 -0.000250
C	 0.892252	 -0.506059	 -0.000295
H	 -0.360822	 1.020205	 -0.874146
H	 -0.359817	 1.021310	 0.872861
C	 1.235523	 -1.010877	 -1.398753
H	 0.716729	 -1.345866	 0.664224
H	 1.730278	 0.048183	 0.409818
C	 2.467904	 -1.910735	 -1.423613
H	 0.387364	 -1.555712	 -1.805888
H	 1.398767	 -0.163567	 -2.060109
C	 2.811972	 -2.414453	 -2.821072
H	 2.305293	 -2.758739	 -0.764444
H	 3.316164	 -1.367302	 -1.017136
H	 1.995168	 -2.991635	 -3.241236
H	 3.690245	 -3.049153	 -2.803775
H	 3.013554	 -1.589390	 -3.495972

	symmetry c1
}
set optking {
	frozen_dihedral = ("
		13 9 8 10
	")
}

ee = optimize('scf')
oeprop('DIPOLE', 'QUADRUPOLE', 'MULLIKEN_CHARGES')
f=open( 'psi4out.xyz', 'w' )
f.write( "23  " )
f.write( str(ee) + "\n" )
f.write( MOL.save_string_xyz() )
f.close()
--------------------------------------------------------------------------

    Molecular point group: c1
  Charge       = 0
  Multiplicity = 1
  Basis Set: CC-PVTZ
  Basis Set:
  @DF-RHF Final Energy:  -423.13317334828815
    Total Energy =                       -423.1331733482880963
    Molecular point group: c1
  Basis Set: CC-PVTZ
  Basis Set:
  Basis Set: CC-PVTZ
  Basis Set:
  @DF-RHF Final Energy:  -423.13318034242229
    Total Energy =                       -423.1331803424227473
  Basis Set: CC-PVTZ
  Basis Set:
  Basis Set: CC-PVTZ
  Basis Set:
  @DF-RHF Final Energy:  -423.13335274916517
    Total Energy =                       -423.1333527491647146
  Basis Set: CC-PVTZ
  Basis Set:
  Basis Set: CC-PVTZ
  Basis Set:
  @DF-RHF Final Energy:  -423.13345733995254
    Total Energy =                       -423.1334573399526562
  Basis Set: CC-PVTZ
  Basis Set:
  Basis Set: CC-PVTZ
  Basis Set:
  @DF-RHF Final Energy:  -423.13348045884015
    Total Energy =                       -423.1334804588404950
  Basis Set: CC-PVTZ
  Basis Set:
  Basis Set: CC-PVTZ
  Basis Set:
  @DF-RHF Final Energy:  -423.13348307175312
    Total Energy =                       -423.1334830717537443
  Basis Set: CC-PVTZ
  Basis Set:
  Charge       = 0
  Multiplicity = 1
  Basis Set: CC-PVTZ
  Basis Set:

    Orbital Energies (a.u.)
    -----------------------

    Doubly Occupied:

       1A    -20.595761     2A    -20.529501     3A    -11.366390
       4A    -11.280281     5A    -11.230943     6A    -11.223095
       7A    -11.217896     8A    -11.217133     9A    -11.209838
      10A     -1.470799    11A     -1.363739    12A     -1.093307
      13A     -1.042381    14A     -1.003453    15A     -0.931550
      16A     -0.843236    17A     -0.800074    18A     -0.780812
      19A     -0.690933    20A     -0.685379    21A     -0.669354
      22A     -0.644991    23A     -0.609362    24A     -0.585356
      25A     -0.578483    26A     -0.575840    27A     -0.559742
      28A     -0.534407    29A     -0.529800    30A     -0.507184
      31A     -0.498027    32A     -0.474326    33A     -0.470542
      34A     -0.463789    35A     -0.448506    36A     -0.440422

  @DF-RHF Final Energy:  -423.13348350992891

   => Energetics <=

    Nuclear Repulsion Energy =            457.6786668041526696
    One-Electron Energy =               -1483.2910295750241403
    Two-Electron Energy =                 602.4788792609431312
    DFT Exchange-Correlation Energy =       0.0000000000000000
    Empirical Dispersion Energy =           0.0000000000000000
    PCM Polarization Energy =               0.0000000000000000
    EFP Energy =                            0.0000000000000000
    Total Energy =                       -423.1334835099282827
    Molecular point group: c1
  Basis Set: CC-PVTZ
  Basis Set:

  -Total Gradient:
     Atom            X                  Y                   Z
    ------   -----------------  -----------------  -----------------
       1       -0.000006010874    -0.000008194251     0.000003375485
       2       -0.000005755205     0.000024847502    -0.000016246517
       3        0.000004381316    -0.000000394025    -0.000004574740
       4        0.000012316318    -0.000015731856     0.000007700276
       5       -0.000001137346     0.000003978421     0.000004645009
       6        0.000001632984     0.000002024236     0.000000765053
       7        0.000000439839    -0.000003434109     0.000005056651
       8        0.001999882672     0.002755833112     0.001613416689
       9        0.001193539733     0.001547554050     0.002789328595
      10       -0.001834607185    -0.002512356149    -0.001752983584
      11        0.000002153896     0.000000671938    -0.000000382235
      12        0.000002561470     0.000008491041    -0.000011024337
      13       -0.001361143940    -0.001804148317    -0.002652901922
      14        0.000000849901     0.000001626984     0.000000685997
      15       -0.000001476068    -0.000001302497     0.000008447904
      16       -0.000000295161    -0.000000815386    -0.000006603420
      17       -0.000001312344     0.000004749607     0.000007877937
      18       -0.000007131185    -0.000001513082     0.000000932654
      19        0.000004951051    -0.000002776684     0.000004237285
      20       -0.000001049392     0.000001441114    -0.000003441388
      21       -0.000000571827    -0.000001315278    -0.000002581639
      22       -0.000002415273     0.000000272731     0.000002851393
      23        0.000000196616     0.000000490901     0.000001418854

  **** Optimization is complete! (in 7 steps) ****
    Final optimized geometry and variables:
    Molecular point group: c1

    Geometry (in Angstrom), charge = 0, multiplicity = 1:

    O           -2.400792405997     1.881217623153     0.630892449324
    C           -2.231345879370     0.708997142351     0.626461405834
    C           -3.351776964884    -0.295701698991     0.606660380064
    O           -1.040482186455     0.142961916391     0.639677450304
    H           -3.954126516711    -0.121701823821    -0.274889731171
    H           -2.984639180212    -1.309602866358     0.608017042731
    H           -3.978938278046    -0.128465927640     1.472036085022
    C            0.100087612729     0.998504318785     0.658912062618
    C            1.336646123767     0.119673127408     0.621851010089
    H            0.043369912737     1.645247745147    -0.205383016865
    H            0.062046716298     1.607140926198     1.550205982592
    C            1.669846789986    -0.401585680219    -0.774784501184
    H            1.173706256436    -0.725099290954     1.282478913488
    H            2.175858131277     0.686416774763     1.011934206410
    C            2.878425349034    -1.332492178477    -0.794262968685
    H            0.806717952479    -0.924198860666    -1.176507803685
    H            1.855332900677     0.440967273161    -1.436664231977
    C            3.216164798498    -1.844885127700    -2.190228380793
    H            2.691053213963    -2.176694091278    -0.136442814628
    H            3.739689785179    -0.812235482642    -0.383532732987
    H            2.385673883221    -2.398972537404    -2.614768542253
    H            4.076617266905    -2.503590007190    -2.169028768837
    H            3.443687331096    -1.025296220124    -2.863663738144

  Mulliken Charges: (a.u.)
   Center  Symbol    Alpha    Beta     Spin     Total
       1     O     4.20286  4.20286  0.00000 -0.40572
       2     C     2.81329  2.81329  0.00000  0.37342
       3     C     3.13968  3.13968  0.00000 -0.27936
       4     O     4.14963  4.14963  0.00000 -0.29926
       5     H     0.44206  0.44206  0.00000  0.11589
       6     H     0.44239  0.44239  0.00000  0.11523
       7     H     0.44170  0.44170  0.00000  0.11660
       8     C     2.98898  2.98898  0.00000  0.02204
       9     C     3.08732  3.08732  0.00000 -0.17464
      10     H     0.45248  0.45248  0.00000  0.09504
      11     H     0.44399  0.44399  0.00000  0.11201
      12     C     3.08967  3.08967  0.00000 -0.17935
      13     H     0.45099  0.45099  0.00000  0.09802
      14     H     0.44927  0.44927  0.00000  0.10145
      15     C     3.08567  3.08567  0.00000 -0.17134
      16     H     0.45008  0.45008  0.00000  0.09985
      17     H     0.45454  0.45454  0.00000  0.09092
      18     C     3.14962  3.14962  0.00000 -0.29924
      19     H     0.45352  0.45352  0.00000  0.09295
      20     H     0.45478  0.45478  0.00000  0.09044
      21     H     0.45476  0.45476  0.00000  0.09048
      22     H     0.44797  0.44797  0.00000  0.10406
      23     H     0.45474  0.45474  0.00000  0.09051

   Total alpha = 36.00000, Total beta = 36.00000, Total charge = -0.00000
