  ==> Input File <==

--------------------------------------------------------------------------
set {
	reference rhf
	basis 6-31G*
}

set_num_threads( 4 )
memory 2 gb

molecule MOL {
0 1

O	 3.225979	 0.970355	 -0.599647
C	 2.701189	 0.057885	 -0.047330
C	 1.245376	 -0.013843	 0.345420
O	 3.347903	 -1.046386	 0.304773
C	 0.455112	 1.231400	 -0.050772
H	 0.838542	 -0.913825	 -0.103701
H	 1.208210	 -0.175333	 1.419774
C	 -0.998893	 1.219485	 0.433193
H	 0.482531	 1.345121	 -1.130325
H	 0.957290	 2.103070	 0.354729
C	 -1.883438	 0.145884	 -0.207175
H	 -1.431207	 2.195402	 0.224832
H	 -1.019646	 1.105716	 1.516076
C	 -2.975763	 -0.364606	 0.734752
H	 -2.344834	 0.551997	 -1.106066
H	 -1.275974	 -0.696735	 -0.529594
C	 -3.862576	 -1.441590	 0.107218
H	 -3.596946	 0.471360	 1.051812
H	 -2.515568	 -0.761069	 1.638487
C	 -4.953196	 -1.943261	 1.053038
H	 -4.322438	 -1.047409	 -0.796547
H	 -3.243984	 -2.279904	 -0.206396
H	 -5.564736	 -2.705357	 0.579925
H	 -5.610626	 -1.133844	 1.357709
H	 -4.523783	 -2.375248	 1.952630
C	 4.728119	 -1.109107	 -0.004993
H	 4.882018	 -1.033965	 -1.071845
H	 5.068212	 -2.067527	 0.355250
H	 5.265056	 -0.311663	 0.488280

	symmetry c1
}
set optking {
	frozen_dihedral = ("
		15 11 8 5
	")
}

ee = optimize('scf')
oeprop('DIPOLE', 'QUADRUPOLE', 'MULLIKEN_CHARGES')
f=open( 'psi4out.xyz', 'w' )
f.write( "29  " )
f.write( str(ee) + "\n" )
f.write( MOL.save_string_xyz() )
f.close()
--------------------------------------------------------------------------

    Molecular point group: c1
  Charge       = 0
  Multiplicity = 1
  Basis Set: 6-31G*
  Basis Set:
  @DF-RHF Final Energy:  -501.04052805147785
    Total Energy =                       -501.0405280514781907
    Molecular point group: c1
  Basis Set: 6-31G*
  Basis Set:
  Basis Set: 6-31G*
  Basis Set:
  @DF-RHF Final Energy:  -501.04081089600675
    Total Energy =                       -501.0408108960068603
  Basis Set: 6-31G*
  Basis Set:
  Basis Set: 6-31G*
  Basis Set:
  @DF-RHF Final Energy:  -501.04105407563497
    Total Energy =                       -501.0410540756348610
  Basis Set: 6-31G*
  Basis Set:
  Basis Set: 6-31G*
  Basis Set:
  @DF-RHF Final Energy:  -501.04106737674226
    Total Energy =                       -501.0410673767423759
  Basis Set: 6-31G*
  Basis Set:
  @DF-RHF Final Energy:  -501.04106162541268
    Total Energy =                       -501.0410616254123397
  @DF-RHF Final Energy:  -501.04107216526654
    Total Energy =                       -501.0410721652666552
  @DF-RHF Final Energy:  -501.04090376017837
    Total Energy =                       -501.0409037601784803
  Basis Set: 6-31G*
  Basis Set:
  @DF-RHF Final Energy:  -501.04070398477938
    Total Energy =                       -501.0407039847791566
  Basis Set: 6-31G*
  Basis Set:
  Basis Set: 6-31G*
  Basis Set:
  @DF-RHF Final Energy:  -501.04103690962813
    Total Energy =                       -501.0410369096272234
  Basis Set: 6-31G*
  Basis Set:
  Basis Set: 6-31G*
  Basis Set:
  @DF-RHF Final Energy:  -501.04107356907480
    Total Energy =                       -501.0410735690744559
  Basis Set: 6-31G*
  Basis Set:
  Charge       = 0
  Multiplicity = 1
  Basis Set: 6-31G*
  Basis Set:

    Orbital Energies (a.u.)
    -----------------------

    Doubly Occupied:

       1A    -20.603533     2A    -20.545343     3A    -11.372227
       4A    -11.280790     5A    -11.235158     6A    -11.219295
       7A    -11.217556     8A    -11.215870     9A    -11.215727
      10A    -11.214590    11A    -11.209196    12A     -1.469250
      13A     -1.362677    14A     -1.097462    15A     -1.066893
      16A     -1.018883    17A     -0.977214    18A     -0.928573
      19A     -0.860699    20A     -0.800065    21A     -0.790359
      22A     -0.764831    23A     -0.701729    24A     -0.682451
      25A     -0.672126    26A     -0.648476    27A     -0.629448
      28A     -0.604904    29A     -0.596373    30A     -0.578612
      31A     -0.565812    32A     -0.553034    33A     -0.533735
      34A     -0.528576    35A     -0.513742    36A     -0.507377
      37A     -0.502358    38A     -0.476337    39A     -0.472002
      40A     -0.461379    41A     -0.459180    42A     -0.455672
      43A     -0.439255    44A     -0.435596

  @DF-RHF Final Energy:  -501.04107345912962

   => Energetics <=

    Nuclear Repulsion Energy =            613.1178720900086319
    One-Electron Energy =               -1897.3491608216504574
    Two-Electron Energy =                 783.1902152725119777
    DFT Exchange-Correlation Energy =       0.0000000000000000
    Empirical Dispersion Energy =           0.0000000000000000
    PCM Polarization Energy =               0.0000000000000000
    EFP Energy =                            0.0000000000000000
    Total Energy =                       -501.0410734591298478
    Molecular point group: c1
  Basis Set: 6-31G*
  Basis Set:

  -Total Gradient:
     Atom            X                  Y                   Z
    ------   -----------------  -----------------  -----------------
       1        0.000032936815    -0.000079315458     0.000042471361
       2       -0.000044754276     0.000040570936    -0.000012112601
       3       -0.000016807603     0.000018198553    -0.000001368617
       4        0.000013359793     0.000052137342    -0.000042464120
       5        0.000747848867    -0.001826522873     0.002031112926
       6        0.000014564841     0.000005315164    -0.000000524738
       7       -0.000006173407     0.000001539881     0.000004169918
       8       -0.001684253142     0.002822997820    -0.002300189820
       9       -0.000003038203    -0.000026265374    -0.000015224310
      10       -0.000009098697    -0.000001140728    -0.000016948528
      11        0.003840501382    -0.002115492737    -0.001836102500
      12       -0.000017266916    -0.000024811533     0.000010621567
      13        0.000018765874    -0.000027066981     0.000003780845
      14       -0.000023672238     0.000053624088    -0.000010099907
      15       -0.002893313697     0.001124246764     0.002116629077
      16       -0.000003262701     0.000015572612     0.000000174421
      17        0.000014515669    -0.000021257155     0.000011763639
      18       -0.000011513876     0.000014421532    -0.000003797749
      19       -0.000009028176     0.000014125371     0.000008354538
      20        0.000011509109    -0.000018935436     0.000005191309
      21        0.000004612830     0.000008672763     0.000019001712
      22       -0.000003094379    -0.000009247783    -0.000016083886
      23        0.000000344397    -0.000004104238     0.000002069485
      24        0.000005949726     0.000001225442    -0.000005764575
      25       -0.000004256265    -0.000001766172     0.000004369483
      26       -0.000000511776    -0.000020309042     0.000010357873
      27        0.000002525139     0.000000340820    -0.000002407576
      28        0.000020565765     0.000001120918    -0.000007104753
      29        0.000002045130     0.000002125506     0.000000125529

  **** Optimization is complete! (in 11 steps) ****
    Final optimized geometry and variables:
    Molecular point group: c1

    Geometry (in Angstrom), charge = 0, multiplicity = 1:

    O            3.048700257464     1.123231838804    -0.947930902323
    C            2.579233601001     0.286333102932    -0.246433152672
    C            1.155718467768     0.254979874475     0.254846224220
    O            3.267991189910    -0.756879348155     0.199545782188
    C            0.318761668010     1.433864441030    -0.236294706226
    H            0.732831744813    -0.699062123585    -0.043061378997
    H            1.196559910648     0.233537230030     1.340677884802
    C           -1.125315308434     1.403967486592     0.279194866480
    H            0.326851913916     1.455360828199    -1.321935057880
    H            0.797930176290     2.352901367353     0.084017533959
    C           -2.021107110090     0.338372937755    -0.377860665709
    H           -1.574275921242     2.382175700665     0.134276587834
    H           -1.103319971263     1.244693079215     1.356182248841
    C           -3.119139537637    -0.177240621466     0.556826084212
    H           -2.500056598534     0.769476085050    -1.254038218917
    H           -1.429452161238    -0.503392525316    -0.727279662907
    C           -4.063492165750    -1.178723954313    -0.109736598375
    H           -3.696768807736     0.666459150277     0.931899128026
    H           -2.660154569072    -0.641302626270     1.428444868018
    C           -5.146825956151    -1.698856347066     0.834566387341
    H           -4.531991323024    -0.711834367927    -0.973486409136
    H           -3.486334087426    -2.017777807355    -0.493132420132
    H           -5.800484630015    -2.405644419589     0.332788938028
    H           -5.763387030682    -0.886478877176     1.208890071853
    H           -4.710513048027    -2.203363253210     1.692105502250
    C            4.624634909105    -0.847707360133    -0.195804673434
    H            4.703588701161    -0.911228656822    -1.271558510668
    H            5.005626943133    -1.747867788520     0.260863068031
    H            5.179913813425     0.011956739015     0.150860914521

  Mulliken Charges: (a.u.)
   Center  Symbol    Alpha    Beta     Spin     Total
       1     O     4.28576  4.28576  0.00000 -0.57153
       2     C     2.60516  2.60516  0.00000  0.78968
       3     C     3.20866  3.20866  0.00000 -0.41732
       4     O     4.30744  4.30744  0.00000 -0.61488
       5     C     3.15475  3.15475  0.00000 -0.30950
       6     H     0.39985  0.39985  0.00000  0.20030
       7     H     0.40085  0.40085  0.00000  0.19829
       8     C     3.15881  3.15881  0.00000 -0.31761
       9     H     0.41163  0.41163  0.00000  0.17674
      10     H     0.41040  0.41040  0.00000  0.17920
      11     C     3.15486  3.15486  0.00000 -0.30971
      12     H     0.41602  0.41602  0.00000  0.16796
      13     H     0.42347  0.42347  0.00000  0.15306
      14     C     3.15200  3.15200  0.00000 -0.30400
      15     H     0.42013  0.42013  0.00000  0.15973
      16     H     0.42328  0.42328  0.00000  0.15344
      17     C     3.15173  3.15173  0.00000 -0.30346
      18     H     0.42330  0.42330  0.00000  0.15340
      19     H     0.42465  0.42465  0.00000  0.15071
      20     C     3.23924  3.23924  0.00000 -0.47847
      21     H     0.42272  0.42272  0.00000  0.15456
      22     H     0.42350  0.42350  0.00000  0.15301
      23     H     0.41919  0.41919  0.00000  0.16162
      24     H     0.42164  0.42164  0.00000  0.15672
      25     H     0.42192  0.42192  0.00000  0.15615
      26     C     3.09240  3.09240  0.00000 -0.18480
      27     H     0.40906  0.40906  0.00000  0.18187
      28     H     0.40850  0.40850  0.00000  0.18301
      29     H     0.40908  0.40908  0.00000  0.18183

   Total alpha = 44.00000, Total beta = 44.00000, Total charge = -0.00000
