                              Psi4 1.0.54 Driver

  ==> Input File <==

--------------------------------------------------------------------------
set {
	reference rhf
	basis cc-pvtz
}

set_num_threads( 4 )
memory 2 gb

molecule MOL {
0 1

H	 -3.258660	 -0.290394	 1.471450
C	 -3.307964	 -0.275695	 0.374072
C	 -2.653809	 0.914422	 -0.273689
O	 -3.855140	 -1.148880	 -0.205112
C	 -1.216901	 1.136108	 0.207794
H	 -2.700131	 0.790676	 -1.347875
H	 -3.256452	 1.781007	 -0.010713
C	 -0.247837	 0.040196	 -0.230469
H	 -0.872882	 2.093195	 -0.169002
H	 -1.209325	 1.218376	 1.291938
C	 1.181757	 0.280428	 0.247371
H	 -0.259600	 -0.030819	 -1.314870
H	 -0.591284	 -0.923375	 0.136958
C	 2.151032	 -0.811012	 -0.202643
H	 1.515939	 1.247397	 -0.115449
H	 1.191514	 0.341223	 1.333422
C	 3.580021	 -0.656538	 0.320835
H	 2.170545	 -0.847575	 -1.289412
H	 1.766632	 -1.772905	 0.124928
C	 4.223089	 -1.950673	 0.813546
H	 3.569524	 0.058737	 1.137330
H	 4.201042	 -0.218533	 -0.456204
H	 3.620081	 -2.414975	 1.587368
H	 4.348575	 -2.671832	 0.014880
H	 5.203766	 -1.756785	 1.232645

	symmetry c1
}
set optking {
	frozen_dihedral = ("
		20 17 14 18
	")
}

ee,wfn = optimize('scf', return_wfn=True)
oeprop( wfn, 'DIPOLE', 'QUADRUPOLE', 'MULLIKEN_CHARGES')
f=open( 'psi4out.xyz', 'w' )
f.write( "25  " )
f.write( str(ee) + "\n" )
f.write( MOL.save_string_xyz() )
f.close()
--------------------------------------------------------------------------

    Molecular point group: c1
  Charge       = 0
  Multiplicity = 1
  Basis Set: CC-PVTZ
  Basis Set:
  @DF-RHF Final Energy:  -387.25715709142298
    Total Energy =                       -387.2571570914232097
    Molecular point group: c1
  Basis Set: CC-PVTZ
  Basis Set:
  Basis Set: CC-PVTZ
  Basis Set:
  @DF-RHF Final Energy:  -387.17883613888915
    Total Energy =                       -387.1788361388887552
  Basis Set: CC-PVTZ
  Basis Set:
  Basis Set: CC-PVTZ
  Basis Set:
  @DF-RHF Final Energy:  -387.25194761334285
    Total Energy =                       -387.2519476133426224
  Basis Set: CC-PVTZ
  Basis Set:
  Basis Set: CC-PVTZ
  Basis Set:
  @DF-RHF Final Energy:  -387.25777124688875
    Total Energy =                       -387.2577712468887512
  Basis Set: CC-PVTZ
  Basis Set:
  @DF-RHF Final Energy:  -387.25779349784187
    Total Energy =                       -387.2577934978421581
  @DF-RHF Final Energy:  -387.25779764396384
    Total Energy =                       -387.2577976439641816
  @DF-RHF Final Energy:  -387.25780582800559
    Total Energy =                       -387.2578058280055302
  @DF-RHF Final Energy:  -387.25782058055864
    Total Energy =                       -387.2578205805584730
  Basis Set: CC-PVTZ
  Basis Set:
  @DF-RHF Final Energy:  -387.25782442302631
    Total Energy =                       -387.2578244230260225
  Basis Set: CC-PVTZ
  Basis Set:
  Basis Set: CC-PVTZ
  Basis Set:
  @DF-RHF Final Energy:  -387.25782642713438
    Total Energy =                       -387.2578264271347734
  Basis Set: CC-PVTZ
  Basis Set:
  Basis Set: CC-PVTZ
  Basis Set:
  @DF-RHF Final Energy:  -387.25782753445117
    Total Energy =                       -387.2578275344513941
  Basis Set: CC-PVTZ
  Basis Set:
  Charge       = 0
  Multiplicity = 1
  Basis Set: CC-PVTZ
  Basis Set:

    Orbital Energies (a.u.)
    -----------------------

    Doubly Occupied:

       1A    -20.551400     2A    -11.320999     3A    -11.233821
       4A    -11.232903     5A    -11.221552     6A    -11.218385
       7A    -11.215667     8A    -11.214606     9A    -11.208750
      10A     -1.406415    11A     -1.104983    12A     -1.069994
      13A     -1.015999    14A     -0.944490    15A     -0.868651
      16A     -0.815488    17A     -0.794494    18A     -0.787733
      19A     -0.667780    20A     -0.665305    21A     -0.638209
      22A     -0.620515    23A     -0.602924    24A     -0.598375
      25A     -0.570118    26A     -0.551028    27A     -0.541639
      28A     -0.523266    29A     -0.508089    30A     -0.500612
      31A     -0.488496    32A     -0.478994    33A     -0.466579
      34A     -0.461325    35A     -0.440786    36A     -0.411899

  @DF-RHF Final Energy:  -387.25782780573053

   => Energetics <=

    Nuclear Repulsion Energy =            436.4301852626517189
    One-Electron Energy =               -1389.4514900363910783
    Two-Electron Energy =                 565.7634769680086038
    DFT Exchange-Correlation Energy =       0.0000000000000000
    Empirical Dispersion Energy =           0.0000000000000000
    PCM Polarization Energy =               0.0000000000000000
    EFP Energy =                            0.0000000000000000
    Total Energy =                       -387.2578278057306989
    Molecular point group: c1
  Basis Set: CC-PVTZ
  Basis Set:

  -Total Gradient:
     Atom            X                  Y                   Z
    ------   -----------------  -----------------  -----------------
       1       -0.000002163871     0.000002683479    -0.000000545005
       2        0.000006064377     0.000004410710     0.000000523665
       3       -0.000018856649     0.000002320468    -0.000004296265
       4        0.000001860156    -0.000004459802    -0.000000848697
       5        0.000005319253    -0.000005320958     0.000005593436
       6        0.000001469254    -0.000000997902     0.000000384242
       7        0.000006580360     0.000001644924     0.000001245899
       8        0.000003025512    -0.000001699361    -0.000000646234
       9       -0.000002398073     0.000000968639    -0.000000738777
      10        0.000000214355    -0.000001639245    -0.000000551927
      11        0.000004813965     0.000004679592     0.000002347588
      12        0.000000822645    -0.000000988004     0.000001170360
      13        0.000000468467     0.000001979997    -0.000001301846
      14        0.000076886922    -0.003796855731     0.002599790381
      15        0.000000432133    -0.000001260135     0.000000624598
      16        0.000000656192     0.000000107152     0.000000961447
      17        0.000667673301    -0.001097663923    -0.003509074007
      18       -0.000226935003     0.003482944839    -0.001395059126
      19       -0.000002718311     0.000027675117     0.000028213277
      20       -0.000522095042     0.001378303643     0.002276286723
      21       -0.000004139621     0.000005444759    -0.000005997257
      22        0.000004371609    -0.000003342867     0.000002204709
      23       -0.000001475171     0.000000078546    -0.000000424767
      24        0.000000644115     0.000000745525    -0.000000128017
      25       -0.000000520884     0.000000240538     0.000000265600

  **** Optimization is complete! (in 12 steps) ****
    Final optimized geometry and variables:
    Molecular point group: c1

    Geometry (in Angstrom), charge = 0, multiplicity = 1:

    H           -3.090987874618     0.844407109397     1.502429683000
    C           -3.250336654174     0.523719751245     0.463832091439
    C           -2.537801135163     1.351232815310    -0.571277594980
    O           -3.947482462967    -0.402060008843     0.231000353273
    C           -1.043753688776     1.512156974852    -0.275705972909
    H           -2.706718398343     0.906855893210    -1.543567394941
    H           -3.010898782960     2.330739886887    -0.564715296527
    C           -0.251733538493     0.211875366102    -0.395664138079
    H           -0.635707030261     2.246941026335    -0.961240892775
    H           -0.916826296040     1.926703473198     0.721369482621
    C            1.237082854373     0.391243831263    -0.115513523006
    H           -0.386079494307    -0.194453424305    -1.394593723896
    H           -0.657292339107    -0.530645243267     0.287014126871
    C            2.036457185291    -0.906014861099    -0.230454527016
    H            1.646314171578     1.126118817068    -0.805110508900
    H            1.368859441804     0.804931937912     0.881508344469
    C            3.545475958007    -0.709339035784    -0.003586614366
    H            1.868034355164    -1.313542438537    -1.222777544339
    H            1.644277551668    -1.627934463525     0.479022635526
    C            4.187779042521    -1.822850100786     0.818262730780
    H            3.709932182985     0.231720223689     0.513049075850
    H            4.052648548876    -0.617833191643    -0.958107679107
    H            3.741788588593    -1.879046978138     1.805472977007
    H            4.057730254195    -2.790109567655     0.343563064243
    H            5.251823057656    -1.656732973986     0.942937860797

  Mulliken Charges: (a.u.)
   Center  Symbol    Alpha    Beta     Spin     Total
       1     H     0.46422  0.46422  0.00000  0.07157
       2     C     2.90468  2.90468  0.00000  0.19063
       3     C     3.08918  3.08918  0.00000 -0.17836
       4     O     4.16625  4.16625  0.00000 -0.33250
       5     C     3.11626  3.11626  0.00000 -0.23252
       6     H     0.44291  0.44291  0.00000  0.11418
       7     H     0.44050  0.44050  0.00000  0.11900
       8     C     3.09146  3.09146  0.00000 -0.18291
       9     H     0.44307  0.44307  0.00000  0.11386
      10     H     0.44985  0.44985  0.00000  0.10031
      11     C     3.09093  3.09093  0.00000 -0.18186
      12     H     0.44992  0.44992  0.00000  0.10016
      13     H     0.44810  0.44810  0.00000  0.10380
      14     C     3.09111  3.09111  0.00000 -0.18223
      15     H     0.45227  0.45227  0.00000  0.09546
      16     H     0.45416  0.45416  0.00000  0.09168
      17     C     3.08716  3.08716  0.00000 -0.17431
      18     H     0.45183  0.45183  0.00000  0.09634
      19     H     0.45234  0.45234  0.00000  0.09531
      20     C     3.14801  3.14801  0.00000 -0.29602
      21     H     0.45588  0.45588  0.00000  0.08825
      22     H     0.45106  0.45106  0.00000  0.09788
      23     H     0.45562  0.45562  0.00000  0.08876
      24     H     0.45392  0.45392  0.00000  0.09217
      25     H     0.44931  0.44931  0.00000  0.10138

   Total alpha = 36.00000, Total beta = 36.00000, Total charge = -0.00000

*** Psi4 exiting successfully. Buy a developer a beer!
