  ==> Input File <==

--------------------------------------------------------------------------
set {
	reference rhf
	basis 6-31G*
}

set_num_threads( 1 )
memory 2 gb

molecule MOL {
0 1

O	 1.846825	 1.296220	 0.000415
C	 1.705091	 0.115954	 0.001797
C	 0.381791	 -0.609817	 0.001258
O	 2.721346	 -0.737485	 -0.000216
C	 -0.823008	 0.326187	 0.001381
H	 0.371250	 -1.265087	 -0.865474
H	 0.370908	 -1.265746	 0.867490
C	 -0.937742	 1.124379	 1.300915
H	 -1.726662	 -0.254128	 -0.156205
H	 -0.749094	 1.004360	 -0.842969
C	 -2.141572	 2.067959	 1.318547
H	 -1.007912	 0.438727	 2.144096
H	 -0.027629	 1.702302	 1.454478
C	 -2.254988	 2.866104	 2.616758
H	 -3.051798	 1.491840	 1.167830
H	 -2.072462	 2.754075	 0.477354
H	 -2.360428	 2.207549	 3.474314
H	 -3.117189	 3.525446	 2.598616
H	 -1.373027	 3.479512	 2.778580
C	 4.024888	 -0.184556	 -0.001949
H	 4.179030	 0.422472	 -0.882452
H	 4.701782	 -1.024608	 -0.003642
H	 4.181981	 0.421185	 0.878906

	symmetry c1
}
set optking {
	frozen_dihedral = ("
		15 11 8 12,
		9 5 8 12,
		1 2 3 6,
		1 2 4 20
	")
}

ee = energy('scf')
oeprop('DIPOLE', 'QUADRUPOLE', 'MULLIKEN_CHARGES')
f=open( 'psi4out.xyz', 'w' )
f.write( "23  " )
f.write( str(ee) + "\n" )
f.write( MOL.save_string_xyz() )
f.close()
--------------------------------------------------------------------------

    Molecular point group: c1

    Geometry (in Angstrom), charge = 0, multiplicity = 1:

       Center              X                  Y                   Z               Mass
    ------------   -----------------  -----------------  -----------------  -----------------
           O          1.302421026306     0.595555209472    -0.584222882631    15.994914619560
           C          1.160687026306    -0.584710790528    -0.582840882631    12.000000000000
           C         -0.162612973694    -1.310481790528    -0.583379882631    12.000000000000
           O          2.176942026306    -1.438149790528    -0.584853882631    15.994914619560
           C         -1.367411973694    -0.374477790528    -0.583256882631    12.000000000000
           H         -0.173153973694    -1.965751790528    -1.450111882631     1.007825032070
           H         -0.173495973694    -1.966410790528     0.282852117369     1.007825032070
           C         -1.482145973694     0.423714209472     0.716277117369    12.000000000000
           H         -2.271065973694    -0.954792790528    -0.740842882631     1.007825032070
           H         -1.293497973694     0.303695209472    -1.427606882631     1.007825032070
           C         -2.685975973694     1.367294209472     0.733909117369    12.000000000000
           H         -1.552315973694    -0.261937790528     1.559458117369     1.007825032070
           H         -0.572032973694     1.001637209472     0.869840117369     1.007825032070
           C         -2.799391973694     2.165439209472     2.032120117369    12.000000000000
           H         -3.596201973694     0.791175209472     0.583192117369     1.007825032070
           H         -2.616865973694     2.053410209472    -0.107283882631     1.007825032070
           H         -2.904831973694     1.506884209472     2.889676117369     1.007825032070
           H         -3.661592973694     2.824781209472     2.013978117369     1.007825032070
           H         -1.917430973694     2.778847209472     2.193942117369     1.007825032070
           C          3.480484026306    -0.885220790528    -0.586586882631    12.000000000000
           H          3.634626026306    -0.278192790528    -1.467089882631     1.007825032070
           H          4.157378026306    -1.725272790528    -0.588279882631     1.007825032070
           H          3.637577026306    -0.279479790528     0.294268117369     1.007825032070

  Charge       = 0
  Multiplicity = 1
  Basis Set: 6-31G*
  Basis Set:

    Orbital Energies (a.u.)
    -----------------------

    Doubly Occupied:

       1A    -20.605074     2A    -20.546984     3A    -11.373894
       4A    -11.281836     5A    -11.235817     6A    -11.219228
       7A    -11.210337     8A    -11.206774     9A    -11.204195
      10A     -1.471013    11A     -1.364936    12A     -1.090058
      13A     -1.040064    14A     -0.985843    15A     -0.928294
      16A     -0.842828    17A     -0.791377    18A     -0.767614
      19A     -0.702204    20A     -0.681507    21A     -0.672886
      22A     -0.637614    23A     -0.612658    24A     -0.598722
      25A     -0.566726    26A     -0.555329    27A     -0.551141
      28A     -0.532164    29A     -0.521399    30A     -0.501094
      31A     -0.491480    32A     -0.467473    33A     -0.462911
      34A     -0.455133    35A     -0.447684    36A     -0.432584

  @DF-RHF Final Energy:  -422.97486532882982

   => Energetics <=

    Nuclear Repulsion Energy =            465.0320591801244632
    One-Electron Energy =               -1497.9001211037800658
    Two-Electron Energy =                 609.8931965948253264
    DFT Exchange-Correlation Energy =       0.0000000000000000
    Empirical Dispersion Energy =           0.0000000000000000
    PCM Polarization Energy =               0.0000000000000000
    EFP Energy =                            0.0000000000000000
    Total Energy =                       -422.9748653288303331

  Mulliken Charges: (a.u.)
   Center  Symbol    Alpha    Beta     Spin     Total
       1     O     4.28604  4.28604  0.00000 -0.57207
       2     C     2.60544  2.60544  0.00000  0.78913
       3     C     3.20968  3.20968  0.00000 -0.41936
       4     O     4.30680  4.30680  0.00000 -0.61361
       5     C     3.15440  3.15440  0.00000 -0.30880
       6     H     0.39797  0.39797  0.00000  0.20406
       7     H     0.40026  0.40026  0.00000  0.19949
       8     C     3.16045  3.16045  0.00000 -0.32091
       9     H     0.41843  0.41843  0.00000  0.16315
      10     H     0.41128  0.41128  0.00000  0.17743
      11     C     3.15150  3.15150  0.00000 -0.30299
      12     H     0.42869  0.42869  0.00000  0.14262
      13     H     0.40088  0.40088  0.00000  0.19825
      14     C     3.23946  3.23946  0.00000 -0.47892
      15     H     0.42592  0.42592  0.00000  0.14816
      16     H     0.42096  0.42096  0.00000  0.15808
      17     H     0.42315  0.42315  0.00000  0.15370
      18     H     0.42023  0.42023  0.00000  0.15954
      19     H     0.41981  0.41981  0.00000  0.16037
      20     C     3.09248  3.09248  0.00000 -0.18496
      21     H     0.40890  0.40890  0.00000  0.18220
      22     H     0.40817  0.40817  0.00000  0.18365
      23     H     0.40911  0.40911  0.00000  0.18178

   Total alpha = 36.00000, Total beta = 36.00000, Total charge =  0.00000
