  ==> Input File <==

--------------------------------------------------------------------------
set {
	reference rhf
	basis 6-31G*
}

set_num_threads( 4 )
memory 2 gb

molecule MOL {
0 1

O	 2.678951	 1.356743	 1.705911
C	 2.389622	 0.283738	 1.284000
C	 1.245376	 -0.013843	 0.345420
O	 3.055582	 -0.821721	 1.593981
C	 0.455112	 1.231400	 -0.050772
H	 1.664919	 -0.520931	 -0.517156
H	 0.606031	 -0.743065	 0.836511
C	 -0.998893	 1.219485	 0.433193
H	 0.482531	 1.345121	 -1.130325
H	 0.957290	 2.103070	 0.354729
C	 -1.883438	 0.145884	 -0.207175
H	 -1.431207	 2.195402	 0.224832
H	 -1.019646	 1.105716	 1.516076
C	 -3.347647	 0.245583	 0.225435
H	 -1.822183	 0.231698	 -1.291012
H	 -1.510341	 -0.844814	 0.042401
C	 -4.239992	 -0.825570	 -0.404234
H	 -3.732888	 1.230466	 -0.033079
H	 -3.408585	 0.170602	 1.310038
C	 -5.701275	 -0.716658	 0.029921
H	 -4.179496	 -0.752714	 -1.488058
H	 -3.859041	 -1.810759	 -0.143352
H	 -6.308102	 -1.488908	 -0.432678
H	 -6.122175	 0.245478	 -0.248167
H	 -5.799072	 -0.820114	 1.106957
C	 4.157272	 -0.683104	 2.472587
H	 4.903504	 -0.028308	 2.046108
H	 4.559884	 -1.675910	 2.600050
H	 3.836746	 -0.284009	 3.424177

	symmetry c1
}
set optking {
	frozen_dihedral = ("
		6 3 5 9
	")
}

ee = optimize('scf')
oeprop('DIPOLE', 'QUADRUPOLE', 'MULLIKEN_CHARGES')
f=open( 'psi4out.xyz', 'w' )
f.write( "29  " )
f.write( str(ee) + "\n" )
f.write( MOL.save_string_xyz() )
f.close()
--------------------------------------------------------------------------

    Molecular point group: c1
  Charge       = 0
  Multiplicity = 1
  Basis Set: 6-31G*
  Basis Set:
  @DF-RHF Final Energy:  -501.03941714570851
    Total Energy =                       -501.0394171457089669
    Molecular point group: c1
  Basis Set: 6-31G*
  Basis Set:
  Basis Set: 6-31G*
  Basis Set:
  @DF-RHF Final Energy:  -501.03965417835150
    Total Energy =                       -501.0396541783520661
  Basis Set: 6-31G*
  Basis Set:
  Basis Set: 6-31G*
  Basis Set:
  @DF-RHF Final Energy:  -501.03986142384940
    Total Energy =                       -501.0398614238490609
  Basis Set: 6-31G*
  Basis Set:
  Basis Set: 6-31G*
  Basis Set:
  @DF-RHF Final Energy:  -501.03974083302887
    Total Energy =                       -501.0397408330287590
  Basis Set: 6-31G*
  Basis Set:
  Basis Set: 6-31G*
  Basis Set:
  @DF-RHF Final Energy:  -501.03990007009145
    Total Energy =                       -501.0399000700911074
  Basis Set: 6-31G*
  Basis Set:
  Basis Set: 6-31G*
  Basis Set:
  @DF-RHF Final Energy:  -501.03990416495037
    Total Energy =                       -501.0399041649498031
  Basis Set: 6-31G*
  Basis Set:
  Basis Set: 6-31G*
  Basis Set:
  @DF-RHF Final Energy:  -501.03992175161329
    Total Energy =                       -501.0399217516134058
  Basis Set: 6-31G*
  Basis Set:
  Charge       = 0
  Multiplicity = 1
  Basis Set: 6-31G*
  Basis Set:

    Orbital Energies (a.u.)
    -----------------------

    Doubly Occupied:

       1A    -20.603826     2A    -20.546200     3A    -11.372942
       4A    -11.280998     5A    -11.234870     6A    -11.217112
       7A    -11.215965     8A    -11.215430     9A    -11.215017
      10A    -11.213694    11A    -11.208651    12A     -1.469834
      13A     -1.363186    14A     -1.096299    15A     -1.065233
      16A     -1.019194    17A     -0.976552    18A     -0.927878
      19A     -0.861206    20A     -0.800205    21A     -0.790290
      22A     -0.763303    23A     -0.700737    24A     -0.681857
      25A     -0.672566    26A     -0.652544    27A     -0.621989
      28A     -0.608772    29A     -0.591963    30A     -0.580431
      31A     -0.566095    32A     -0.549973    33A     -0.535169
      34A     -0.527221    35A     -0.515703    36A     -0.505803
      37A     -0.499886    38A     -0.474453    39A     -0.469534
      40A     -0.460805    41A     -0.458068    42A     -0.457202
      43A     -0.439739    44A     -0.436850

  @DF-RHF Final Energy:  -501.03992150734587

   => Energetics <=

    Nuclear Repulsion Energy =            612.5183045678189728
    One-Electron Energy =               -1896.1859703078621351
    Two-Electron Energy =                 782.6277442326965001
    DFT Exchange-Correlation Energy =       0.0000000000000000
    Empirical Dispersion Energy =           0.0000000000000000
    PCM Polarization Energy =               0.0000000000000000
    EFP Energy =                            0.0000000000000000
    Total Energy =                       -501.0399215073465484
    Molecular point group: c1
  Basis Set: 6-31G*
  Basis Set:

  -Total Gradient:
     Atom            X                  Y                   Z
    ------   -----------------  -----------------  -----------------
       1        0.000022891293     0.000070415103     0.000000288295
       2        0.000021267169    -0.000016134274     0.000091390696
       3        0.000489844719     0.000271387892     0.000024238636
       4       -0.000053112895    -0.000031073751    -0.000055882614
       5       -0.000466015078    -0.000219932622    -0.000017209900
       6       -0.000316697142    -0.000236738303    -0.000022273028
       7        0.000037370121    -0.000021423414    -0.000008906558
       8       -0.000065916047     0.000076824557    -0.000092628756
       9        0.000300579572     0.000147662652     0.000009578332
      10       -0.000038127943    -0.000010319371    -0.000015521011
      11        0.000040475152     0.000007338244     0.000032303903
      12       -0.000008489996     0.000037488189     0.000038336648
      13       -0.000005856229    -0.000051111667    -0.000035074387
      14        0.000002312401    -0.000005892061     0.000044338155
      15        0.000032206546    -0.000003919052     0.000008581868
      16        0.000030953298    -0.000032136057     0.000017956935
      17       -0.000001963900     0.000019367356    -0.000017415771
      18       -0.000007639745    -0.000002815614     0.000028336050
      19        0.000006813008    -0.000022110787     0.000002337416
      20       -0.000007195406     0.000019766380    -0.000022000382
      21        0.000007938625    -0.000017835167    -0.000013073628
      22       -0.000007680430     0.000009581961     0.000017662727
      23       -0.000001877356     0.000003035522    -0.000003902531
      24       -0.000007109424     0.000001878270     0.000003378932
      25        0.000007693877    -0.000000608364    -0.000005155785
      26       -0.000001294765     0.000013287316     0.000002256648
      27       -0.000003506133    -0.000001475206     0.000000427372
      28       -0.000007959499    -0.000003529507    -0.000007458777
      29        0.000000096191    -0.000000978229    -0.000004909489

  **** Optimization is complete! (in 8 steps) ****
    Final optimized geometry and variables:
    Molecular point group: c1

    Geometry (in Angstrom), charge = 0, multiplicity = 1:

    O            2.881446387693     1.246606086393     0.989925736345
    C            2.565347253692     0.169398412293     0.599256458909
    C            1.409602820270    -0.145391358979    -0.324090701038
    O            3.208089370863    -0.940664245370     0.940001135378
    C            0.613694616821     1.087408933617    -0.787109003355
    H            1.819895476080    -0.703453140650    -1.159330576100
    H            0.782661948607    -0.853888641451     0.208400057780
    C           -0.841568072152     1.111873491526    -0.306050247017
    H            0.630485586873     1.140365414447    -1.871973488027
    H            1.117598045835     1.975778704637    -0.429486400786
    C           -1.739741690693     0.059880895184    -0.961807035860
    H           -1.254806488480     2.097467962064    -0.507267335450
    H           -0.863228164876     0.990093086603     0.775697329659
    C           -3.185304220863     0.110391595685    -0.463353281569
    H           -1.725731890037     0.205908406987    -2.040764656580
    H           -1.339401189246    -0.936969901786    -0.786546520883
    C           -4.093955396680    -0.922520975887    -1.132424434787
    H           -3.589725954887     1.106853073171    -0.633211506281
    H           -3.200213605216    -0.043462727957     0.614446556001
    C           -5.537399513985    -0.860647106168    -0.634057451695
    H           -4.077806415721    -0.771874884173    -2.209796431517
    H           -3.695020208926    -1.919711233110    -0.958342300682
    H           -6.156356934716    -1.604225205059    -1.126644572863
    H           -5.976638974972     0.114408374059    -0.825208325259
    H           -5.590909604281    -1.041964572221     0.435757309823
    C            4.316574418958    -0.800976215289     1.809906059750
    H            5.074991139222    -0.175417219998     1.361660742688
    H            4.697777141279    -1.798392360576     1.964253234414
    H            4.009137909657    -0.367803038686     2.750820850581

  Mulliken Charges: (a.u.)
   Center  Symbol    Alpha    Beta     Spin     Total
       1     O     4.28489  4.28489  0.00000 -0.56977
       2     C     2.61306  2.61306  0.00000  0.77388
       3     C     3.20936  3.20936  0.00000 -0.41872
       4     O     4.30535  4.30535  0.00000 -0.61070
       5     C     3.16530  3.16530  0.00000 -0.33060
       6     H     0.39702  0.39702  0.00000  0.20595
       7     H     0.39812  0.39812  0.00000  0.20377
       8     C     3.15668  3.15668  0.00000 -0.31336
       9     H     0.41924  0.41924  0.00000  0.16152
      10     H     0.39212  0.39212  0.00000  0.21577
      11     C     3.15401  3.15401  0.00000 -0.30802
      12     H     0.41906  0.41906  0.00000  0.16189
      13     H     0.42177  0.42177  0.00000  0.15647
      14     C     3.15034  3.15034  0.00000 -0.30069
      15     H     0.42353  0.42353  0.00000  0.15294
      16     H     0.42432  0.42432  0.00000  0.15135
      17     C     3.15140  3.15140  0.00000 -0.30280
      18     H     0.42332  0.42332  0.00000  0.15336
      19     H     0.42384  0.42384  0.00000  0.15232
      20     C     3.23931  3.23931  0.00000 -0.47862
      21     H     0.42307  0.42307  0.00000  0.15387
      22     H     0.42352  0.42352  0.00000  0.15296
      23     H     0.41939  0.41939  0.00000  0.16122
      24     H     0.42157  0.42157  0.00000  0.15686
      25     H     0.42176  0.42176  0.00000  0.15649
      26     C     3.09205  3.09205  0.00000 -0.18409
      27     H     0.40898  0.40898  0.00000  0.18205
      28     H     0.40851  0.40851  0.00000  0.18297
      29     H     0.40913  0.40913  0.00000  0.18175

   Total alpha = 44.00000, Total beta = 44.00000, Total charge = -0.00000
