  ==> Input File <==

--------------------------------------------------------------------------
set {
	reference rhf
	basis cc-pvtz
}

set_num_threads( 4 )
memory 2 gb

molecule MOL {
0 1

H	 2.383843	 -0.490431	 -0.855973
C	 1.692655	 -0.964212	 -0.168260
N	 0.526300	 -0.128137	 0.000000
H	 2.201208	 -1.080293	 0.780391
H	 1.466812	 -1.958667	 -0.558933
C	 -0.247113	 0.037112	 -1.209233
H	 -0.051428	 -0.492559	 0.726007
H	 -0.996493	 -0.743733	 -1.271440
H	 0.397975	 -0.057351	 -2.073512
H	 -0.763794	 0.997171	 -1.271673

	symmetry c1
}
set optking {
	frozen_dihedral = ("
		2 3 6 8
	")
}

ee = optimize('scf')
oeprop('DIPOLE', 'QUADRUPOLE', 'MULLIKEN_CHARGES')
f=open( 'psi4out.xyz', 'w' )
f.write( "10  " )
f.write( str(ee) + "\n" )
f.write( MOL.save_string_xyz() )
f.close()
--------------------------------------------------------------------------

    Molecular point group: c1
  Charge       = 0
  Multiplicity = 1
  Basis Set: CC-PVTZ
  Basis Set:
  @DF-RHF Final Energy:  -134.28903475367431
    Total Energy =                       -134.2890347536742297
    Molecular point group: c1
  Basis Set: CC-PVTZ
  Basis Set:
  Basis Set: CC-PVTZ
  Basis Set:
  @DF-RHF Final Energy:  -134.29007455717729
    Total Energy =                       -134.2900745571773200
  Basis Set: CC-PVTZ
  Basis Set:
  Basis Set: CC-PVTZ
  Basis Set:
  @DF-RHF Final Energy:  -134.29017843733013
    Total Energy =                       -134.2901784373301268
  Basis Set: CC-PVTZ
  Basis Set:
  Basis Set: CC-PVTZ
  Basis Set:
  @DF-RHF Final Energy:  -134.29018362942975
    Total Energy =                       -134.2901836294297766
  Basis Set: CC-PVTZ
  Basis Set:
  Charge       = 0
  Multiplicity = 1
  Basis Set: CC-PVTZ
  Basis Set:

    Orbital Energies (a.u.)
    -----------------------

    Doubly Occupied:

       1A    -15.529570     2A    -11.234300     3A    -11.233855
       4A     -1.197305     5A     -0.948118     6A     -0.855196
       7A     -0.662496     8A     -0.608192     9A     -0.590111
      10A     -0.542645    11A     -0.513927    12A     -0.507379
      13A     -0.357990

  @DF-RHF Final Energy:  -134.29018433578537

   => Energetics <=

    Nuclear Repulsion Energy =             84.5659797018308268
    One-Electron Energy =                -348.1501596577443820
    Two-Electron Energy =                 129.2939956201281859
    DFT Exchange-Correlation Energy =       0.0000000000000000
    Empirical Dispersion Energy =           0.0000000000000000
    PCM Polarization Energy =               0.0000000000000000
    EFP Energy =                            0.0000000000000000
    Total Energy =                       -134.2901843357853693
    Molecular point group: c1
  Basis Set: CC-PVTZ
  Basis Set:

  -Total Gradient:
     Atom            X                  Y                   Z
    ------   -----------------  -----------------  -----------------
       1       -0.000020543988     0.000012018946     0.000003629479
       2        0.001631113072     0.002355527262    -0.000743341464
       3       -0.003011293585    -0.002721799845     0.001687275119
       4       -0.000008816468     0.000008654460    -0.000001481265
       5       -0.000012672555     0.000022232503     0.000008556282
       6        0.003925557640    -0.001979144910    -0.002964522260
       7        0.000016874114    -0.000006807729     0.000007257902
       8       -0.002500406288     0.002294434569     0.001961229487
       9       -0.000008931399     0.000007375870     0.000035950612
      10       -0.000010880542     0.000007508874     0.000005446107

  **** Optimization is complete! (in 5 steps) ****
    Final optimized geometry and variables:
    Molecular point group: c1

    Geometry (in Angstrom), charge = 0, multiplicity = 1:

    H            1.741123971171    -0.124722843600    -0.381051081901
    C            1.049695405767    -0.590047061866     0.311247687809
    N           -0.122578684279     0.241049337182     0.457440798035
    H            1.552907597585    -0.678648781984     1.265956349799
    H            0.840763038740    -1.597906836463    -0.054286343176
    C           -0.913170050594     0.400902925513    -0.746141339641
    H           -0.688148948641    -0.073323637569     1.213718970407
    H           -1.689898429502    -0.354532230059    -0.861067517102
    H           -0.271547504874     0.365950657850    -1.616912381682
    H           -1.407632564705     1.366066577152    -0.743996463274

  Mulliken Charges: (a.u.)
   Center  Symbol    Alpha    Beta     Spin     Total
       1     H     0.45696  0.45696  0.00000  0.08608
       2     C     3.08017  3.08017  0.00000 -0.16033
       3     N     3.63425  3.63425  0.00000 -0.26849
       4     H     0.45306  0.45306  0.00000  0.09389
       5     H     0.47553  0.47553  0.00000  0.04894
       6     C     3.08099  3.08099  0.00000 -0.16198
       7     H     0.43899  0.43899  0.00000  0.12201
       8     H     0.46763  0.46763  0.00000  0.06475
       9     H     0.45864  0.45864  0.00000  0.08272
      10     H     0.45380  0.45380  0.00000  0.09241

   Total alpha = 13.00000, Total beta = 13.00000, Total charge =  0.00000
