  ==> Input File <==

--------------------------------------------------------------------------
set {
	reference rhf
	basis cc-pvtz
}

set_num_threads( 4 )
memory 2 gb

molecule MOL {
0 1

H	 -2.394085	 -1.682261	 0.770289
C	 -1.640597	 -0.997159	 0.443445
C	 -1.961230	 0.335528	 0.030777
C	 -0.357027	 -1.363475	 0.407493
H	 -2.984366	 0.661187	 0.047943
C	 -0.999985	 1.171744	 -0.373360
H	 -0.038788	 -2.344193	 0.700847
N	 0.640204	 -0.530428	 -0.000115
H	 -1.202795	 2.174454	 -0.688643
C	 0.398436	 0.768975	 -0.411125
C	 2.006991	 -1.033007	 -0.000020
O	 1.289698	 1.490685	 -0.767539
H	 2.182444	 -1.636914	 -0.880881
H	 2.678769	 -0.195442	 -0.002236
H	 2.183828	 -1.633244	 0.883082

	symmetry c1
}
set optking {
	frozen_dihedral = ("
		10 8 11 13
	")
}

ee = optimize('scf')
oeprop('DIPOLE', 'QUADRUPOLE', 'MULLIKEN_CHARGES')
f=open( 'psi4out.xyz', 'w' )
f.write( "15  " )
f.write( str(ee) + "\n" )
f.write( MOL.save_string_xyz() )
f.close()
--------------------------------------------------------------------------

    Molecular point group: c1
  Charge       = 0
  Multiplicity = 1
  Basis Set: CC-PVTZ
  Basis Set:
  @DF-RHF Final Energy:  -360.72263161685441
    Total Energy =                       -360.7226316168543008
    Molecular point group: c1
  Basis Set: CC-PVTZ
  Basis Set:
  Basis Set: CC-PVTZ
  Basis Set:
  @DF-RHF Final Energy:  -360.72271220951535
    Total Energy =                       -360.7227122095155210
  Basis Set: CC-PVTZ
  Basis Set:
  Basis Set: CC-PVTZ
  Basis Set:
  @DF-RHF Final Energy:  -360.72270775980616
    Total Energy =                       -360.7227077598060418
  Basis Set: CC-PVTZ
  Basis Set:
  Charge       = 0
  Multiplicity = 1
  Basis Set: CC-PVTZ
  Basis Set:

    Orbital Energies (a.u.)
    -----------------------

    Doubly Occupied:

       1A    -20.501823     2A    -15.616772     3A    -11.339196
       4A    -11.293456     5A    -11.264074     6A    -11.258152
       7A    -11.230448     8A    -11.228241     9A     -1.390616
      10A     -1.285801    11A     -1.118789    12A     -1.028947
      13A     -0.972398    14A     -0.875895    15A     -0.838643
      16A     -0.719224    17A     -0.702834    18A     -0.663551
      19A     -0.652757    20A     -0.625411    21A     -0.611909
      22A     -0.574492    23A     -0.556842    24A     -0.550640
      25A     -0.529767    26A     -0.483163    27A     -0.420378
      28A     -0.410590    29A     -0.310808

  @DF-RHF Final Energy:  -360.72272995148455

   => Energetics <=

    Nuclear Repulsion Energy =            358.5151792209898076
    One-Electron Energy =               -1200.3645878517795609
    Two-Electron Energy =                 481.1266786793053711
    DFT Exchange-Correlation Energy =       0.0000000000000000
    Empirical Dispersion Energy =           0.0000000000000000
    PCM Polarization Energy =               0.0000000000000000
    EFP Energy =                            0.0000000000000000
    Total Energy =                       -360.7227299514843821
    Molecular point group: c1
  Basis Set: CC-PVTZ
  Basis Set:

  -Total Gradient:
     Atom            X                  Y                   Z
    ------   -----------------  -----------------  -----------------
       1        0.000017283887     0.000010092914     0.000031727334
       2        0.000083704026    -0.000009458242    -0.000028590438
       3        0.000026483225     0.000055837832    -0.000051409950
       4       -0.000039174367    -0.000113618537    -0.000037759813
       5        0.000011524036     0.000010662065    -0.000004740520
       6       -0.000012380724     0.000065386236     0.000034619416
       7        0.000003966097     0.000015220572     0.000018101709
       8       -0.000261563452    -0.000502615745    -0.000531909266
       9       -0.000020070653     0.000020583665    -0.000019132528
      10        0.000144719873     0.000009741540     0.000557253062
      11        0.000311522963     0.000759708040    -0.000137836359
      12       -0.000056172219     0.000221141532    -0.000104759895
      13       -0.000170973495    -0.000496561230     0.000334178540
      14        0.000005858909    -0.000037850265    -0.000020846992
      15       -0.000044728109    -0.000008270370    -0.000038894300

  **** Optimization is complete! (in 4 steps) ****
    Final optimized geometry and variables:
    Molecular point group: c1

    Geometry (in Angstrom), charge = 0, multiplicity = 1:

    H           -2.393094228406    -1.666611651770     0.854596801073
    C           -1.637847597536    -0.981425471642     0.532022256880
    C           -1.955429833195     0.353958343590     0.125949189588
    C           -0.354189228285    -1.349178537511     0.502427116907
    H           -2.978065978223     0.681188286722     0.143192982064
    C           -0.992064389409     1.191231782586    -0.271207577174
    H           -0.039086078265    -2.330678801146     0.795596782329
    N            0.645099447663    -0.513916383369     0.105790183723
    H           -1.192471807142     2.195616158326    -0.583047323348
    C            0.403990091253     0.782079998572    -0.315653975086
    C            2.014301934802    -1.008770720483     0.093654467454
    O            1.297298039320     1.493626023024    -0.686972107372
    H            2.194051349670    -1.621495259434    -0.781100168384
    H            2.686149872556    -0.170705026541     0.078642430273
    H            2.190178986068    -1.600752209692     0.980843861195

  Mulliken Charges: (a.u.)
   Center  Symbol    Alpha    Beta     Spin     Total
       1     H     0.41397  0.41397  0.00000  0.17206
       2     C     3.10303  3.10303  0.00000 -0.20607
       3     C     3.06171  3.06171  0.00000 -0.12342
       4     C     3.03312  3.03312  0.00000 -0.06624
       5     H     0.41838  0.41838  0.00000  0.16325
       6     C     3.11690  3.11690  0.00000 -0.23381
       7     H     0.42125  0.42125  0.00000  0.15750
       8     N     3.51191  3.51191  0.00000 -0.02382
       9     H     0.40893  0.40893  0.00000  0.18213
      10     C     2.84530  2.84530  0.00000  0.30940
      11     C     3.10459  3.10459  0.00000 -0.20917
      12     O     4.23642  4.23642  0.00000 -0.47284
      13     H     0.44713  0.44713  0.00000  0.10574
      14     H     0.42353  0.42353  0.00000  0.15293
      15     H     0.45382  0.45382  0.00000  0.09236

   Total alpha = 29.00000, Total beta = 29.00000, Total charge = -0.00000
