  ==> Input File <==

--------------------------------------------------------------------------
set {
	reference rhf
	basis cc-pvtz
}

set_num_threads( 4 )
memory 2 gb

molecule MOL {
0 1

H	 3.273419	 0.176595	 -0.102789
N	 2.433987	 -0.362316	 -0.080024
C	 1.263552	 0.494993	 0.021953
H	 2.497638	 -0.973615	 0.707122
C	 -0.016533	 -0.325589	 -0.026925
H	 1.280915	 1.180773	 -0.818522
H	 1.263064	 1.106893	 0.925038
C	 -1.280353	 0.525521	 0.047747
H	 -0.016686	 -0.912532	 -0.939714
H	 -0.014099	 -1.037598	 0.796369
C	 -1.013932	 2.010296	 -0.176872
H	 -1.748578	 0.388213	 1.018766
H	 -1.998439	 0.174452	 -0.688443
H	 -0.324721	 2.400096	 0.564595
H	 -1.929104	 2.587754	 -0.113998
H	 -0.578635	 2.185961	 -1.155054

	symmetry c1
}
set optking {
	frozen_dihedral = ("
		12 8 5 9
	")
}

ee = optimize('scf')
oeprop('DIPOLE', 'QUADRUPOLE', 'MULLIKEN_CHARGES')
f=open( 'psi4out.xyz', 'w' )
f.write( "16  " )
f.write( str(ee) + "\n" )
f.write( MOL.save_string_xyz() )
f.close()
--------------------------------------------------------------------------

    Molecular point group: c1
  Charge       = 0
  Multiplicity = 1
  Basis Set: CC-PVTZ
  Basis Set:
  @DF-RHF Final Energy:  -212.38753630485300
    Total Energy =                       -212.3875363048529152
    Molecular point group: c1
  Basis Set: CC-PVTZ
  Basis Set:
  Basis Set: CC-PVTZ
  Basis Set:
  @DF-RHF Final Energy:  -212.38869449646461
    Total Energy =                       -212.3886944964645522
  Basis Set: CC-PVTZ
  Basis Set:
  Basis Set: CC-PVTZ
  Basis Set:
  @DF-RHF Final Energy:  -212.39142625575550
    Total Energy =                       -212.3914262557552775
  Basis Set: CC-PVTZ
  Basis Set:
  Basis Set: CC-PVTZ
  Basis Set:
  @DF-RHF Final Energy:  -212.39176773658150
    Total Energy =                       -212.3917677365813574
  Basis Set: CC-PVTZ
  Basis Set:
  Basis Set: CC-PVTZ
  Basis Set:
  @DF-RHF Final Energy:  -212.39181260108262
    Total Energy =                       -212.3918126010822789
  Basis Set: CC-PVTZ
  Basis Set:
  Basis Set: CC-PVTZ
  Basis Set:
  @DF-RHF Final Energy:  -212.39181717992747
    Total Energy =                       -212.3918171799274432
  Basis Set: CC-PVTZ
  Basis Set:
  Charge       = 0
  Multiplicity = 1
  Basis Set: CC-PVTZ
  Basis Set:

    Orbital Energies (a.u.)
    -----------------------

    Doubly Occupied:

       1A    -15.526271     2A    -11.237814     3A    -11.213435
       4A    -11.208241     5A    -11.206669     6A     -1.178194
       7A     -1.055676     8A     -0.955523     9A     -0.864992
      10A     -0.774320    11A     -0.663170    12A     -0.636495
      13A     -0.611112    14A     -0.584498    15A     -0.546926
      16A     -0.531585    17A     -0.517174    18A     -0.467870
      19A     -0.461225    20A     -0.450615    21A     -0.383460

  @DF-RHF Final Energy:  -212.39181787272884

   => Energetics <=

    Nuclear Repulsion Energy =            189.1412275350110690
    One-Electron Energy =                -660.9155600211618093
    Two-Electron Energy =                 259.3825146134215061
    DFT Exchange-Correlation Energy =       0.0000000000000000
    Empirical Dispersion Energy =           0.0000000000000000
    PCM Polarization Energy =               0.0000000000000000
    EFP Energy =                            0.0000000000000000
    Total Energy =                       -212.3918178727292343
    Molecular point group: c1
  Basis Set: CC-PVTZ
  Basis Set:

  -Total Gradient:
     Atom            X                  Y                   Z
    ------   -----------------  -----------------  -----------------
       1        0.000003386174    -0.000000364283     0.000005626363
       2        0.000008830008    -0.000012504294     0.000010854435
       3        0.000001797639     0.000021932145    -0.000051892605
       4        0.000009489424    -0.000007600494     0.000002596284
       5        0.002335007641     0.004132098064    -0.003689889603
       6        0.000009449196    -0.000015589797     0.000015088181
       7       -0.000019935736     0.000017142341     0.000007842930
       8        0.002930750908     0.004100862568     0.003049030110
       9       -0.002410186311    -0.004098027858     0.002598982736
      10       -0.000007280641     0.000004990377    -0.000000603202
      11        0.000003036515    -0.000009395351    -0.000017077712
      12       -0.002893493087    -0.004133194995    -0.001941117261
      13        0.000013744189     0.000002984319    -0.000002067346
      14        0.000031479057    -0.000002729338     0.000005566675
      15        0.000005481727    -0.000008676403     0.000012949274
      16       -0.000021556703     0.000008073000    -0.000005889260

  **** Optimization is complete! (in 7 steps) ****
    Final optimized geometry and variables:
    Molecular point group: c1

    Geometry (in Angstrom), charge = 0, multiplicity = 1:

    H            3.012700972556    -0.453119290694    -0.017694893679
    N            2.137812090398    -0.932216027283    -0.043480148482
    C            1.027537391864    -0.001046004979     0.085170412906
    H            2.140150643910    -1.591253158703     0.706851710369
    C           -0.293882651668    -0.749519118024    -0.016329819405
    H            1.111402670819     0.720892990803    -0.717777246545
    H            1.056450981219     0.561655137544     1.018579413824
    C           -1.585921199078     0.090464936198     0.111498744361
    H           -0.309815644603    -1.323680165309    -0.935274989576
    H           -0.305294640614    -1.500600431373     0.770378465924
    C           -1.474235558838     1.585374800437    -0.178146363656
    H           -2.023970468010    -0.065656964379     1.091716616726
    H           -2.316522756509    -0.325601095241    -0.575147035222
    H           -0.806031761340     2.088229774305     0.510396724623
    H           -2.447137905525     2.054980948004    -0.089703690954
    H           -1.114181126521     1.769601953986    -1.184308030945

  Mulliken Charges: (a.u.)
   Center  Symbol    Alpha    Beta     Spin     Total
       1     H     0.43020  0.43020  0.00000  0.13960
       2     N     3.68995  3.68995  0.00000 -0.37991
       3     C     3.02787  3.02787  0.00000 -0.05574
       4     H     0.43099  0.43099  0.00000  0.13803
       5     C     3.08987  3.08987  0.00000 -0.17973
       6     H     0.45443  0.45443  0.00000  0.09115
       7     H     0.46601  0.46601  0.00000  0.06798
       8     C     3.09164  3.09164  0.00000 -0.18327
       9     H     0.44672  0.44672  0.00000  0.10656
      10     H     0.45906  0.45906  0.00000  0.08188
      11     C     3.15812  3.15812  0.00000 -0.31624
      12     H     0.45285  0.45285  0.00000  0.09429
      13     H     0.45154  0.45154  0.00000  0.09692
      14     H     0.45369  0.45369  0.00000  0.09263
      15     H     0.44463  0.44463  0.00000  0.11074
      16     H     0.45244  0.45244  0.00000  0.09512

   Total alpha = 21.00000, Total beta = 21.00000, Total charge = -0.00000
