                              Psi4 1.0.54 Driver

  ==> Input File <==

--------------------------------------------------------------------------
set {
	reference rhf
	basis cc-pvtz
}

set_num_threads( 4 )
memory 2 gb

molecule MOL {
0 1

H	 -1.211599	 0.911766	 2.991705
C	 -1.843135	 0.183514	 2.464734
C	 -2.341370	 0.634005	 1.118364
O	 -2.090843	 -0.857408	 2.967158
C	 -1.216901	 1.136108	 0.207794
H	 -2.889317	 -0.180986	 0.663525
H	 -3.041503	 1.445939	 1.302437
C	 -0.247837	 0.040196	 -0.230469
H	 -1.663636	 1.593620	 -0.668248
H	 -0.669213	 1.926749	 0.714862
C	 1.181757	 0.280428	 0.247371
H	 -0.259600	 -0.030819	 -1.314870
H	 -0.591284	 -0.923375	 0.136958
C	 2.151032	 -0.811012	 -0.202643
H	 1.515939	 1.247397	 -0.115449
H	 1.191514	 0.341223	 1.333422
C	 3.580021	 -0.656538	 0.320835
H	 2.170545	 -0.847575	 -1.289412
H	 1.766632	 -1.772905	 0.124928
C	 4.327657	 0.562694	 -0.213579
H	 4.138806	 -1.549270	 0.057813
H	 3.561991	 -0.620783	 1.406976
H	 4.355973	 0.557257	 -1.298551
H	 3.867136	 1.491650	 0.100501
H	 5.351524	 0.571613	 0.142204

	symmetry c1
}
set optking {
	frozen_dihedral = ("
		3 5 8 12
	")
}

ee,wfn = optimize('scf', return_wfn=True)
oeprop( wfn, 'DIPOLE', 'QUADRUPOLE', 'MULLIKEN_CHARGES')
f=open( 'psi4out.xyz', 'w' )
f.write( "25  " )
f.write( str(ee) + "\n" )
f.write( MOL.save_string_xyz() )
f.close()
--------------------------------------------------------------------------

    Molecular point group: c1
  Charge       = 0
  Multiplicity = 1
  Basis Set: CC-PVTZ
  Basis Set:
  @DF-RHF Final Energy:  -387.25462906845246
    Total Energy =                       -387.2546290684525729
    Molecular point group: c1
  Basis Set: CC-PVTZ
  Basis Set:
  Basis Set: CC-PVTZ
  Basis Set:
  @DF-RHF Final Energy:  -387.25491740734861
    Total Energy =                       -387.2549174073490121
  Basis Set: CC-PVTZ
  Basis Set:
  Basis Set: CC-PVTZ
  Basis Set:
  @DF-RHF Final Energy:  -387.25484589037001
    Total Energy =                       -387.2548458903700066
  Basis Set: CC-PVTZ
  Basis Set:
  Basis Set: CC-PVTZ
  Basis Set:
  @DF-RHF Final Energy:  -387.25500236752703
    Total Energy =                       -387.2550023675270268
  Basis Set: CC-PVTZ
  Basis Set:
  @DF-RHF Final Energy:  -387.25501612731290
    Total Energy =                       -387.2550161273135245
  Basis Set: CC-PVTZ
  Basis Set:
  @DF-RHF Final Energy:  -387.25502808195426
    Total Energy =                       -387.2550280819547197
  Basis Set: CC-PVTZ
  Basis Set:
  Basis Set: CC-PVTZ
  Basis Set:
  @DF-RHF Final Energy:  -387.25502956992710
    Total Energy =                       -387.2550295699270464
  Basis Set: CC-PVTZ
  Basis Set:
  Basis Set: CC-PVTZ
  Basis Set:
  @DF-RHF Final Energy:  -387.25503125209974
    Total Energy =                       -387.2550312520994567
  Basis Set: CC-PVTZ
  Basis Set:
  Charge       = 0
  Multiplicity = 1
  Basis Set: CC-PVTZ
  Basis Set:

    Orbital Energies (a.u.)
    -----------------------

    Doubly Occupied:

       1A    -20.552459     2A    -11.321169     3A    -11.233988
       4A    -11.232811     5A    -11.219824     6A    -11.216944
       7A    -11.214571     8A    -11.213175     9A    -11.207677
      10A     -1.407054    11A     -1.102566    12A     -1.069172
      13A     -1.012782    14A     -0.942245    15A     -0.877390
      16A     -0.818058    17A     -0.789699    18A     -0.779921
      19A     -0.669855    20A     -0.656351    21A     -0.643098
      22A     -0.618752    23A     -0.613583    24A     -0.580260
      25A     -0.573936    26A     -0.561043    27A     -0.535289
      28A     -0.520946    29A     -0.511264    30A     -0.503531
      31A     -0.485598    32A     -0.475172    33A     -0.461604
      34A     -0.457929    35A     -0.442562    36A     -0.411648

  @DF-RHF Final Energy:  -387.25503150238029

   => Energetics <=

    Nuclear Repulsion Energy =            447.5064709380325780
    One-Electron Energy =               -1411.6551519454458230
    Two-Electron Energy =                 576.8936495050335225
    DFT Exchange-Correlation Energy =       0.0000000000000000
    Empirical Dispersion Energy =           0.0000000000000000
    PCM Polarization Energy =               0.0000000000000000
    EFP Energy =                            0.0000000000000000
    Total Energy =                       -387.2550315023796657
    Molecular point group: c1
  Basis Set: CC-PVTZ
  Basis Set:

  -Total Gradient:
     Atom            X                  Y                   Z
    ------   -----------------  -----------------  -----------------
       1        0.000017641450    -0.000004808022    -0.000008795675
       2        0.000000834664    -0.000006921003    -0.000001637821
       3       -0.000063221993    -0.000020549433    -0.000082005472
       4       -0.000021562546     0.000009968576     0.000010157991
       5        0.000067918119     0.000014144912     0.000127452539
       6        0.000009976241    -0.000000415752    -0.000008921046
       7       -0.000008793581    -0.000007390528     0.000003449156
       8        0.000105747648     0.000117460835    -0.000042457143
       9       -0.000001278481    -0.000003039467    -0.000000734881
      10       -0.000004574534     0.000002881049     0.000000795101
      11        0.000011683455    -0.000001825005    -0.000002628349
      12       -0.000109177925    -0.000101320417     0.000008002793
      13        0.000001917212    -0.000002177669    -0.000000713386
      14       -0.000001138421     0.000000331714     0.000003187401
      15        0.000000680524     0.000001826098    -0.000002223218
      16        0.000000015494     0.000001178106    -0.000000852038
      17       -0.000000851508    -0.000000745577    -0.000001941409
      18        0.000000613422     0.000001873954     0.000000342504
      19       -0.000000136789    -0.000001290239    -0.000001409915
      20       -0.000002117813    -0.000000052026    -0.000000774615
      21       -0.000000927496    -0.000001713960     0.000001085213
      22       -0.000001018455     0.000001308626    -0.000000021460
      23       -0.000000351079     0.000000226204     0.000000135604
      24       -0.000001703869     0.000002111963     0.000000419102
      25       -0.000000173745    -0.000001062937     0.000000089027

  **** Optimization is complete! (in 9 steps) ****
    Final optimized geometry and variables:
    Molecular point group: c1

    Geometry (in Angstrom), charge = 0, multiplicity = 1:

    H           -1.725977206795     0.907271642393     2.300821992349
    C           -2.262177219529     0.145331179938     1.719351185121
    C           -2.769751737306     0.609488574751     0.381977290495
    O           -2.400316919092    -0.944253064256     2.157570623118
    C           -1.639436611397     1.107724965657    -0.528218604606
    H           -3.318441703545    -0.200579412950    -0.080183231254
    H           -3.462983904881     1.426030672229     0.570065339409
    C           -0.654984946041     0.003677096557    -0.969996505156
    H           -2.093344977397     1.569874086848    -1.395804416607
    H           -1.100724720133     1.901639168407    -0.019175795915
    C            0.780081517410     0.232412924323    -0.497425339247
    H           -0.660016098378    -0.071218020781    -2.052144264981
    H           -0.996165553276    -0.959466822452    -0.604700078538
    C            1.735297413887    -0.871378512171    -0.945327820343
    H            1.121630252390     1.194677642706    -0.866037553239
    H            0.795929127901     0.297755823706     0.588530398853
    C            3.168021991762    -0.729858905110    -0.428406017741
    H            1.749975139116    -0.913418665339    -2.032199910791
    H            1.341280555142    -1.826640855769    -0.610468244975
    C            3.926744146109     0.478462262548    -0.971943857202
    H            3.715916735632    -1.629969036680    -0.689144054121
    H            3.154482427017    -0.688884575418     0.657467342199
    H            3.950256458304     0.467694166466    -2.057044702778
    H            3.477988905805     1.414053325724    -0.660372396039
    H            4.952215422277     0.477769302520    -0.620648684666

  Mulliken Charges: (a.u.)
   Center  Symbol    Alpha    Beta     Spin     Total
       1     H     0.46291  0.46291  0.00000  0.07418
       2     C     2.90436  2.90436  0.00000  0.19127
       3     C     3.08735  3.08735  0.00000 -0.17469
       4     O     4.16662  4.16662  0.00000 -0.33324
       5     C     3.11998  3.11998  0.00000 -0.23996
       6     H     0.44280  0.44280  0.00000  0.11439
       7     H     0.44208  0.44208  0.00000  0.11585
       8     C     3.10652  3.10652  0.00000 -0.21303
       9     H     0.43781  0.43781  0.00000  0.12438
      10     H     0.44977  0.44977  0.00000  0.10047
      11     C     3.09108  3.09108  0.00000 -0.18216
      12     H     0.44415  0.44415  0.00000  0.11171
      13     H     0.44270  0.44270  0.00000  0.11461
      14     C     3.09686  3.09686  0.00000 -0.19372
      15     H     0.45094  0.45094  0.00000  0.09812
      16     H     0.45401  0.45401  0.00000  0.09199
      17     C     3.09090  3.09090  0.00000 -0.18179
      18     H     0.45377  0.45377  0.00000  0.09245
      19     H     0.44609  0.44609  0.00000  0.10783
      20     C     3.15247  3.15247  0.00000 -0.30494
      21     H     0.44780  0.44780  0.00000  0.10439
      22     H     0.45343  0.45343  0.00000  0.09315
      23     H     0.45499  0.45499  0.00000  0.09003
      24     H     0.45469  0.45469  0.00000  0.09062
      25     H     0.44594  0.44594  0.00000  0.10812

   Total alpha = 36.00000, Total beta = 36.00000, Total charge = -0.00000

*** Psi4 exiting successfully. Buy a developer a beer!
