  ==> Input File <==

--------------------------------------------------------------------------
set {
	reference rhf
	basis 6-31G*
}

set_num_threads( 1 )
memory 2 gb

molecule MOL {
0 1

O	 -3.259760	 0.420976	 0.989744
C	 -2.668563	 0.129746	 -0.000350
C	 -3.185711	 0.384488	 -1.392805
O	 -1.481751	 -0.454642	 0.000584
H	 -3.364848	 1.446743	 -1.508502
H	 -2.493019	 0.044393	 -2.148418
H	 -4.136036	 -0.122679	 -1.509183
C	 -0.334255	 0.388708	 0.000906
C	 0.891947	 -0.504646	 0.000751
H	 -0.365390	 1.025305	 -0.873475
H	 -0.365484	 1.024911	 0.875569
C	 2.191998	 0.301789	 0.000897
H	 0.855148	 -1.151283	 -0.871571
H	 0.855132	 -1.151660	 0.872805
C	 3.441114	 -0.581407	 0.000108
H	 2.215074	 0.954890	 -0.869742
H	 2.215465	 0.953923	 0.872248
C	 4.739576	 0.224112	 -0.001102
H	 3.419457	 -1.233487	 -0.870178
H	 3.420834	 -1.233096	 0.870717
H	 4.804918	 0.861552	 -0.878265
H	 5.606527	 -0.429058	 -0.001824
H	 4.806469	 0.861674	 0.875853

	symmetry c1
}
set optking {
	frozen_dihedral = ("
		13 9 8 10,
		2 4 8 10,
		16 12 9 13,
		19 15 12 16
	")
}

ee = energy('scf')
oeprop('DIPOLE', 'QUADRUPOLE', 'MULLIKEN_CHARGES')
f=open( 'psi4out.xyz', 'w' )
f.write( "23  " )
f.write( str(ee) + "\n" )
f.write( MOL.save_string_xyz() )
f.close()
--------------------------------------------------------------------------

    Molecular point group: c1

    Geometry (in Angstrom), charge = 0, multiplicity = 1:

       Center              X                  Y                   Z               Mass
    ------------   -----------------  -----------------  -----------------  -----------------
           O         -3.280391858022     0.379149388847     1.036349159907    15.994914619560
           C         -2.689194858022     0.087919388847     0.046255159907    12.000000000000
           C         -3.206342858022     0.342661388847    -1.346199840093    12.000000000000
           O         -1.502382858022    -0.496468611153     0.047189159907    15.994914619560
           H         -3.385479858022     1.404916388847    -1.461896840093     1.007825032070
           H         -2.513650858022     0.002566388847    -2.101812840093     1.007825032070
           H         -4.156667858022    -0.164505611153    -1.462577840093     1.007825032070
           C         -0.354886858022     0.346881388847     0.047511159907    12.000000000000
           C          0.871315141978    -0.546472611153     0.047356159907    12.000000000000
           H         -0.386021858022     0.983478388847    -0.826869840093     1.007825032070
           H         -0.386115858022     0.983084388847     0.922174159907     1.007825032070
           C          2.171366141978     0.259962388847     0.047502159907    12.000000000000
           H          0.834516141978    -1.193109611153    -0.824965840093     1.007825032070
           H          0.834500141978    -1.193486611153     0.919410159907     1.007825032070
           C          3.420482141978    -0.623233611153     0.046713159907    12.000000000000
           H          2.194442141978     0.913063388847    -0.823136840093     1.007825032070
           H          2.194833141978     0.912096388847     0.918853159907     1.007825032070
           C          4.718944141978     0.182285388847     0.045503159907    12.000000000000
           H          3.398825141978    -1.275313611153    -0.823572840093     1.007825032070
           H          3.400202141978    -1.274922611153     0.917322159907     1.007825032070
           H          4.784286141978     0.819725388847    -0.831659840093     1.007825032070
           H          5.585895141978    -0.470884611153     0.044781159907     1.007825032070
           H          4.785837141978     0.819847388847     0.922458159907     1.007825032070

  Charge       = 0
  Multiplicity = 1
  Basis Set: 6-31G*
  Basis Set:

    Orbital Energies (a.u.)
    -----------------------

    Doubly Occupied:

       1A    -20.583101     2A    -20.550146     3A    -11.374815
       4A    -11.295904     5A    -11.232380     6A    -11.229071
       7A    -11.227935     8A    -11.224530     9A    -11.215367
      10A     -1.461338    11A     -1.364543    12A     -1.097249
      13A     -1.039019    14A     -1.007102    15A     -0.938338
      16A     -0.846046    17A     -0.807144    18A     -0.777085
      19A     -0.700103    20A     -0.684792    21A     -0.654988
      22A     -0.651076    23A     -0.618614    24A     -0.591713
      25A     -0.582948    26A     -0.576591    27A     -0.560042
      28A     -0.550186    29A     -0.518024    30A     -0.502344
      31A     -0.484472    32A     -0.479293    33A     -0.474700
      34A     -0.472530    35A     -0.453269    36A     -0.432895

  @DF-RHF Final Energy:  -422.95757386654640

   => Energetics <=

    Nuclear Repulsion Energy =            449.9448504090362917
    One-Electron Energy =               -1467.2854637104776430
    Two-Electron Energy =                 594.3830394348950676
    DFT Exchange-Correlation Energy =       0.0000000000000000
    Empirical Dispersion Energy =           0.0000000000000000
    PCM Polarization Energy =               0.0000000000000000
    EFP Energy =                            0.0000000000000000
    Total Energy =                       -422.9575738665463405

  Mulliken Charges: (a.u.)
   Center  Symbol    Alpha    Beta     Spin     Total
       1     O     4.25623  4.25623  0.00000 -0.51246
       2     C     2.62538  2.62538  0.00000  0.74924
       3     C     3.29422  3.29422  0.00000 -0.58844
       4     O     4.31716  4.31716  0.00000 -0.63432
       5     H     0.39924  0.39924  0.00000  0.20152
       6     H     0.40467  0.40467  0.00000  0.19066
       7     H     0.39477  0.39477  0.00000  0.21045
       8     C     2.99676  2.99676  0.00000  0.00648
       9     C     3.16328  3.16328  0.00000 -0.32655
      10     H     0.42242  0.42242  0.00000  0.15517
      11     H     0.40945  0.40945  0.00000  0.18110
      12     C     3.16139  3.16139  0.00000 -0.32279
      13     H     0.41296  0.41296  0.00000  0.17408
      14     H     0.40772  0.40772  0.00000  0.18455
      15     C     3.15180  3.15180  0.00000 -0.30360
      16     H     0.42249  0.42249  0.00000  0.15503
      17     H     0.42008  0.42008  0.00000  0.15985
      18     C     3.24000  3.24000  0.00000 -0.47999
      19     H     0.42110  0.42110  0.00000  0.15781
      20     H     0.41985  0.41985  0.00000  0.16031
      21     H     0.42132  0.42132  0.00000  0.15737
      22     H     0.41723  0.41723  0.00000  0.16553
      23     H     0.42050  0.42050  0.00000  0.15901

   Total alpha = 36.00000, Total beta = 36.00000, Total charge =  0.00000
