  ==> Input File <==

--------------------------------------------------------------------------
set {
	reference rhf
	basis 6-31G*
}

set_num_threads( 4 )
memory 2 gb

molecule MOL {
0 1

H	 -3.261111	 -0.295142	 1.469456
C	 -3.306842	 -0.277400	 0.373456
C	 -2.660244	 0.921717	 -0.272021
O	 -3.838538	 -1.161155	 -0.216482
C	 -1.220012	 1.144545	 0.209990
H	 -2.705793	 0.797307	 -1.347733
H	 -3.263782	 1.790044	 -0.010477
C	 -0.252658	 0.041456	 -0.226725
H	 -0.873521	 2.100229	 -0.171974
H	 -1.211708	 1.231594	 1.295398
C	 1.180775	 0.282413	 0.250794
H	 -0.266029	 -0.034465	 -1.312038
H	 -0.597733	 -0.921000	 0.146291
C	 2.148627	 -0.814315	 -0.201312
H	 1.516199	 1.249228	 -0.115937
H	 1.192670	 0.346017	 1.338083
C	 3.580890	 -0.659131	 0.322722
H	 2.166869	 -0.852443	 -1.289387
H	 1.762857	 -1.776509	 0.128956
C	 4.300101	 0.602654	 -0.157126
H	 4.156147	 -1.527313	 0.010812
H	 3.570425	 -0.677812	 1.410593
H	 4.311625	 0.656279	 -1.242603
H	 3.827405	 1.505950	 0.213803
H	 5.330778	 0.611686	 0.184369

	symmetry c1
}
set optking {
	frozen_dihedral = ("
		20 17 14 18
	")
}

ee = optimize('scf')
oeprop('DIPOLE', 'QUADRUPOLE', 'MULLIKEN_CHARGES')
f=open( 'psi4out.xyz', 'w' )
f.write( "25  " )
f.write( str(ee) + "\n" )
f.write( MOL.save_string_xyz() )
f.close()
--------------------------------------------------------------------------

    Molecular point group: c1
  Charge       = 0
  Multiplicity = 1
  Basis Set: 6-31G*
  Basis Set:
  @DF-RHF Final Energy:  -387.12201998323906
    Total Energy =                       -387.1220199832386015
    Molecular point group: c1
  Basis Set: 6-31G*
  Basis Set:
  Basis Set: 6-31G*
  Basis Set:
  @DF-RHF Final Energy:  -387.12164372248043
    Total Energy =                       -387.1216437224808260
  Basis Set: 6-31G*
  Basis Set:
  Basis Set: 6-31G*
  Basis Set:
  @DF-RHF Final Energy:  -387.12195253860511
    Total Energy =                       -387.1219525386047735
  Basis Set: 6-31G*
  Basis Set:
  Basis Set: 6-31G*
  Basis Set:
  @DF-RHF Final Energy:  -387.12202770798785
    Total Energy =                       -387.1220277079873995
  Basis Set: 6-31G*
  Basis Set:
  Charge       = 0
  Multiplicity = 1
  Basis Set: 6-31G*
  Basis Set:

    Orbital Energies (a.u.)
    -----------------------

    Doubly Occupied:

       1A    -20.562050     2A    -11.326194     3A    -11.235388
       4A    -11.234699     5A    -11.223986     6A    -11.219918
       7A    -11.218107     8A    -11.217034     9A    -11.210713
      10A     -1.401989    11A     -1.103986    12A     -1.069711
      13A     -1.013346    14A     -0.942494    15A     -0.875659
      16A     -0.820674    17A     -0.788346    18A     -0.780765
      19A     -0.664425    20A     -0.662187    21A     -0.633128
      22A     -0.625813    23A     -0.601281    24A     -0.594500
      25A     -0.575698    26A     -0.549675    27A     -0.535963
      28A     -0.524847    29A     -0.508609    30A     -0.494983
      31A     -0.491809    32A     -0.479512    33A     -0.464111
      34A     -0.459102    35A     -0.441466    36A     -0.409601

  @DF-RHF Final Energy:  -387.12202723991152

   => Energetics <=

    Nuclear Repulsion Energy =            439.1168499254077915
    One-Electron Energy =               -1394.5542144063415435
    Two-Electron Energy =                 568.3153372410225757
    DFT Exchange-Correlation Energy =       0.0000000000000000
    Empirical Dispersion Energy =           0.0000000000000000
    PCM Polarization Energy =               0.0000000000000000
    EFP Energy =                            0.0000000000000000
    Total Energy =                       -387.1220272399111764
    Molecular point group: c1
  Basis Set: 6-31G*
  Basis Set:

  -Total Gradient:
     Atom            X                  Y                   Z
    ------   -----------------  -----------------  -----------------
       1        0.000026028690    -0.000009642953     0.000006946619
       2       -0.000101400411     0.000091555759     0.000096440930
       3        0.000025819492     0.000013237909    -0.000062815229
       4        0.000024903808     0.000011595320    -0.000024639224
       5       -0.000046434422    -0.000059990508     0.000103873522
       6        0.000017770246    -0.000053902737    -0.000008488901
       7        0.000016354555     0.000023397528    -0.000051826498
       8        0.000038997957     0.000098151642    -0.000048271008
       9       -0.000063933356     0.000029933947     0.000019800748
      10       -0.000002409348    -0.000058635478    -0.000006658331
      11       -0.000065620643    -0.000002230907     0.000062861536
      12        0.000012818677    -0.000033508574    -0.000015410200
      13        0.000046511682     0.000010787620     0.000001956795
      14       -0.000074988853     0.000743913897     0.000023060963
      15        0.000072095337     0.000001763669     0.000022500660
      16       -0.000091595880    -0.000002482428     0.000006499273
      17        0.000248811371    -0.000491984170    -0.000517890751
      18        0.000006199914    -0.000606434748     0.000030382087
      19        0.000052500070     0.000036707306     0.000012926385
      20       -0.000131141441     0.000243071184     0.000348764311
      21        0.000022742049    -0.000021174753     0.000029824325
      22       -0.000003499857     0.000010770391    -0.000023518803
      23        0.000004019405    -0.000012946631     0.000005528177
      24       -0.000021164831     0.000016310236     0.000000918501
      25       -0.000013384208     0.000021737479    -0.000012765883

  **** Optimization is complete! (in 5 steps) ****
    Final optimized geometry and variables:
    Molecular point group: c1

    Geometry (in Angstrom), charge = 0, multiplicity = 1:

    H           -3.276732959284    -0.276581204115     1.470829465272
    C           -3.313125790264    -0.275611080880     0.374244070788
    C           -2.656961691865     0.911376706082    -0.284021528229
    O           -3.847777614620    -1.163956039488    -0.206121130304
    C           -1.218206859823     1.133784046577     0.202906248644
    H           -2.697032844393     0.772115095466    -1.358193515246
    H           -3.257747672825     1.786061217797    -0.038125451586
    C           -0.247641885796     0.034703751077    -0.237023620765
    H           -0.872184129763     2.092416244457    -0.172543971590
    H           -1.212911745008     1.214585941345     1.288662114124
    C            1.185555477612     0.278842687317     0.239647199126
    H           -0.261103387604    -0.037449661610    -1.322629089420
    H           -0.589658449331    -0.930079390746     0.132921485033
    C            2.156333552849    -0.813465345780    -0.216752620639
    H            1.517777999830     1.247864412273    -0.123873827206
    H            1.197715631826     0.338755435851     1.327102658014
    C            3.587712856318    -0.663020590493     0.311087196291
    H            2.176857390491    -0.848214117241    -1.304816886804
    H            1.771714245646    -1.778461958689     0.106743103377
    C            4.312912716190     0.598286912614    -0.161895479502
    H            4.160567715469    -1.533707475836     0.002045226618
    H            3.572134688678    -0.681626852216     1.399011089068
    H            4.325643044278     0.658379930768    -1.246994676747
    H            3.844394631577     1.501620273422     0.214260074395
    H            5.343312263010     0.600645927228     0.179857429699

  Mulliken Charges: (a.u.)
   Center  Symbol    Alpha    Beta     Spin     Total
       1     H     0.43259  0.43259  0.00000  0.13482
       2     C     2.83082  2.83082  0.00000  0.33835
       3     C     3.20823  3.20823  0.00000 -0.41647
       4     O     4.23771  4.23771  0.00000 -0.47543
       5     C     3.16669  3.16669  0.00000 -0.33337
       6     H     0.39965  0.39965  0.00000  0.20070
       7     H     0.40659  0.40659  0.00000  0.18682
       8     C     3.15457  3.15457  0.00000 -0.30914
       9     H     0.41292  0.41292  0.00000  0.17415
      10     H     0.41961  0.41961  0.00000  0.16078
      11     C     3.15438  3.15438  0.00000 -0.30877
      12     H     0.41810  0.41810  0.00000  0.16379
      13     H     0.41835  0.41835  0.00000  0.16329
      14     C     3.15308  3.15308  0.00000 -0.30616
      15     H     0.42065  0.42065  0.00000  0.15870
      16     H     0.42380  0.42380  0.00000  0.15240
      17     C     3.15252  3.15252  0.00000 -0.30503
      18     H     0.42301  0.42301  0.00000  0.15397
      19     H     0.42073  0.42073  0.00000  0.15855
      20     C     3.24159  3.24159  0.00000 -0.48319
      21     H     0.41992  0.41992  0.00000  0.16016
      22     H     0.42331  0.42331  0.00000  0.15337
      23     H     0.42200  0.42200  0.00000  0.15600
      24     H     0.42052  0.42052  0.00000  0.15895
      25     H     0.41862  0.41862  0.00000  0.16276

   Total alpha = 36.00000, Total beta = 36.00000, Total charge =  0.00000
