  ==> Input File <==

--------------------------------------------------------------------------
set {
	reference rhf
	basis 6-31G*
}

set_num_threads( 1 )
memory 2 gb

molecule MOL {
0 1

H	 3.194707	 1.296884	 -0.635955
O	 2.264611	 1.178500	 -0.469633
C	 2.077727	 -0.067559	 -0.035091
C	 0.624473	 -0.343591	 0.253101
O	 2.977054	 -0.832800	 0.093879
C	 -0.265902	 0.883932	 0.072916
H	 0.324016	 -1.163849	 -0.390541
H	 0.565024	 -0.726111	 1.268924
C	 -1.728698	 0.646073	 0.462102
H	 -0.209144	 1.219470	 -0.958188
H	 0.135059	 1.692851	 0.673903
C	 -2.482460	 -0.343073	 -0.431425
H	 -2.245265	 1.602650	 0.432430
H	 -1.779332	 0.308348	 1.496285
C	 -3.960546	 -0.461025	 -0.060175
H	 -2.395034	 -0.026811	 -1.468912
H	 -2.024850	 -1.327147	 -0.371646
H	 -4.472726	 -1.168004	 -0.705284
H	 -4.465146	 0.496508	 -0.151489
H	 -4.081218	 -0.800940	 0.964585

	symmetry c1
}
set optking {
	frozen_dihedral = ("
		16 12 9 6,
		7 4 6 10,
		12 9 6 10,
		1 2 3 5
	")
}

ee = energy('scf')
oeprop('DIPOLE', 'QUADRUPOLE', 'MULLIKEN_CHARGES')
f=open( 'psi4out.xyz', 'w' )
f.write( "20  " )
f.write( str(ee) + "\n" )
f.write( MOL.save_string_xyz() )
f.close()
--------------------------------------------------------------------------

    Molecular point group: c1

    Geometry (in Angstrom), charge = 0, multiplicity = 1:

       Center              X                  Y                   Z               Mass
    ------------   -----------------  -----------------  -----------------  -----------------
           H          3.216892488584     1.204525146764    -0.612543457095     1.007825032070
           O          2.286796488584     1.086141146764    -0.446221457095    15.994914619560
           C          2.099912488584    -0.159917853236    -0.011679457095    12.000000000000
           C          0.646658488584    -0.435949853236     0.276512542905    12.000000000000
           O          2.999239488584    -0.925158853236     0.117290542905    15.994914619560
           C         -0.243716511416     0.791573146764     0.096327542905    12.000000000000
           H          0.346201488584    -1.256207853236    -0.367129457095     1.007825032070
           H          0.587209488584    -0.818469853236     1.292335542905     1.007825032070
           C         -1.706512511416     0.553714146764     0.485513542905    12.000000000000
           H         -0.186958511416     1.127111146764    -0.934776457095     1.007825032070
           H          0.157244488584     1.600492146764     0.697314542905     1.007825032070
           C         -2.460274511416    -0.435431853236    -0.408013457095    12.000000000000
           H         -2.223079511416     1.510291146764     0.455841542905     1.007825032070
           H         -1.757146511416     0.215989146764     1.519696542905     1.007825032070
           C         -3.938360511416    -0.553383853236    -0.036763457095    12.000000000000
           H         -2.372848511416    -0.119169853236    -1.445500457095     1.007825032070
           H         -2.002664511416    -1.419505853236    -0.348234457095     1.007825032070
           H         -4.450540511416    -1.260362853236    -0.681872457095     1.007825032070
           H         -4.442960511416     0.404149146764    -0.128077457095     1.007825032070
           H         -4.059032511416    -0.893298853236     0.987996542905     1.007825032070

  Charge       = 0
  Multiplicity = 1
  Basis Set: 6-31G*
  Basis Set:

    Orbital Energies (a.u.)
    -----------------------

    Doubly Occupied:

       1A    -20.613698     2A    -20.548130     3A    -11.381477
       4A    -11.240048     5A    -11.224314     6A    -11.221430
       7A    -11.220831     8A    -11.212984     9A     -1.474880
      10A     -1.364588    11A     -1.098383    12A     -1.042509
      13A     -0.958912    14A     -0.860140    15A     -0.826827
      16A     -0.791375    17A     -0.699516    18A     -0.678991
      19A     -0.665306    20A     -0.633253    21A     -0.600472
      22A     -0.588445    23A     -0.576033    24A     -0.554173
      25A     -0.546951    26A     -0.520096    27A     -0.500827
      28A     -0.482352    29A     -0.474891    30A     -0.468321
      31A     -0.455325    32A     -0.433050

  @DF-RHF Final Energy:  -383.94446655542515

   => Energetics <=

    Nuclear Repulsion Energy =            377.9907693315260531
    One-Electron Energy =               -1271.9534444775213160
    Two-Electron Energy =                 510.0182085905706799
    DFT Exchange-Correlation Energy =       0.0000000000000000
    Empirical Dispersion Energy =           0.0000000000000000
    PCM Polarization Energy =               0.0000000000000000
    EFP Energy =                            0.0000000000000000
    Total Energy =                       -383.9444665554245830

  Mulliken Charges: (a.u.)
   Center  Symbol    Alpha    Beta     Spin     Total
       1     H     0.26747  0.26747  0.00000  0.46505
       2     O     4.34990  4.34990  0.00000 -0.69980
       3     C     2.61819  2.61819  0.00000  0.76361
       4     C     3.21967  3.21967  0.00000 -0.43935
       5     O     4.28221  4.28221  0.00000 -0.56441
       6     C     3.15418  3.15418  0.00000 -0.30835
       7     H     0.39435  0.39435  0.00000  0.21131
       8     H     0.39664  0.39664  0.00000  0.20672
       9     C     3.15515  3.15515  0.00000 -0.31030
      10     H     0.41215  0.41215  0.00000  0.17570
      11     H     0.40975  0.40975  0.00000  0.18051
      12     C     3.15504  3.15504  0.00000 -0.31007
      13     H     0.41857  0.41857  0.00000  0.16286
      14     H     0.42341  0.42341  0.00000  0.15319
      15     C     3.23925  3.23925  0.00000 -0.47850
      16     H     0.42191  0.42191  0.00000  0.15618
      17     H     0.42215  0.42215  0.00000  0.15570
      18     H     0.41811  0.41811  0.00000  0.16379
      19     H     0.42089  0.42089  0.00000  0.15821
      20     H     0.42102  0.42102  0.00000  0.15795

   Total alpha = 32.00000, Total beta = 32.00000, Total charge = -0.00000
