  ==> Input File <==

--------------------------------------------------------------------------
set {
	reference rhf
	basis 6-31G*
}

set_num_threads( 4 )
memory 2 gb

molecule MOL {
0 1

O	 -2.821601	 1.309235	 -0.001213
C	 -2.668563	 0.129746	 -0.000350
C	 -3.801572	 -0.864014	 -0.000442
O	 -1.481751	 -0.454642	 0.000584
H	 -4.417280	 -0.689587	 -0.874708
H	 -3.443784	 -1.883046	 -0.000565
H	 -4.417179	 -0.689832	 0.873954
C	 -0.334255	 0.388708	 0.000906
C	 0.891947	 -0.504646	 0.000751
H	 -0.365390	 1.025305	 -0.873475
H	 -0.365484	 1.024911	 0.875569
C	 2.191998	 0.301789	 0.000897
H	 0.855148	 -1.151283	 -0.871571
H	 0.855132	 -1.151660	 0.872805
C	 3.441114	 -0.581407	 0.000108
H	 2.215074	 0.954890	 -0.869742
H	 2.215465	 0.953923	 0.872248
C	 4.708474	 0.180465	 -0.384880
H	 3.294464	 -1.410429	 -0.688580
H	 3.569889	 -1.022390	 0.986020
H	 4.623417	 0.605301	 -1.381020
H	 5.576121	 -0.471728	 -0.376648
H	 4.901100	 0.996019	 0.306334

	symmetry c1
}
set optking {
	frozen_dihedral = ("
		19 15 12 16
	")
}

ee = optimize('scf')
oeprop('DIPOLE', 'QUADRUPOLE', 'MULLIKEN_CHARGES')
f=open( 'psi4out.xyz', 'w' )
f.write( "23  " )
f.write( str(ee) + "\n" )
f.write( MOL.save_string_xyz() )
f.close()
--------------------------------------------------------------------------

    Molecular point group: c1
  Charge       = 0
  Multiplicity = 1
  Basis Set: 6-31G*
  Basis Set:
  @DF-RHF Final Energy:  -422.97857583352442
    Total Energy =                       -422.9785758335249284
    Molecular point group: c1
  Basis Set: 6-31G*
  Basis Set:
  Basis Set: 6-31G*
  Basis Set:
  @DF-RHF Final Energy:  -422.97867624504670
    Total Energy =                       -422.9786762450472679
  Basis Set: 6-31G*
  Basis Set:
  Basis Set: 6-31G*
  Basis Set:
  @DF-RHF Final Energy:  -422.97871811808335
    Total Energy =                       -422.9787181180835205
  Basis Set: 6-31G*
  Basis Set:
  Basis Set: 6-31G*
  Basis Set:
  @DF-RHF Final Energy:  -422.97863283719579
    Total Energy =                       -422.9786328371951640
  Basis Set: 6-31G*
  Basis Set:
  Basis Set: 6-31G*
  Basis Set:
  @DF-RHF Final Energy:  -422.97872609110863
    Total Energy =                       -422.9787260911083422
  Basis Set: 6-31G*
  Basis Set:
  Charge       = 0
  Multiplicity = 1
  Basis Set: 6-31G*
  Basis Set:

    Orbital Energies (a.u.)
    -----------------------

    Doubly Occupied:

       1A    -20.603082     2A    -20.540583     3A    -11.374132
       4A    -11.281569     5A    -11.232416     6A    -11.224625
       7A    -11.223790     8A    -11.221604     9A    -11.213250
      10A     -1.468047    11A     -1.360803    12A     -1.094062
      13A     -1.042225    14A     -1.003574    15A     -0.931059
      16A     -0.842111    17A     -0.803051    18A     -0.774562
      19A     -0.692076    20A     -0.685156    21A     -0.668150
      22A     -0.644799    23A     -0.606201    24A     -0.589013
      25A     -0.582451    26A     -0.567600    27A     -0.557818
      28A     -0.537371    29A     -0.523305    30A     -0.505095
      31A     -0.491877    32A     -0.479030    33A     -0.468573
      34A     -0.465702    35A     -0.451312    36A     -0.435443

  @DF-RHF Final Energy:  -422.97872636014034

   => Energetics <=

    Nuclear Repulsion Energy =            449.5946458129447478
    One-Electron Energy =               -1466.7757095851106897
    Two-Electron Energy =                 594.2023374120251447
    DFT Exchange-Correlation Energy =       0.0000000000000000
    Empirical Dispersion Energy =           0.0000000000000000
    PCM Polarization Energy =               0.0000000000000000
    EFP Energy =                            0.0000000000000000
    Total Energy =                       -422.9787263601408540
    Molecular point group: c1
  Basis Set: 6-31G*
  Basis Set:

  -Total Gradient:
     Atom            X                  Y                   Z
    ------   -----------------  -----------------  -----------------
       1        0.000007668788    -0.000010026935    -0.000005483855
       2        0.000012585471    -0.000011743717     0.000013366222
       3       -0.000002419773     0.000004582702    -0.000000728015
       4       -0.000039176980     0.000006908387    -0.000006793412
       5        0.000011782716     0.000001808673     0.000006348480
       6        0.000002186162    -0.000003604333    -0.000000666018
       7        0.000011511394     0.000004896596    -0.000008782868
       8        0.000006441092     0.000015003599     0.000003477972
       9        0.000005590383    -0.000016516756    -0.000020699910
      10       -0.000001978308    -0.000000318775    -0.000000789163
      11        0.000004109940    -0.000003327952    -0.000003240684
      12       -0.001956580374    -0.002867975766    -0.001368361707
      13       -0.000006112584    -0.000000940563     0.000001476123
      14        0.000011096285     0.000008948976    -0.000003533942
      15        0.001737352101     0.002431503906    -0.002276877676
      16        0.001365257471     0.001999802393     0.001539267346
      17        0.000004337680     0.000009261468     0.000012633589
      18       -0.000003140473     0.000006917577    -0.000015049093
      19       -0.001150406120    -0.001554213755     0.002123088835
      20       -0.000000191973    -0.000002419600     0.000009094238
      21        0.000006918210    -0.000006361553     0.000004844089
      22       -0.000009969883    -0.000001623990     0.000007745711
      23       -0.000016861220    -0.000010560582    -0.000010336264

  **** Optimization is complete! (in 6 steps) ****
    Final optimized geometry and variables:
    Molecular point group: c1

    Geometry (in Angstrom), charge = 0, multiplicity = 1:

    O           -2.819243967939     1.314671643324     0.079500101193
    C           -2.666957014848     0.135213637824     0.062175073617
    C           -3.800503519213    -0.857886062238     0.063835675001
    O           -1.480663921958    -0.449720150187     0.039326960820
    H           -4.428068844705    -0.670909476325    -0.799306579515
    H           -3.443453894448    -1.877003237237     0.044571273076
    H           -4.403822433840    -0.695590056048     0.948997334637
    C           -0.332715761760     0.393023072167     0.035650884991
    C            0.892657559526    -0.500868490925     0.008169002440
    H           -0.374384227889     1.040713329913    -0.830138694460
    H           -0.352200403848     1.017980238550     0.918656387554
    C            2.192464860523     0.303664905423    -0.006639344753
    H            0.841607039175    -1.140514175512    -0.868391172054
    H            0.870323389365    -1.154938651486     0.875671822948
    C            3.446102756484    -0.575924108877     0.027479450727
    H            2.224888444524     0.950885557286    -0.881376450430
    H            2.213499124963     0.974968960197     0.850601655170
    C            4.726189603509     0.187802242863    -0.303558199132
    H            3.322840301110    -1.414775533510    -0.653979892298
    H            3.536680736996    -1.018268741054     1.017395927779
    H            4.692807711769     0.590807975863    -1.311616519436
    H            5.597197464453    -0.455931590711    -0.232467084907
    H            4.873169137331     1.019615762459     0.379641899456

  Mulliken Charges: (a.u.)
   Center  Symbol    Alpha    Beta     Spin     Total
       1     O     4.28390  4.28390  0.00000 -0.56779
       2     C     2.61532  2.61532  0.00000  0.76936
       3     C     3.28774  3.28774  0.00000 -0.57549
       4     O     4.31273  4.31273  0.00000 -0.62545
       5     H     0.39749  0.39749  0.00000  0.20502
       6     H     0.39986  0.39986  0.00000  0.20028
       7     H     0.39749  0.39749  0.00000  0.20501
       8     C     2.99575  2.99575  0.00000  0.00850
       9     C     3.16503  3.16503  0.00000 -0.33007
      10     H     0.41056  0.41056  0.00000  0.17888
      11     H     0.41057  0.41057  0.00000  0.17887
      12     C     3.16076  3.16076  0.00000 -0.32152
      13     H     0.41389  0.41389  0.00000  0.17222
      14     H     0.41418  0.41418  0.00000  0.17165
      15     C     3.15181  3.15181  0.00000 -0.30362
      16     H     0.42057  0.42057  0.00000  0.15886
      17     H     0.42058  0.42058  0.00000  0.15885
      18     C     3.24001  3.24001  0.00000 -0.48002
      19     H     0.42135  0.42135  0.00000  0.15729
      20     H     0.42109  0.42109  0.00000  0.15782
      21     H     0.42063  0.42063  0.00000  0.15875
      22     H     0.41801  0.41801  0.00000  0.16399
      23     H     0.42069  0.42069  0.00000  0.15863

   Total alpha = 36.00000, Total beta = 36.00000, Total charge =  0.00000
