  ==> Input File <==

--------------------------------------------------------------------------
set {
	reference rhf
	basis 6-31G*
}

set_num_threads( 4 )
memory 2 gb

molecule MOL {
0 1

O	 -0.682937	 1.318834	 -0.186099
C	 -0.860635	 0.152188	 -0.042321
C	 -2.173363	 -0.477127	 0.338347
O	 0.083258	 -0.765189	 -0.202595
H	 -2.477673	 -1.180929	 -0.427595
H	 -2.923125	 0.290956	 0.455536
H	 -2.058825	 -1.029004	 1.264191
C	 1.391937	 -0.334737	 -0.569838
C	 1.482318	 1.178648	 -0.634207
H	 1.661676	 -0.784384	 -1.513342
H	 2.034047	 -0.728449	 0.204878
H	 2.505598	 1.476912	 -0.840766
H	 0.848884	 1.569934	 -1.420353
H	 1.183167	 1.619171	 0.310708

	symmetry c1
}
set optking {
	frozen_dihedral = ("
		10 8 4 2
	")
}

ee = optimize('scf')
oeprop('DIPOLE', 'QUADRUPOLE', 'MULLIKEN_CHARGES')
f=open( 'psi4out.xyz', 'w' )
f.write( "14  " )
f.write( str(ee) + "\n" )
f.write( MOL.save_string_xyz() )
f.close()
--------------------------------------------------------------------------

    Molecular point group: c1
  Charge       = 0
  Multiplicity = 1
  Basis Set: 6-31G*
  Basis Set:
  @DF-RHF Final Energy:  -305.83116099030281
    Total Energy =                       -305.8311609903025783
    Molecular point group: c1
  Basis Set: 6-31G*
  Basis Set:
  Basis Set: 6-31G*
  Basis Set:
  @DF-RHF Final Energy:  -305.85658036076950
    Total Energy =                       -305.8565803607693852
  Basis Set: 6-31G*
  Basis Set:
  Basis Set: 6-31G*
  Basis Set:
  @DF-RHF Final Energy:  -305.86181637209506
    Total Energy =                       -305.8618163720952907
  Basis Set: 6-31G*
  Basis Set:
  Basis Set: 6-31G*
  Basis Set:
  @DF-RHF Final Energy:  -305.86262232062154
    Total Energy =                       -305.8626223206217674
  Basis Set: 6-31G*
  Basis Set:
  @DF-RHF Final Energy:  -305.86370153528446
    Total Energy =                       -305.8637015352844060
  Basis Set: 6-31G*
  Basis Set:
  @DF-RHF Final Energy:  -305.86396144887624
    Total Energy =                       -305.8639614488762390
  Basis Set: 6-31G*
  Basis Set:
  Basis Set: 6-31G*
  Basis Set:
  @DF-RHF Final Energy:  -305.86397361234083
    Total Energy =                       -305.8639736123409421
  Basis Set: 6-31G*
  Basis Set:
  Basis Set: 6-31G*
  Basis Set:
  @DF-RHF Final Energy:  -305.86397812861441
    Total Energy =                       -305.8639781286145762
  Basis Set: 6-31G*
  Basis Set:
  Charge       = 0
  Multiplicity = 1
  Basis Set: 6-31G*
  Basis Set:

    Orbital Energies (a.u.)
    -----------------------

    Doubly Occupied:

       1A    -20.599067     2A    -20.539705     3A    -11.376218
       4A    -11.292392     5A    -11.230009     6A    -11.216103
       7A     -1.460191     8A     -1.361902     9A     -1.055722
      10A     -0.995778    11A     -0.893890    12A     -0.747594
      13A     -0.685197    14A     -0.681819    15A     -0.670961
      16A     -0.609367    17A     -0.587122    18A     -0.568254
      19A     -0.547627    20A     -0.535709    21A     -0.515031
      22A     -0.495167    23A     -0.440908    24A     -0.429842

  @DF-RHF Final Energy:  -305.86397862946660

   => Energetics <=

    Nuclear Repulsion Energy =            248.5995211088597898
    One-Electron Energy =                -909.8558527105963094
    Two-Electron Energy =                 355.3923529722697481
    DFT Exchange-Correlation Energy =       0.0000000000000000
    Empirical Dispersion Energy =           0.0000000000000000
    PCM Polarization Energy =               0.0000000000000000
    EFP Energy =                            0.0000000000000000
    Total Energy =                       -305.8639786294667715
    Molecular point group: c1
  Basis Set: 6-31G*
  Basis Set:

  -Total Gradient:
     Atom            X                  Y                   Z
    ------   -----------------  -----------------  -----------------
       1       -0.000031380344     0.000045846992    -0.000001465465
       2        0.000241890478     0.000059675545     0.000928126367
       3        0.000016495918    -0.000004438750     0.000010555692
       4       -0.000229727785    -0.000297865020    -0.001333539236
       5       -0.000000807367     0.000002018436    -0.000008299655
       6        0.000011042682     0.000004167359    -0.000005330476
       7       -0.000003538012    -0.000008962646     0.000001044070
       8       -0.000312702115     0.000951506397    -0.000100711295
       9       -0.000009911553     0.000024842538     0.000005392093
      10        0.000330080492    -0.000770627452     0.000488140683
      11       -0.000041475417    -0.000001223864     0.000017872007
      12        0.000018983897     0.000004207356    -0.000005799981
      13        0.000006659080    -0.000010187950    -0.000000687497
      14        0.000004390048     0.000001041064     0.000004702692

  **** Optimization is complete! (in 9 steps) ****
    Final optimized geometry and variables:
    Molecular point group: c1

    Geometry (in Angstrom), charge = 0, multiplicity = 1:

    O           -0.821290130777     1.146874786961     0.029736215313
    C           -0.829043033070    -0.031622878246     0.176499858384
    C           -2.046413263541    -0.823339745361     0.581114982626
    O            0.203974508994    -0.842145773153     0.009240979540
    H           -2.273044072748    -1.561518047213    -0.179413635716
    H           -2.884694157600    -0.155050343290     0.710151360698
    H           -1.848420292105    -1.354478006376     1.504905339151
    C            1.543195062894    -0.473153887672    -0.336529233123
    C            1.906345615080     0.999111456458    -0.451366206624
    H            1.745147385541    -0.982341622047    -1.269785607905
    H            2.154713465460    -0.939366830739     0.424571059475
    H            2.968780631977     1.039411350738    -0.678235894447
    H            1.365615877739     1.498646281496    -1.240864206709
    H            1.733623675463     1.535833455728     0.470621119678

  Mulliken Charges: (a.u.)
   Center  Symbol    Alpha    Beta     Spin     Total
       1     O     4.28210  4.28210  0.00000 -0.56420
       2     C     2.62068  2.62068  0.00000  0.75863
       3     C     3.27994  3.27994  0.00000 -0.55988
       4     O     4.31653  4.31653  0.00000 -0.63307
       5     H     0.40149  0.40149  0.00000  0.19702
       6     H     0.39825  0.39825  0.00000  0.20350
       7     H     0.40184  0.40184  0.00000  0.19632
       8     C     2.99111  2.99111  0.00000  0.01779
       9     C     3.25119  3.25119  0.00000 -0.50238
      10     H     0.41345  0.41345  0.00000  0.17310
      11     H     0.41312  0.41312  0.00000  0.17376
      12     H     0.42241  0.42241  0.00000  0.15518
      13     H     0.40195  0.40195  0.00000  0.19610
      14     H     0.40594  0.40594  0.00000  0.18813

   Total alpha = 24.00000, Total beta = 24.00000, Total charge =  0.00000
