  ==> Input File <==

--------------------------------------------------------------------------
set {
	reference rhf
	basis 6-31G*
}

set_num_threads( 4 )
memory 2 gb

molecule MOL {
0 1

H	 1.148083	 -1.049780	 0.784252
O	 1.319262	 -0.618148	 -0.041729
C	 0.709265	 0.639550	 -0.033818
C	 0.890775	 1.421541	 -1.308229
H	 1.149930	 1.184160	 0.793477
H	 -0.354854	 0.552190	 0.183079
C	 1.678509	 1.077565	 -2.307188
H	 0.315248	 2.332329	 -1.369193
H	 2.279686	 0.187147	 -2.272961
H	 1.759310	 1.685051	 -3.190596

	symmetry c1
}
set optking {
	frozen_dihedral = ("
		5 3 2 1
	")
}

ee = optimize('scf')
oeprop('DIPOLE', 'QUADRUPOLE', 'MULLIKEN_CHARGES')
f=open( 'psi4out.xyz', 'w' )
f.write( "10  " )
f.write( str(ee) + "\n" )
f.write( MOL.save_string_xyz() )
f.close()
--------------------------------------------------------------------------

    Molecular point group: c1
  Charge       = 0
  Multiplicity = 1
  Basis Set: 6-31G*
  Basis Set:
  @DF-RHF Final Energy:  -191.91364034229423
    Total Energy =                       -191.9136403422941726
    Molecular point group: c1
  Basis Set: 6-31G*
  Basis Set:
  Basis Set: 6-31G*
  Basis Set:
  @DF-RHF Final Energy:  -191.91508821455949
    Total Energy =                       -191.9150882145595460
  Basis Set: 6-31G*
  Basis Set:
  Basis Set: 6-31G*
  Basis Set:
  @DF-RHF Final Energy:  -191.91556668376836
    Total Energy =                       -191.9155666837684464
  Basis Set: 6-31G*
  Basis Set:
  Basis Set: 6-31G*
  Basis Set:
  @DF-RHF Final Energy:  -191.91559283228924
    Total Energy =                       -191.9155928322892919
  Basis Set: 6-31G*
  Basis Set:
  Basis Set: 6-31G*
  Basis Set:
  @DF-RHF Final Energy:  -191.91559455459267
    Total Energy =                       -191.9155945545928148
  Basis Set: 6-31G*
  Basis Set:
  Charge       = 0
  Multiplicity = 1
  Basis Set: 6-31G*
  Basis Set:

    Orbital Energies (a.u.)
    -----------------------

    Doubly Occupied:

       1A    -20.559424     2A    -11.278328     3A    -11.223926
       4A    -11.209342     5A     -1.368188     6A     -1.053412
       7A     -0.921891     8A     -0.752581     9A     -0.710481
      10A     -0.634794    11A     -0.613693    12A     -0.589748
      13A     -0.513384    14A     -0.484380    15A     -0.453384
      16A     -0.354821

  @DF-RHF Final Energy:  -191.91559479012909

   => Energetics <=

    Nuclear Repulsion Energy =            119.5098659751250381
    One-Electron Energy =                -497.4073647894890655
    Two-Electron Energy =                 185.9819040242349786
    DFT Exchange-Correlation Energy =       0.0000000000000000
    Empirical Dispersion Energy =           0.0000000000000000
    PCM Polarization Energy =               0.0000000000000000
    EFP Energy =                            0.0000000000000000
    Total Energy =                       -191.9155947901290631
    Molecular point group: c1
  Basis Set: 6-31G*
  Basis Set:

  -Total Gradient:
     Atom            X                  Y                   Z
    ------   -----------------  -----------------  -----------------
       1       -0.000033909108    -0.000026413804    -0.000026657560
       2        0.000083069579    -0.000006884318     0.000037142837
       3       -0.000022062311    -0.000026849758     0.000032928787
       4       -0.000064948558     0.000002866117    -0.000003816194
       5        0.000017070648     0.000018504218    -0.000020826235
       6       -0.000006823089     0.000034097528    -0.000010986797
       7       -0.000017888954    -0.000024738207    -0.000023751674
       8        0.000019740339     0.000007351784     0.000001964691
       9        0.000011249951     0.000010107081     0.000007519361
      10        0.000014501503     0.000011959359     0.000006482783

  **** Optimization is complete! (in 6 steps) ****
    Final optimized geometry and variables:
    Molecular point group: c1

    Geometry (in Angstrom), charge = 0, multiplicity = 1:

    H            0.062371092138    -1.621783699367     1.583032284580
    O            0.222763296537    -1.137192190575     0.786381625734
    C           -0.471797459587     0.076466647472     0.831792374572
    C           -0.249347273618     0.856148697897    -0.430691425514
    H           -0.145595300636     0.677475378419     1.680817867371
    H           -1.541116942205    -0.093654272481     0.958587799041
    C            0.489354090916     0.467153791781    -1.448873610006
    H           -0.755496804758     1.808250068543    -0.462265895317
    H            1.004162138143    -0.474766762879    -1.443368634047
    H            0.600152114163     1.085733279459    -2.321600911738

  Mulliken Charges: (a.u.)
   Center  Symbol    Alpha    Beta     Spin     Total
       1     H     0.27875  0.27875  0.00000  0.44251
       2     O     4.36847  4.36847  0.00000 -0.73694
       3     C     2.99839  2.99839  0.00000  0.00322
       4     C     3.08899  3.08899  0.00000 -0.17799
       5     H     0.42612  0.42612  0.00000  0.14775
       6     H     0.42622  0.42622  0.00000  0.14755
       7     C     3.18971  3.18971  0.00000 -0.37941
       8     H     0.41197  0.41197  0.00000  0.17605
       9     H     0.39700  0.39700  0.00000  0.20600
      10     H     0.41438  0.41438  0.00000  0.17125

   Total alpha = 16.00000, Total beta = 16.00000, Total charge = -0.00000
