                              Psi4 1.0.54 Driver

  ==> Input File <==

--------------------------------------------------------------------------
set {
	reference rhf
	basis cc-pvtz
}

set_num_threads( 4 )
memory 2 gb

molecule MOL {
0 1

H	 -1.088256	 -1.364742	 0.152233
O	 -1.432053	 -0.565244	 -0.200812
C	 -0.727158	 0.534527	 0.310686
C	 0.680222	 0.664433	 -0.252229
H	 -1.306802	 1.408001	 0.044211
H	 -0.690821	 0.490158	 1.397609
C	 0.847874	 1.816273	 -1.238739
H	 1.373678	 0.785103	 0.573476
H	 0.932193	 -0.271407	 -0.743516
H	 0.662622	 2.774979	 -0.766840
H	 1.855905	 1.844743	 -1.634486
H	 0.167091	 1.717156	 -2.078779

	symmetry c1
}
set optking {
	frozen_dihedral = ("
		8 4 3 2
	")
}

ee,wfn = optimize('scf', return_wfn=True)
oeprop( wfn, 'DIPOLE', 'QUADRUPOLE', 'MULLIKEN_CHARGES')
f=open( 'psi4out.xyz', 'w' )
f.write( "12  " )
f.write( str(ee) + "\n" )
f.write( MOL.save_string_xyz() )
f.close()
--------------------------------------------------------------------------

    Molecular point group: c1
  Charge       = 0
  Multiplicity = 1
  Basis Set: CC-PVTZ
  Basis Set:
  @DF-RHF Final Energy:  -193.18487617141707
    Total Energy =                       -193.1848761714170450
    Molecular point group: c1
  Basis Set: CC-PVTZ
  Basis Set:
  Basis Set: CC-PVTZ
  Basis Set:
  @DF-RHF Final Energy:  -193.18523239779987
    Total Energy =                       -193.1852323977999220
  Basis Set: CC-PVTZ
  Basis Set:
  Basis Set: CC-PVTZ
  Basis Set:
  @DF-RHF Final Energy:  -193.18529909437160
    Total Energy =                       -193.1852990943716861
  Basis Set: CC-PVTZ
  Basis Set:
  Basis Set: CC-PVTZ
  Basis Set:
  @DF-RHF Final Energy:  -193.18530260575366
    Total Energy =                       -193.1853026057536624
  Basis Set: CC-PVTZ
  Basis Set:
  Charge       = 0
  Multiplicity = 1
  Basis Set: CC-PVTZ
  Basis Set:

    Orbital Energies (a.u.)
    -----------------------

    Doubly Occupied:

       1A    -20.545400     2A    -11.265947     3A    -11.217350
       4A    -11.210659     5A     -1.363325     6A     -1.049535
       7A     -0.919240     8A     -0.820067     9A     -0.686860
      10A     -0.627401    11A     -0.623718    12A     -0.575951
      13A     -0.534194    14A     -0.521531    15A     -0.487013
      16A     -0.465928    17A     -0.430066

  @DF-RHF Final Energy:  -193.18530297048144

   => Energetics <=

    Nuclear Repulsion Energy =            131.4884109481946268
    One-Electron Energy =                -522.6590534712478302
    Two-Electron Energy =                 197.9853395525717588
    DFT Exchange-Correlation Energy =       0.0000000000000000
    Empirical Dispersion Energy =           0.0000000000000000
    PCM Polarization Energy =               0.0000000000000000
    EFP Energy =                            0.0000000000000000
    Total Energy =                       -193.1853029704814162
    Molecular point group: c1
  Basis Set: CC-PVTZ
  Basis Set:

  -Total Gradient:
     Atom            X                  Y                   Z
    ------   -----------------  -----------------  -----------------
       1       -0.000032727490     0.000021440993    -0.000002344128
       2        0.000832030905    -0.001365213588     0.001705178451
       3       -0.001021251398     0.001161451313    -0.002276961309
       4       -0.000086181082     0.003092550895     0.000415150555
       5        0.000009175513     0.000003675882     0.000003656688
       6        0.000000257418    -0.000028468952    -0.000008560216
       7        0.000012329258    -0.000002686688     0.000014877075
       8        0.000295544735    -0.002853204153     0.000139263754
       9        0.000004614277    -0.000010261192    -0.000004623377
      10        0.000006776081    -0.000008800288     0.000005180612
      11       -0.000013805720     0.000000581252     0.000003567184
      12       -0.000006762496    -0.000011065473     0.000005614711

  **** Optimization is complete! (in 5 steps) ****
    Final optimized geometry and variables:
    Molecular point group: c1

    Geometry (in Angstrom), charge = 0, multiplicity = 1:

    H           -0.844699700913    -1.931520991937     0.421071202439
    O           -1.252891752134    -1.130160075931     0.149128648954
    C           -0.540754216078    -0.035433258398     0.664024146847
    C            0.880006973189     0.091784501894     0.091522303729
    H           -1.127922357031     0.838710857944     0.417846220435
    H           -0.503971067389    -0.099301359426     1.747987379313
    C            1.038641635778     1.223100391778    -0.918167502179
    H            1.594838076264     0.206487793671     0.899942692585
    H            1.128708276984    -0.849344326831    -0.388920584983
    H            0.837656508886     2.186095159481    -0.460780773298
    H            2.044050115123     1.252580789616    -1.321770854982
    H            0.349288975236     1.098541189193    -1.745854158613

  Mulliken Charges: (a.u.)
   Center  Symbol    Alpha    Beta     Spin     Total
       1     H     0.39450  0.39450  0.00000  0.21100
       2     O     4.20332  4.20332  0.00000 -0.40663
       3     C     2.96931  2.96931  0.00000  0.06138
       4     C     3.08724  3.08724  0.00000 -0.17447
       5     H     0.45888  0.45888  0.00000  0.08224
       6     H     0.46800  0.46800  0.00000  0.06401
       7     C     3.15070  3.15070  0.00000 -0.30139
       8     H     0.45428  0.45428  0.00000  0.09144
       9     H     0.45837  0.45837  0.00000  0.08326
      10     H     0.45572  0.45572  0.00000  0.08857
      11     H     0.45010  0.45010  0.00000  0.09981
      12     H     0.44959  0.44959  0.00000  0.10081

   Total alpha = 17.00000, Total beta = 17.00000, Total charge = -0.00000

*** Psi4 exiting successfully. Buy a developer a beer!
