                              Psi4 1.0.54 Driver

  ==> Input File <==

--------------------------------------------------------------------------
set {
	reference rhf
	basis cc-pvtz
}

set_num_threads( 4 )
memory 2 gb

molecule MOL {
0 1

O	 -0.173374	 1.632167	 -3.890062
C	 -0.605724	 1.405882	 -2.806872
C	 -0.164052	 0.182219	 -2.028653
C	 -1.598544	 2.329288	 -2.141743
C	 1.150161	 0.448261	 -1.283732
H	 -0.022988	 -0.623711	 -2.737659
H	 -0.934015	 -0.113782	 -1.324092
C	 1.630207	 -0.772146	 -0.501001
H	 1.895563	 0.751735	 -2.007960
H	 1.020808	 1.282832	 -0.598855
C	 2.907848	 -0.545876	 0.309149
H	 1.783787	 -1.599494	 -1.189396
H	 0.841174	 -1.083872	 0.177864
C	 3.373802	 0.906639	 0.372125
H	 3.699140	 -1.146831	 -0.127906
H	 2.764321	 -0.923458	 1.318191
H	 3.519798	 1.311927	 -0.623875
H	 4.316899	 0.983758	 0.900700
H	 2.661122	 1.540651	 0.885346
H	 -2.555253	 1.823655	 -2.057828
H	 -1.717054	 3.229931	 -2.724296
H	 -1.277611	 2.576136	 -1.135931

	symmetry c1
}
set optking {
	frozen_dihedral = ("
		12 8 11 15
	")
}

ee,wfn = optimize('scf', return_wfn=True)
oeprop( wfn, 'DIPOLE', 'QUADRUPOLE', 'MULLIKEN_CHARGES')
f=open( 'psi4out.xyz', 'w' )
f.write( "22  " )
f.write( str(ee) + "\n" )
f.write( MOL.save_string_xyz() )
f.close()
--------------------------------------------------------------------------

    Molecular point group: c1
  Charge       = 0
  Multiplicity = 1
  Basis Set: CC-PVTZ
  Basis Set:
  @DF-RHF Final Energy:  -348.21359189991580
    Total Energy =                       -348.2135918999155706
    Molecular point group: c1
  Basis Set: CC-PVTZ
  Basis Set:
  Basis Set: CC-PVTZ
  Basis Set:
  @DF-RHF Final Energy:  -348.20344631265556
    Total Energy =                       -348.2034463126555011
  Basis Set: CC-PVTZ
  Basis Set:
  Basis Set: CC-PVTZ
  Basis Set:
  @DF-RHF Final Energy:  -348.21520896619450
    Total Energy =                       -348.2152089661946661
  Basis Set: CC-PVTZ
  Basis Set:
  Basis Set: CC-PVTZ
  Basis Set:
  @DF-RHF Final Energy:  -348.21575943743113
    Total Energy =                       -348.2157594374316432
  Basis Set: CC-PVTZ
  Basis Set:
  @DF-RHF Final Energy:  -348.21573445450974
    Total Energy =                       -348.2157344545099704
  @DF-RHF Final Energy:  -348.21538845758914
    Total Energy =                       -348.2153884575888583
  @DF-RHF Final Energy:  -348.21578929209488
    Total Energy =                       -348.2157892920946551
  Basis Set: CC-PVTZ
  Basis Set:
  @DF-RHF Final Energy:  -348.21573177794164
    Total Energy =                       -348.2157317779415280
  Basis Set: CC-PVTZ
  Basis Set:
  Basis Set: CC-PVTZ
  Basis Set:
  @DF-RHF Final Energy:  -348.21579412239839
    Total Energy =                       -348.2157941223984494
  Basis Set: CC-PVTZ
  Basis Set:
  Basis Set: CC-PVTZ
  Basis Set:
  @DF-RHF Final Energy:  -348.21580420268151
    Total Energy =                       -348.2158042026818521
  Basis Set: CC-PVTZ
  Basis Set:
  Charge       = 0
  Multiplicity = 1
  Basis Set: CC-PVTZ
  Basis Set:

    Orbital Energies (a.u.)
    -----------------------

    Doubly Occupied:

       1A    -20.536503     2A    -11.319005     3A    -11.227645
       4A    -11.227022     5A    -11.226715     6A    -11.221005
       7A    -11.219227     8A    -11.211085     9A     -1.396612
      10A     -1.095159    11A     -1.043600    12A     -0.999954
      13A     -0.938912    14A     -0.864465    15A     -0.779803
      16A     -0.734334    17A     -0.666109    18A     -0.648761
      19A     -0.630950    20A     -0.616027    21A     -0.593399
      22A     -0.590304    23A     -0.558755    24A     -0.544503
      25A     -0.531881    26A     -0.527577    27A     -0.503785
      28A     -0.488522    29A     -0.469994    30A     -0.463921
      31A     -0.454599    32A     -0.398195

  @DF-RHF Final Energy:  -348.21580451496550

   => Energetics <=

    Nuclear Repulsion Energy =            374.6447226750796062
    One-Electron Energy =               -1214.2643934521665869
    Two-Electron Energy =                 491.4038662621216531
    DFT Exchange-Correlation Energy =       0.0000000000000000
    Empirical Dispersion Energy =           0.0000000000000000
    PCM Polarization Energy =               0.0000000000000000
    EFP Energy =                            0.0000000000000000
    Total Energy =                       -348.2158045149653276
    Molecular point group: c1
  Basis Set: CC-PVTZ
  Basis Set:

  -Total Gradient:
     Atom            X                  Y                   Z
    ------   -----------------  -----------------  -----------------
       1        0.000001953647    -0.000000084307     0.000020939484
       2        0.000008053876     0.000015012693    -0.000013658312
       3       -0.000000871011    -0.000008059980     0.000003975032
       4       -0.000023314244    -0.000007734104    -0.000017093369
       5       -0.000000265802     0.000009656769     0.000007302997
       6       -0.000005786379    -0.000006251399    -0.000005206397
       7        0.000005208320    -0.000000814098    -0.000001963042
       8       -0.002271285544    -0.002838366475     0.004695409741
       9        0.000005050674    -0.000000832414     0.000004628231
      10       -0.000008017406    -0.000004149853    -0.000008600800
      11        0.002080510741     0.003456437595    -0.004377001405
      12        0.001602753781     0.001873378839    -0.003285619821
      13       -0.000001609498    -0.000000640182     0.000002746065
      14       -0.000010788574    -0.000002624499    -0.000000968193
      15       -0.001392147588    -0.002484652251     0.002982779892
      16       -0.000012512021    -0.000001575975    -0.000008095478
      17       -0.000003229672     0.000009097167    -0.000028463949
      18        0.000006194784    -0.000011650253     0.000003518869
      19        0.000003969387     0.000004231035     0.000014527407
      20        0.000003889072     0.000003452230     0.000007093224
      21        0.000003061885    -0.000001896609     0.000003300244
      22        0.000009181574    -0.000001933927     0.000000449573

  **** Optimization is complete! (in 11 steps) ****
    Final optimized geometry and variables:
    Molecular point group: c1

    Geometry (in Angstrom), charge = 0, multiplicity = 1:

    O           -0.958623615778     0.598256100771    -2.540255925979
    C           -1.375740964480     0.654550967162    -1.429306873149
    C           -1.084524624583    -0.445425660659    -0.427942954442
    C           -2.199836295171     1.826622765947    -0.951898197691
    C            0.275718464408    -0.228538731062     0.247580217264
    H           -1.079531909029    -1.384923101651    -0.965697800668
    H           -1.866416499288    -0.486320889000     0.323174745348
    C            0.592785831540    -1.341577889599     1.248510340937
    H            1.036087423534    -0.188742092763    -0.523424392306
    H            0.282392682005     0.736185282484     0.743780640591
    C            1.965019013484    -1.255019831306     1.963993472989
    H            0.551040552443    -2.274802075670     0.697101778436
    H           -0.200983001098    -1.376172250322     1.987033197744
    C            2.714106951354     0.073376386998     1.891791441258
    H            2.604777046744    -2.051084416338     1.599184713232
    H            1.810152828389    -1.491534108244     3.011937986422
    H            2.960884356009     0.351122843139     0.874599609161
    H            3.643508127071     0.001373464514     2.444690659297
    H            2.139618253993     0.883023250405     2.327733733711
    H           -3.215992996513     1.494601276145    -0.764368547971
    H           -2.207647131496     2.604792103661    -1.699515323140
    H           -1.811485625882     2.213154381047    -0.016346139022

  Mulliken Charges: (a.u.)
   Center  Symbol    Alpha    Beta     Spin     Total
       1     O     4.17869  4.17869  0.00000 -0.35738
       2     C     2.85776  2.85776  0.00000  0.28449
       3     C     3.09714  3.09714  0.00000 -0.19428
       4     C     3.15519  3.15519  0.00000 -0.31038
       5     C     3.10444  3.10444  0.00000 -0.20889
       6     H     0.43912  0.43912  0.00000  0.12176
       7     H     0.44964  0.44964  0.00000  0.10072
       8     C     3.09932  3.09932  0.00000 -0.19864
       9     H     0.43893  0.43893  0.00000  0.12213
      10     H     0.44944  0.44944  0.00000  0.10113
      11     C     3.08789  3.08789  0.00000 -0.17578
      12     H     0.44883  0.44883  0.00000  0.10235
      13     H     0.45091  0.45091  0.00000  0.09818
      14     C     3.15758  3.15758  0.00000 -0.31516
      15     H     0.44987  0.44987  0.00000  0.10027
      16     H     0.45161  0.45161  0.00000  0.09679
      17     H     0.45063  0.45063  0.00000  0.09873
      18     H     0.44331  0.44331  0.00000  0.11337
      19     H     0.45420  0.45420  0.00000  0.09160
      20     H     0.44837  0.44837  0.00000  0.10325
      21     H     0.43606  0.43606  0.00000  0.12789
      22     H     0.45108  0.45108  0.00000  0.09785

   Total alpha = 32.00000, Total beta = 32.00000, Total charge = -0.00000

*** Psi4 exiting successfully. Buy a developer a beer!
