  ==> Input File <==

--------------------------------------------------------------------------
set {
	reference rhf
	basis 6-31G*
}

set_num_threads( 4 )
memory 2 gb

molecule MOL {
0 1

H	 -0.928221	 1.762403	 -0.853665
C	 -0.255323	 0.926834	 -1.051958
N	 0.538815	 0.649616	 0.000000
O	 -0.255262	 0.349643	 -2.098887
C	 1.521968	 -0.411503	 0.000000
H	 0.437862	 1.208398	 0.815999
H	 2.150599	 -0.357004	 -0.881901
H	 0.999455	 -1.354525	 0.000000
H	 2.150599	 -0.357004	 0.881901

	symmetry c1
}
set optking {
	frozen_dihedral = ("
		6 3 5 7
	")
}

ee = optimize('scf')
oeprop('DIPOLE', 'QUADRUPOLE', 'MULLIKEN_CHARGES')
f=open( 'psi4out.xyz', 'w' )
f.write( "9  " )
f.write( str(ee) + "\n" )
f.write( MOL.save_string_xyz() )
f.close()
--------------------------------------------------------------------------

    Molecular point group: c1
  Charge       = 0
  Multiplicity = 1
  Basis Set: 6-31G*
  Basis Set:
  @DF-RHF Final Energy:  -207.96028191539568
    Total Energy =                       -207.9602819153957398
    Molecular point group: c1
  Basis Set: 6-31G*
  Basis Set:
  Basis Set: 6-31G*
  Basis Set:
  @DF-RHF Final Energy:  -207.96092937574105
    Total Energy =                       -207.9609293757410171
  Basis Set: 6-31G*
  Basis Set:
  Basis Set: 6-31G*
  Basis Set:
  @DF-RHF Final Energy:  -207.96101733924567
    Total Energy =                       -207.9610173392456716
  Basis Set: 6-31G*
  Basis Set:
  Basis Set: 6-31G*
  Basis Set:
  @DF-RHF Final Energy:  -207.96102768932317
    Total Energy =                       -207.9610276893231458
  Basis Set: 6-31G*
  Basis Set:
  @DF-RHF Final Energy:  -207.96103572065365
    Total Energy =                       -207.9610357206537401
  Basis Set: 6-31G*
  Basis Set:
  @DF-RHF Final Energy:  -207.96103831107408
    Total Energy =                       -207.9610383110740486
  Basis Set: 6-31G*
  Basis Set:
  Basis Set: 6-31G*
  Basis Set:
  @DF-RHF Final Energy:  -207.96103969890277
    Total Energy =                       -207.9610396989027947
  Basis Set: 6-31G*
  Basis Set:
  Basis Set: 6-31G*
  Basis Set:
  @DF-RHF Final Energy:  -207.96104288240730
    Total Energy =                       -207.9610428824072414
  Basis Set: 6-31G*
  Basis Set:
  Charge       = 0
  Multiplicity = 1
  Basis Set: 6-31G*
  Basis Set:

    Orbital Energies (a.u.)
    -----------------------

    Doubly Occupied:

       1A    -20.525849     2A    -15.590320     3A    -11.342551
       4A    -11.261342     5A     -1.389185     6A     -1.235854
       7A     -0.967784     8A     -0.808156     9A     -0.746688
      10A     -0.640862    11A     -0.626742    12A     -0.592435
      13A     -0.558312    14A     -0.532126    15A     -0.423550
      16A     -0.391133

  @DF-RHF Final Energy:  -207.96104548585100

   => Energetics <=

    Nuclear Repulsion Energy =            122.7196517994079130
    One-Electron Energy =                -526.0956209881906034
    Two-Electron Energy =                 195.4149237029316168
    DFT Exchange-Correlation Energy =       0.0000000000000000
    Empirical Dispersion Energy =           0.0000000000000000
    PCM Polarization Energy =               0.0000000000000000
    EFP Energy =                            0.0000000000000000
    Total Energy =                       -207.9610454858510593
    Molecular point group: c1
  Basis Set: 6-31G*
  Basis Set:

  -Total Gradient:
     Atom            X                  Y                   Z
    ------   -----------------  -----------------  -----------------
       1        0.000009407724     0.000001920098    -0.000003358100
       2        0.000008434069    -0.000025670822     0.000056186523
       3       -0.000065865667    -0.000015127101     0.000023485616
       4        0.000004582236    -0.000003945643    -0.000032730321
       5       -0.000018217598    -0.000031108046    -0.000043724465
       6        0.000049784599     0.000036048560    -0.000021664291
       7        0.000023510263     0.000032306282     0.000024662411
       8       -0.000002145371    -0.000000145542    -0.000003945602
       9       -0.000009490251     0.000005722215     0.000001088227

  **** Optimization is complete! (in 9 steps) ****
    Final optimized geometry and variables:
    Molecular point group: c1

    Geometry (in Angstrom), charge = 0, multiplicity = 1:

    H           -1.328264617768     1.400956870305    -0.092776623698
    C           -0.653578305096     0.561273824523    -0.267059631788
    N            0.153999375427     0.311068744033     0.778931114249
    O           -0.650142418245    -0.051440027151    -1.293810307770
    C            1.106511991532    -0.779001287339     0.763371339053
    H            0.044910229924     0.852903494819     1.604122695539
    H            1.746751598483    -0.706452455725    -0.105289617195
    H            0.606273526751    -1.739889638418     0.740401583398
    H            1.715836164138    -0.720782198627     1.655010232872

  Mulliken Charges: (a.u.)
   Center  Symbol    Alpha    Beta     Spin     Total
       1     H     0.42693  0.42693  0.00000  0.14614
       2     C     2.74734  2.74734  0.00000  0.50533
       3     N     3.87517  3.87517  0.00000 -0.75033
       4     O     4.28313  4.28313  0.00000 -0.56625
       5     C     3.13616  3.13616  0.00000 -0.27232
       6     H     0.30751  0.30751  0.00000  0.38498
       7     H     0.40097  0.40097  0.00000  0.19805
       8     H     0.40684  0.40684  0.00000  0.18631
       9     H     0.41596  0.41596  0.00000  0.16809

   Total alpha = 16.00000, Total beta = 16.00000, Total charge = -0.00000
