  ==> Input File <==

--------------------------------------------------------------------------
set {
	reference rhf
	basis 6-31G*
}

set_num_threads( 1 )
memory 2 gb

molecule MOL {
0 1

O	 -1.276010	 1.052711	 -0.768302
C	 -1.204840	 0.067374	 -0.106123
C	 -2.388195	 -0.672128	 0.458071
O	 -0.067104	 -0.527208	 0.221609
H	 -2.388023	 -1.694060	 0.097175
H	 -3.300579	 -0.174919	 0.164318
H	 -2.315377	 -0.706351	 1.539059
C	 0.085314	 -1.057980	 1.545610
C	 1.578676	 -1.071586	 1.819968
C	 -0.546783	 -2.439052	 1.621366
H	 -0.414676	 -0.389263	 2.230690
H	 1.991716	 -0.072428	 1.740422
H	 1.771432	 -1.443555	 2.820875
H	 2.092971	 -1.711606	 1.111075
H	 -0.414588	 -2.855927	 2.614722
H	 -1.608349	 -2.387255	 1.415525
H	 -0.081697	 -3.108697	 0.904932

	symmetry c1
}
set optking {
	frozen_dihedral = ("
		11 8 4 2
	")
}

ee = energy('scf')
oeprop('DIPOLE', 'QUADRUPOLE', 'MULLIKEN_CHARGES')
f=open( 'psi4out.xyz', 'w' )
f.write( "17  " )
f.write( str(ee) + "\n" )
f.write( MOL.save_string_xyz() )
f.close()
--------------------------------------------------------------------------

    Molecular point group: c1

    Geometry (in Angstrom), charge = 0, multiplicity = 1:

       Center              X                  Y                   Z               Mass
    ------------   -----------------  -----------------  -----------------  -----------------
           O         -0.728369437443     1.722195107285    -1.454860799468    15.994914619560
           C         -0.657199437443     0.736858107285    -0.792681799468    12.000000000000
           C         -1.840554437443    -0.002643892715    -0.228487799468    12.000000000000
           O          0.480536562557     0.142276107285    -0.464949799468    15.994914619560
           H         -1.840382437443    -1.024575892715    -0.589383799468     1.007825032070
           H         -2.752938437443     0.494565107285    -0.522240799468     1.007825032070
           H         -1.767736437443    -0.036866892715     0.852500200532     1.007825032070
           C          0.632954562557    -0.388495892715     0.859051200532    12.000000000000
           C          2.126316562557    -0.402101892715     1.133409200532    12.000000000000
           C          0.000857562557    -1.769567892715     0.934807200532    12.000000000000
           H          0.132964562557     0.280221107285     1.544131200532     1.007825032070
           H          2.539356562557     0.597056107285     1.053863200532     1.007825032070
           H          2.319072562557    -0.774070892715     2.134316200532     1.007825032070
           H          2.640611562557    -1.042121892715     0.424516200532     1.007825032070
           H          0.133052562557    -2.186442892715     1.928163200532     1.007825032070
           H         -1.060708437443    -1.717770892715     0.728966200532     1.007825032070
           H          0.465943562557    -2.439212892715     0.218373200532     1.007825032070

  Charge       = 0
  Multiplicity = 1
  Basis Set: 6-31G*
  Basis Set:

    Orbital Energies (a.u.)
    -----------------------

    Doubly Occupied:

       1A    -20.593877     2A    -20.547072     3A    -11.376373
       4A    -11.308536     5A    -11.234942     6A    -11.227329
       7A    -11.226017     8A     -1.462437     9A     -1.367637
      10A     -1.080786    11A     -1.027762    12A     -0.955428
      13A     -0.857783    14A     -0.781190    15A     -0.708173
      16A     -0.673681    17A     -0.657978    18A     -0.627695
      19A     -0.611361    20A     -0.583777    21A     -0.560958
      22A     -0.555579    23A     -0.551353    24A     -0.518790
      25A     -0.509758    26A     -0.483977    27A     -0.447486
      28A     -0.434304

  @DF-RHF Final Energy:  -344.87419007106286

   => Energetics <=

    Nuclear Repulsion Energy =            327.2282644673220489
    One-Electron Energy =               -1118.2608154304921300
    Two-Electron Energy =                 446.1583608921068844
    DFT Exchange-Correlation Energy =       0.0000000000000000
    Empirical Dispersion Energy =           0.0000000000000000
    PCM Polarization Energy =               0.0000000000000000
    EFP Energy =                            0.0000000000000000
    Total Energy =                       -344.8741900710631398

  Mulliken Charges: (a.u.)
   Center  Symbol    Alpha    Beta     Spin     Total
       1     O     4.26500  4.26500  0.00000 -0.53000
       2     C     2.60769  2.60769  0.00000  0.78463
       3     C     3.32187  3.32187  0.00000 -0.64374
       4     O     4.30759  4.30759  0.00000 -0.61518
       5     H     0.39448  0.39448  0.00000  0.21105
       6     H     0.39169  0.39169  0.00000  0.21662
       7     H     0.40177  0.40177  0.00000  0.19647
       8     C     2.93998  2.93998  0.00000  0.12004
       9     C     3.23837  3.23837  0.00000 -0.47673
      10     C     3.25075  3.25075  0.00000 -0.50151
      11     H     0.41308  0.41308  0.00000  0.17384
      12     H     0.40501  0.40501  0.00000  0.18997
      13     H     0.41828  0.41828  0.00000  0.16343
      14     H     0.40919  0.40919  0.00000  0.18163
      15     H     0.41637  0.41637  0.00000  0.16725
      16     H     0.40948  0.40948  0.00000  0.18105
      17     H     0.40941  0.40941  0.00000  0.18119

   Total alpha = 28.00000, Total beta = 28.00000, Total charge = -0.00000
