                              Psi4 1.0.54 Driver

  ==> Input File <==

--------------------------------------------------------------------------
set {
	reference rhf
	basis cc-pvtz
}

set_num_threads( 4 )
memory 2 gb

molecule MOL {
0 1

O	 -2.275241	 -1.016068	 1.147867
C	 -1.835577	 0.020181	 0.781826
C	 -2.556508	 1.335845	 0.869783
O	 -0.637375	 0.157174	 0.243149
H	 -2.665655	 1.757432	 -0.121212
H	 -3.525154	 1.187684	 1.318572
H	 -1.973914	 2.031133	 1.460316
C	 0.162530	 -1.009518	 0.097799
C	 1.587210	 -0.664190	 0.477086
H	 0.096803	 -1.356267	 -0.924704
H	 -0.233803	 -1.785900	 0.736810
C	 2.256770	 0.342732	 -0.454344
H	 2.154716	 -1.590834	 0.479041
H	 1.598751	 -0.289614	 1.496104
C	 3.698146	 0.643205	 -0.057145
H	 2.235038	 -0.042575	 -1.470299
H	 1.683491	 1.262594	 -0.461300
H	 4.150202	 1.356548	 -0.736242
H	 4.305463	 -0.255904	 -0.069842
H	 3.749130	 1.061068	 0.942759

	symmetry c1
}
set optking {
	frozen_dihedral = ("
		2 4 8 10
	")
}

ee,wfn = optimize('scf', return_wfn=True)
oeprop( wfn, 'DIPOLE', 'QUADRUPOLE', 'MULLIKEN_CHARGES')
f=open( 'psi4out.xyz', 'w' )
f.write( "20  " )
f.write( str(ee) + "\n" )
f.write( MOL.save_string_xyz() )
f.close()
--------------------------------------------------------------------------

    Molecular point group: c1
  Charge       = 0
  Multiplicity = 1
  Basis Set: CC-PVTZ
  Basis Set:
  @DF-RHF Final Energy:  -384.08529446026023
    Total Energy =                       -384.0852944602602292
    Molecular point group: c1
  Basis Set: CC-PVTZ
  Basis Set:
  Basis Set: CC-PVTZ
  Basis Set:
  @DF-RHF Final Energy:  -384.08526176850211
    Total Energy =                       -384.0852617685020505
  Basis Set: CC-PVTZ
  Basis Set:
  Basis Set: CC-PVTZ
  Basis Set:
  @DF-RHF Final Energy:  -384.08559106086051
    Total Energy =                       -384.0855910608609065
  Basis Set: CC-PVTZ
  Basis Set:
  Basis Set: CC-PVTZ
  Basis Set:
  @DF-RHF Final Energy:  -384.08570281195836
    Total Energy =                       -384.0857028119584129
  Basis Set: CC-PVTZ
  Basis Set:
  Basis Set: CC-PVTZ
  Basis Set:
  @DF-RHF Final Energy:  -384.08582545171447
    Total Energy =                       -384.0858254517146406
  Basis Set: CC-PVTZ
  Basis Set:
  Basis Set: CC-PVTZ
  Basis Set:
  @DF-RHF Final Energy:  -384.08582838417482
    Total Energy =                       -384.0858283841748744
  Basis Set: CC-PVTZ
  Basis Set:
  Charge       = 0
  Multiplicity = 1
  Basis Set: CC-PVTZ
  Basis Set:

    Orbital Energies (a.u.)
    -----------------------

    Doubly Occupied:

       1A    -20.593516     2A    -20.532233     3A    -11.367905
       4A    -11.279164     5A    -11.231285     6A    -11.223460
       7A    -11.218624     8A    -11.211551     9A     -1.468962
      10A     -1.365715    11A     -1.086909    12A     -1.029248
      13A     -0.981874    14A     -0.883063    15A     -0.816467
      16A     -0.769048    17A     -0.696686    18A     -0.687580
      19A     -0.665676    20A     -0.632116    21A     -0.600087
      22A     -0.594774    23A     -0.571055    24A     -0.560518
      25A     -0.543471    26A     -0.528088    27A     -0.517956
      28A     -0.489508    29A     -0.475633    30A     -0.466459
      31A     -0.450385    32A     -0.441361

  @DF-RHF Final Energy:  -384.08582851670826

   => Energetics <=

    Nuclear Repulsion Energy =            385.3697287610596049
    One-Electron Energy =               -1286.9503584148646951
    Two-Electron Energy =                 517.4948011370971699
    DFT Exchange-Correlation Energy =       0.0000000000000000
    Empirical Dispersion Energy =           0.0000000000000000
    PCM Polarization Energy =               0.0000000000000000
    EFP Energy =                            0.0000000000000000
    Total Energy =                       -384.0858285167079202
    Molecular point group: c1
  Basis Set: CC-PVTZ
  Basis Set:

  -Total Gradient:
     Atom            X                  Y                   Z
    ------   -----------------  -----------------  -----------------
       1       -0.000041044240    -0.000015161507     0.000030570254
       2        0.000452251333     0.000169236072     0.000944009588
       3        0.000007202742    -0.000005918612     0.000042436884
       4       -0.000394864216    -0.000046542162    -0.001522273997
       5       -0.000000799930    -0.000011710881    -0.000005379978
       6       -0.000007569055     0.000001043037     0.000002491319
       7       -0.000002891388    -0.000001530730    -0.000010121934
       8       -0.001018675145    -0.000802598478     0.000766241465
       9        0.000006547073    -0.000001108973     0.000006111274
      10        0.001002891251     0.000684666457    -0.000251793524
      11        0.000008957167     0.000027444788    -0.000006601782
      12       -0.000005289250     0.000018060259     0.000009604398
      13       -0.000002334231     0.000008965090     0.000003361429
      14       -0.000000789674     0.000001497929    -0.000003731661
      15       -0.000000289832    -0.000017755860    -0.000010818638
      16        0.000002969261     0.000001358417     0.000002864631
      17        0.000002593958    -0.000006428287     0.000006148974
      18       -0.000003404632    -0.000006401305    -0.000002381010
      19        0.000002041989     0.000001709060     0.000003921514
      20       -0.000007503179     0.000001175687    -0.000004659207

  **** Optimization is complete! (in 7 steps) ****
    Final optimized geometry and variables:
    Molecular point group: c1

    Geometry (in Angstrom), charge = 0, multiplicity = 1:

    O           -2.433392729622    -0.895393893980     0.646574413597
    C           -1.893452523688     0.111782303521     0.339328277920
    C           -2.512834993929     1.476812359804     0.448011575348
    O           -0.666167671744     0.181066329427    -0.146937334475
    H           -2.540370744248     1.940656458005    -0.529553016100
    H           -3.510564479617     1.390483302005     0.846419610641
    H           -1.906384527970     2.101310621880     1.091125533352
    C            0.100251283333    -1.008828896549    -0.299491645262
    C            1.535887688360    -0.733028995099     0.102009083530
    H            0.045896890776    -1.300648077578    -1.341332901409
    H           -0.331654915445    -1.790432221680     0.301954071903
    C            2.245610502881     0.298909146252    -0.770040209206
    H            2.071443364630    -1.677655216259     0.055476248641
    H            1.554395027251    -0.415848519889     1.140474006986
    C            3.690808146126     0.534773608427    -0.344659898150
    H            2.223687099817    -0.033702851959    -1.804527821102
    H            1.699841847738     1.234637099571    -0.736511776344
    H            4.171521588206     1.267232533891    -0.982467678503
    H            4.270794496849    -0.380753757451    -0.397016922189
    H            3.743431533549     0.899978720305     0.675571114607

  Mulliken Charges: (a.u.)
   Center  Symbol    Alpha    Beta     Spin     Total
       1     O     4.19796  4.19796  0.00000 -0.39591
       2     C     2.80337  2.80337  0.00000  0.39326
       3     C     3.14088  3.14088  0.00000 -0.28175
       4     O     4.15704  4.15704  0.00000 -0.31408
       5     H     0.44563  0.44563  0.00000  0.10873
       6     H     0.43770  0.43770  0.00000  0.12460
       7     H     0.44653  0.44653  0.00000  0.10694
       8     C     2.99794  2.99794  0.00000  0.00412
       9     C     3.08608  3.08608  0.00000 -0.17217
      10     H     0.45452  0.45452  0.00000  0.09095
      11     H     0.43323  0.43323  0.00000  0.13353
      12     C     3.08592  3.08592  0.00000 -0.17184
      13     H     0.45208  0.45208  0.00000  0.09583
      14     H     0.45165  0.45165  0.00000  0.09670
      15     C     3.14969  3.14969  0.00000 -0.29938
      16     H     0.45584  0.45584  0.00000  0.08833
      17     H     0.44659  0.44659  0.00000  0.10683
      18     H     0.44751  0.44751  0.00000  0.10499
      19     H     0.45546  0.45546  0.00000  0.08909
      20     H     0.45438  0.45438  0.00000  0.09124

   Total alpha = 32.00000, Total beta = 32.00000, Total charge = -0.00000

*** Psi4 exiting successfully. Buy a developer a beer!
