                              Psi4 1.0.54 Driver

  ==> Input File <==

--------------------------------------------------------------------------
set {
	reference rhf
	basis cc-pvtz
}

set_num_threads( 4 )
memory 2 gb

molecule MOL {
0 1

O	 1.708648	 1.535605	 0.446960
C	 1.301129	 0.818750	 1.296128
C	 -0.012319	 0.080247	 1.262835
O	 1.965155	 0.567928	 2.412629
C	 -0.824290	 0.329213	 -0.000115
H	 0.209705	 -0.974759	 1.385786
H	 -0.566053	 0.370452	 2.149740
C	 -2.146151	 -0.432825	 -0.000068
H	 -0.235629	 0.045390	 -0.865098
H	 -1.012067	 1.392216	 -0.100391
C	 -3.366283	 0.483552	 0.000557
H	 -2.189286	 -1.084450	 -0.869996
H	 -2.188867	 -1.085083	 0.869399
C	 -4.687436	 -0.278003	 0.000108
H	 -3.325150	 1.134819	 -0.867957
H	 -3.325087	 1.133730	 0.869885
H	 -4.773783	 -0.912098	 -0.876078
H	 -5.531922	 0.401392	 0.000363
H	 -4.773901	 -0.912898	 0.875703
C	 3.219579	 1.197778	 2.577052
H	 3.899352	 0.904751	 1.790759
H	 3.593730	 0.870691	 3.533541
H	 3.111043	 2.272174	 2.566749

	symmetry c1
}
set optking {
	frozen_dihedral = ("
		9 5 8 12
	")
}

ee,wfn = optimize('scf', return_wfn=True)
oeprop( wfn, 'DIPOLE', 'QUADRUPOLE', 'MULLIKEN_CHARGES')
f=open( 'psi4out.xyz', 'w' )
f.write( "23  " )
f.write( str(ee) + "\n" )
f.write( MOL.save_string_xyz() )
f.close()
--------------------------------------------------------------------------

    Molecular point group: c1
  Charge       = 0
  Multiplicity = 1
  Basis Set: CC-PVTZ
  Basis Set:
  @DF-RHF Final Energy:  -423.12527201575705
    Total Energy =                       -423.1252720157565363
    Molecular point group: c1
  Basis Set: CC-PVTZ
  Basis Set:
  Basis Set: CC-PVTZ
  Basis Set:
  @DF-RHF Final Energy:  -423.12551887002826
    Total Energy =                       -423.1255188700287135
  Basis Set: CC-PVTZ
  Basis Set:
  Basis Set: CC-PVTZ
  Basis Set:
  @DF-RHF Final Energy:  -423.12557550947673
    Total Energy =                       -423.1255755094762208
  Basis Set: CC-PVTZ
  Basis Set:
  Basis Set: CC-PVTZ
  Basis Set:
  @DF-RHF Final Energy:  -423.12557819246086
    Total Energy =                       -423.1255781924611483
  Basis Set: CC-PVTZ
  Basis Set:
  Basis Set: CC-PVTZ
  Basis Set:
  @DF-RHF Final Energy:  -423.12558422031049
    Total Energy =                       -423.1255842203106567
  Basis Set: CC-PVTZ
  Basis Set:
  Charge       = 0
  Multiplicity = 1
  Basis Set: CC-PVTZ
  Basis Set:

    Orbital Energies (a.u.)
    -----------------------

    Doubly Occupied:

       1A    -20.596266     2A    -20.534179     3A    -11.364366
       4A    -11.278463     5A    -11.234287     6A    -11.216858
       7A    -11.216006     8A    -11.215266     9A    -11.208077
      10A     -1.472148    11A     -1.365745    12A     -1.092697
      13A     -1.044522    14A     -0.987293    15A     -0.932284
      16A     -0.846398    17A     -0.795766    18A     -0.769366
      19A     -0.702312    20A     -0.685575    21A     -0.676278
      22A     -0.638341    23A     -0.620211    24A     -0.600176
      25A     -0.573979    26A     -0.560361    27A     -0.555808
      28A     -0.529522    29A     -0.522772    30A     -0.499897
      31A     -0.494754    32A     -0.470845    33A     -0.465139
      34A     -0.462196    35A     -0.453397    36A     -0.438264

  @DF-RHF Final Energy:  -423.12558564011124

   => Energetics <=

    Nuclear Repulsion Energy =            454.5384311715991998
    One-Electron Energy =               -1477.0884074450912067
    Two-Electron Energy =                 599.4243906333806535
    DFT Exchange-Correlation Energy =       0.0000000000000000
    Empirical Dispersion Energy =           0.0000000000000000
    PCM Polarization Energy =               0.0000000000000000
    EFP Energy =                            0.0000000000000000
    Total Energy =                       -423.1255856401113533
    Molecular point group: c1
  Basis Set: CC-PVTZ
  Basis Set:

  -Total Gradient:
     Atom            X                  Y                   Z
    ------   -----------------  -----------------  -----------------
       1        0.000015470942    -0.000012080042    -0.000010971670
       2       -0.000024134606     0.000033566335     0.000016339939
       3       -0.000010194903    -0.000000712130     0.000000094013
       4        0.000004920853    -0.000000808598     0.000002146408
       5        0.000513877608    -0.000924967878     0.000676082526
       6        0.000001451911    -0.000003342758    -0.000008571391
       7        0.000002137459    -0.000008903589    -0.000005078195
       8       -0.000517081146     0.000928464813    -0.000664310756
       9       -0.000356990046     0.000616595194    -0.000443602764
      10        0.000006581613     0.000001111878    -0.000001288030
      11        0.000011488140     0.000002947004    -0.000012697792
      12        0.000340138217    -0.000620804332     0.000442108605
      13        0.000007980780     0.000001784433     0.000001965711
      14       -0.000000478213    -0.000006704514     0.000003483107
      15        0.000002709184     0.000002669880     0.000003694820
      16        0.000001773793    -0.000008961606     0.000000886841
      17        0.000003138257     0.000001599581     0.000003473377
      18       -0.000003499467     0.000000483474    -0.000000822611
      19       -0.000002737380     0.000001645293    -0.000000458950
      20        0.000004893408    -0.000003088972    -0.000003425315
      21        0.000001953103     0.000001227063     0.000000798607
      22       -0.000000455930     0.000000114720     0.000000097148
      23       -0.000002943576    -0.000001835246     0.000000056373

  **** Optimization is complete! (in 6 steps) ****
    Final optimized geometry and variables:
    Molecular point group: c1

    Geometry (in Angstrom), charge = 0, multiplicity = 1:

    O            1.989924029720     1.057666847370    -0.451005935140
    C            1.587036354634     0.330347022620     0.391537501020
    C            0.281345341720    -0.421498381498     0.348421368586
    O            2.250202228931     0.078030936699     1.508324925030
    C           -0.528499805374    -0.175453313006    -0.917560817340
    H            0.512993116808    -1.474658631555     0.467744931586
    H           -0.280341840004    -0.140620594743     1.233585820952
    C           -1.874618843964    -0.927782835478    -0.922317866873
    H            0.065637331366    -0.454908078340    -1.777825199805
    H           -0.699815337570     0.889200891927    -1.019137978015
    C           -3.090833091201    -0.004561371434    -0.908814654672
    H           -1.930546813154    -1.575154516544    -1.791351300831
    H           -1.931555136337    -1.590208587871    -0.062670357798
    C           -4.415970631523    -0.757995236414    -0.894601866154
    H           -3.053625060257     0.646030211365    -1.777843726760
    H           -3.035937488842     0.646821350742    -0.040248269963
    H           -4.513385170638    -1.393960216022    -1.768244862028
    H           -5.256681659848    -0.073883326162    -0.888719873289
    H           -4.498069184124    -1.390368757994    -0.016688345237
    C            3.497478114524     0.719499704017     1.681389729484
    H            4.182749393655     0.439430429997     0.895127252759
    H            3.872112602987     0.389178763400     2.636599315916
    H            3.377958981365     1.792791682703     1.678761843119

  Mulliken Charges: (a.u.)
   Center  Symbol    Alpha    Beta     Spin     Total
       1     O     4.19678  4.19678  0.00000 -0.39356
       2     C     2.80906  2.80906  0.00000  0.38187
       3     C     3.09781  3.09781  0.00000 -0.19561
       4     O     4.14703  4.14703  0.00000 -0.29407
       5     C     3.09371  3.09371  0.00000 -0.18741
       6     H     0.43868  0.43868  0.00000  0.12264
       7     H     0.43949  0.43949  0.00000  0.12103
       8     C     3.09714  3.09714  0.00000 -0.19427
       9     H     0.44076  0.44076  0.00000  0.11848
      10     H     0.44618  0.44618  0.00000  0.10765
      11     C     3.08212  3.08212  0.00000 -0.16424
      12     H     0.44727  0.44727  0.00000  0.10547
      13     H     0.45686  0.45686  0.00000  0.08628
      14     C     3.15073  3.15073  0.00000 -0.30147
      15     H     0.45166  0.45166  0.00000  0.09667
      16     H     0.45490  0.45490  0.00000  0.09019
      17     H     0.45469  0.45469  0.00000  0.09063
      18     H     0.44802  0.44802  0.00000  0.10397
      19     H     0.45536  0.45536  0.00000  0.08929
      20     C     3.03781  3.03781  0.00000 -0.07562
      21     H     0.45434  0.45434  0.00000  0.09132
      22     H     0.44530  0.44530  0.00000  0.10940
      23     H     0.45431  0.45431  0.00000  0.09138

   Total alpha = 36.00000, Total beta = 36.00000, Total charge =  0.00000

*** Psi4 exiting successfully. Buy a developer a beer!
