  ==> Input File <==

--------------------------------------------------------------------------
set {
	reference rhf
	basis 6-31G*
}

set_num_threads( 4 )
memory 2 gb

molecule MOL {
0 1

O	 1.544861	 -0.242853	 -0.578543
C	 0.576249	 0.131685	 -0.000108
C	 -0.766779	 -0.556801	 -0.000461
O	 0.552096	 1.232861	 0.739819
C	 -1.945214	 0.412366	 0.000161
H	 -0.796911	 -1.211249	 -0.867467
H	 -0.796854	 -1.212390	 0.865687
C	 -3.287791	 -0.317055	 0.000105
H	 -1.876087	 1.060580	 -0.866812
H	 -1.875822	 1.059691	 0.867761
H	 -3.394745	 -0.949193	 -0.877058
H	 -4.111778	 0.388953	 0.000015
H	 -3.394954	 -0.949187	 0.877259
C	 1.754157	 1.976523	 0.824818
H	 2.542209	 1.376785	 1.257057
H	 1.534792	 2.820160	 1.460446
H	 2.061644	 2.315063	 -0.154136

	symmetry c1
}
set optking {
	frozen_dihedral = ("
		1 2 3 6
	")
}

ee = optimize('scf')
oeprop('DIPOLE', 'QUADRUPOLE', 'MULLIKEN_CHARGES')
f=open( 'psi4out.xyz', 'w' )
f.write( "17  " )
f.write( str(ee) + "\n" )
f.write( MOL.save_string_xyz() )
f.close()
--------------------------------------------------------------------------

    Molecular point group: c1
  Charge       = 0
  Multiplicity = 1
  Basis Set: 6-31G*
  Basis Set:
  @DF-RHF Final Energy:  -344.90432655243859
    Total Energy =                       -344.9043265524381923
    Molecular point group: c1
  Basis Set: 6-31G*
  Basis Set:
  Basis Set: 6-31G*
  Basis Set:
  @DF-RHF Final Energy:  -344.90318662142113
    Total Energy =                       -344.9031866214211277
  Basis Set: 6-31G*
  Basis Set:
  Basis Set: 6-31G*
  Basis Set:
  @DF-RHF Final Energy:  -344.90458968753131
    Total Energy =                       -344.9045896875314838
  Basis Set: 6-31G*
  Basis Set:
  Basis Set: 6-31G*
  Basis Set:
  @DF-RHF Final Energy:  -344.90499380896614
    Total Energy =                       -344.9049938089662533
  Basis Set: 6-31G*
  Basis Set:
  Basis Set: 6-31G*
  Basis Set:
  @DF-RHF Final Energy:  -344.90499956245185
    Total Energy =                       -344.9049995624516782
  Basis Set: 6-31G*
  Basis Set:
  Basis Set: 6-31G*
  Basis Set:
  @DF-RHF Final Energy:  -344.90500145458566
    Total Energy =                       -344.9050014545861131
  Basis Set: 6-31G*
  Basis Set:
  Charge       = 0
  Multiplicity = 1
  Basis Set: 6-31G*
  Basis Set:

    Orbital Energies (a.u.)
    -----------------------

    Doubly Occupied:

       1A    -20.605647     2A    -20.543000     3A    -11.372141
       4A    -11.281630     5A    -11.235780     6A    -11.228086
       7A    -11.217469     8A     -1.469994     9A     -1.361672
      10A     -1.083571    11A     -0.997964    12A     -0.942578
      13A     -0.831338    14A     -0.774793    15A     -0.696833
      16A     -0.682059    17A     -0.671772    18A     -0.637951
      19A     -0.595960    20A     -0.574687    21A     -0.554824
      22A     -0.537932    23A     -0.524467    24A     -0.512636
      25A     -0.489649    26A     -0.481709    27A     -0.454969
      28A     -0.431137

  @DF-RHF Final Energy:  -344.90500151329496

   => Energetics <=

    Nuclear Repulsion Energy =            314.2659007693039825
    One-Electron Energy =               -1092.7573104071771013
    Two-Electron Energy =                 433.5864081245781563
    DFT Exchange-Correlation Energy =       0.0000000000000000
    Empirical Dispersion Energy =           0.0000000000000000
    PCM Polarization Energy =               0.0000000000000000
    EFP Energy =                            0.0000000000000000
    Total Energy =                       -344.9050015132950193
    Molecular point group: c1
  Basis Set: 6-31G*
  Basis Set:

  -Total Gradient:
     Atom            X                  Y                   Z
    ------   -----------------  -----------------  -----------------
       1        0.000260927278    -0.000519168233     0.000790565100
       2       -0.000457100147     0.000862861188    -0.001261201023
       3        0.000562625350    -0.001047722382     0.000990217366
       4       -0.000003393112     0.000017110684     0.000011295852
       5       -0.000001039833     0.000002999809    -0.000024617435
       6       -0.000356026561     0.000691022896    -0.000521450824
       7        0.000001684358    -0.000006329984     0.000010048026
       8       -0.000001723151     0.000000686398     0.000017109124
       9       -0.000001434544     0.000003692317    -0.000007425513
      10       -0.000002210912    -0.000002103666    -0.000006386280
      11       -0.000001187227     0.000010561763    -0.000006155041
      12        0.000003937149    -0.000000946499     0.000007398263
      13        0.000003037729    -0.000008290622    -0.000001928683
      14       -0.000003444616    -0.000005902682     0.000002596711
      15       -0.000000006908     0.000001727869    -0.000000360061
      16       -0.000003829003    -0.000000156403     0.000000489207
      17       -0.000000815853    -0.000000042451    -0.000000194790

  **** Optimization is complete! (in 7 steps) ****
    Final optimized geometry and variables:
    Molecular point group: c1

    Geometry (in Angstrom), charge = 0, multiplicity = 1:

    O            1.721742529612    -0.641542239010    -0.727971292663
    C            0.768711563686    -0.231691170433    -0.146552196178
    C           -0.575899877966    -0.920159403777    -0.128217118277
    O            0.792782837233     0.866300046418     0.596375318461
    C           -1.789956700963     0.013144087482    -0.140322844565
    H           -0.592455539804    -1.586603418171    -0.981584525742
    H           -0.596744658629    -1.541250763929     0.764796053126
    C           -3.103736879282    -0.766309655282    -0.174426075852
    H           -1.734076455909     0.667178221537    -1.006508803858
    H           -1.763920584141     0.653781524370     0.732954210133
    H           -3.169836712915    -1.391390773914    -1.060130908940
    H           -3.954030394777    -0.092199367309    -0.180949570701
    H           -3.200273622289    -1.411832711980     0.694037598116
    C            2.024483892068     1.561211557240     0.674957643025
    H            2.788737974512     0.930380148152     1.105351579090
    H            1.841604533743     2.414399066610     1.309417050665
    H            2.341065646926     1.884090859874    -0.306171470165

  Mulliken Charges: (a.u.)
   Center  Symbol    Alpha    Beta     Spin     Total
       1     O     4.28763  4.28763  0.00000 -0.57527
       2     C     2.60890  2.60890  0.00000  0.78219
       3     C     3.20354  3.20354  0.00000 -0.40709
       4     O     4.30281  4.30281  0.00000 -0.60563
       5     C     3.15733  3.15733  0.00000 -0.31466
       6     H     0.39820  0.39820  0.00000  0.20361
       7     H     0.40198  0.40198  0.00000  0.19604
       8     C     3.24235  3.24235  0.00000 -0.48469
       9     H     0.41688  0.41688  0.00000  0.16624
      10     H     0.40745  0.40745  0.00000  0.18510
      11     H     0.41921  0.41921  0.00000  0.16158
      12     H     0.41544  0.41544  0.00000  0.16912
      13     H     0.42019  0.42019  0.00000  0.15962
      14     C     3.09243  3.09243  0.00000 -0.18486
      15     H     0.40861  0.40861  0.00000  0.18279
      16     H     0.40871  0.40871  0.00000  0.18258
      17     H     0.40833  0.40833  0.00000  0.18334

   Total alpha = 28.00000, Total beta = 28.00000, Total charge =  0.00000
