                              Psi4 1.0.54 Driver

  ==> Input File <==

--------------------------------------------------------------------------
set {
	reference rhf
	basis cc-pvtz
}

set_num_threads( 4 )
memory 2 gb

molecule MOL {
0 1

H	 5.269878	 0.195679	 1.068175
C	 4.673900	 -0.208485	 0.258034
C	 3.190199	 -0.204714	 0.610086
H	 4.865136	 0.391893	 -0.624684
H	 5.027838	 -1.214511	 0.056939
C	 2.319208	 -0.778154	 -0.505491
H	 2.876954	 0.809861	 0.827925
H	 3.035335	 -0.782733	 1.518235
C	 1.211841	 -1.702707	 -0.009682
H	 1.875436	 0.031653	 -1.071272
H	 2.947296	 -1.337164	 -1.193094
C	 0.071104	 -0.999325	 0.706179
H	 0.763721	 -2.225335	 -0.850999
H	 1.612640	 -2.477214	 0.637633
C	 -0.848810	 -1.850060	 1.560216
O	 -0.112602	 0.169421	 0.589730
C	 -1.634475	 -2.898525	 0.765349
H	 -1.529368	 -1.175448	 2.061792
H	 -0.250138	 -2.347222	 2.318911
C	 -2.619828	 -3.672010	 1.637398
H	 -2.176005	 -2.405493	 -0.037310
H	 -0.951777	 -3.598981	 0.294940
C	 -3.413867	 -4.713958	 0.857031
H	 -3.305016	 -2.973439	 2.108131
H	 -2.078485	 -4.159275	 2.443682
H	 -3.990563	 -4.252124	 0.062795
H	 -2.757181	 -5.448985	 0.403646
H	 -4.105178	 -5.242555	 1.502775

	symmetry c1
}
set optking {
	frozen_dihedral = ("
		10 6 3 2
	")
}

ee,wfn = optimize('scf', return_wfn=True)
oeprop( wfn, 'DIPOLE', 'QUADRUPOLE', 'MULLIKEN_CHARGES')
f=open( 'psi4out.xyz', 'w' )
f.write( "28  " )
f.write( str(ee) + "\n" )
f.write( MOL.save_string_xyz() )
f.close()
--------------------------------------------------------------------------

    Molecular point group: c1
  Charge       = 0
  Multiplicity = 1
  Basis Set: CC-PVTZ
  Basis Set:
  @DF-RHF Final Energy:  -426.31534092031404
    Total Energy =                       -426.3153409203148385
    Molecular point group: c1
  Basis Set: CC-PVTZ
  Basis Set:
  Basis Set: CC-PVTZ
  Basis Set:
  @DF-RHF Final Energy:  -426.31567633416478
    Total Energy =                       -426.3156763341646638
  Basis Set: CC-PVTZ
  Basis Set:
  Basis Set: CC-PVTZ
  Basis Set:
  @DF-RHF Final Energy:  -426.31489506187552
    Total Energy =                       -426.3148950618751769
  Basis Set: CC-PVTZ
  Basis Set:
  Basis Set: CC-PVTZ
  Basis Set:
  @DF-RHF Final Energy:  -426.31578967002395
    Total Energy =                       -426.3157896700242873
  Basis Set: CC-PVTZ
  Basis Set:
  @DF-RHF Final Energy:  -426.31581484912795
    Total Energy =                       -426.3158148491279462
  Basis Set: CC-PVTZ
  Basis Set:
  @DF-RHF Final Energy:  -426.31579954133883
    Total Energy =                       -426.3157995413389472
  Basis Set: CC-PVTZ
  Basis Set:
  Basis Set: CC-PVTZ
  Basis Set:
  @DF-RHF Final Energy:  -426.31582766542419
    Total Energy =                       -426.3158276654252177
  Basis Set: CC-PVTZ
  Basis Set:
  Basis Set: CC-PVTZ
  Basis Set:
  @DF-RHF Final Energy:  -426.31583048457799
    Total Energy =                       -426.3158304845785551
  Basis Set: CC-PVTZ
  Basis Set:
  Charge       = 0
  Multiplicity = 1
  Basis Set: CC-PVTZ
  Basis Set:

    Orbital Energies (a.u.)
    -----------------------

    Doubly Occupied:

       1A    -20.536853     2A    -11.316232     3A    -11.229750
       4A    -11.228153     5A    -11.226802     6A    -11.223749
       7A    -11.214604     8A    -11.214188     9A    -11.210307
      10A    -11.205428    11A     -1.396549    12A     -1.095850
      13A     -1.077268    14A     -1.023155    15A     -0.991877
      16A     -0.908188    17A     -0.873586    18A     -0.809405
      19A     -0.801171    20A     -0.723453    21A     -0.668468
      22A     -0.653161    23A     -0.636814    24A     -0.621667
      25A     -0.604317    26A     -0.586001    27A     -0.582480
      28A     -0.576593    29A     -0.542335    30A     -0.536330
      31A     -0.519711    32A     -0.504629    33A     -0.504355
      34A     -0.485635    35A     -0.480583    36A     -0.476474
      37A     -0.472379    38A     -0.461220    39A     -0.456474
      40A     -0.394244

  @DF-RHF Final Energy:  -426.31583114685009

   => Energetics <=

    Nuclear Repulsion Energy =            532.0148515107414369
    One-Electron Energy =               -1632.5204924432189273
    Two-Electron Energy =                 674.1898097856281993
    DFT Exchange-Correlation Energy =       0.0000000000000000
    Empirical Dispersion Energy =           0.0000000000000000
    PCM Polarization Energy =               0.0000000000000000
    EFP Energy =                            0.0000000000000000
    Total Energy =                       -426.3158311468492911
    Molecular point group: c1
  Basis Set: CC-PVTZ
  Basis Set:

  -Total Gradient:
     Atom            X                  Y                   Z
    ------   -----------------  -----------------  -----------------
       1        0.000018292821     0.000013972787     0.000021877140
       2        0.000299095284    -0.002272067591     0.001203783796
       3       -0.001131645004     0.003154077349    -0.001161173905
       4        0.000003527720     0.000009778051    -0.000022239705
       5        0.000010916576    -0.000018758683     0.000000990203
       6        0.003659159294    -0.000884342622    -0.002164153197
       7        0.000001968725     0.000011532615     0.000008488648
       8        0.000004399660    -0.000001517693     0.000019179662
       9        0.000014568543    -0.000047973049     0.000004273091
      10       -0.002871360614     0.000023025436     0.002099139701
      11       -0.000002790467    -0.000006821309    -0.000012715672
      12       -0.000005431392     0.000041605426     0.000052532237
      13       -0.000012335980    -0.000004514706    -0.000017611089
      14        0.000010822259    -0.000012209166    -0.000001987417
      15       -0.000043377079    -0.000015082516    -0.000071640374
      16        0.000020656676     0.000003450784    -0.000009502525
      17        0.000010685896    -0.000010563401     0.000011983845
      18       -0.000009717497     0.000005624662     0.000006386602
      19        0.000025267123    -0.000002111694     0.000016998677
      20       -0.000007220122     0.000007205292     0.000006318485
      21        0.000014035985    -0.000004432411     0.000006341163
      22       -0.000004597893     0.000016437239    -0.000001513052
      23       -0.000003451939    -0.000002190331     0.000009971391
      24        0.000002624832    -0.000014557028    -0.000000083807
      25       -0.000014005109     0.000006877432    -0.000006588814
      26        0.000008255212    -0.000009269327     0.000012867621
      27       -0.000010155319     0.000008723322     0.000002175269
      28        0.000011811808     0.000004101134    -0.000014097970

  **** Optimization is complete! (in 9 steps) ****
    Final optimized geometry and variables:
    Molecular point group: c1

    Geometry (in Angstrom), charge = 0, multiplicity = 1:

    H            4.920109878323     2.070261463048     0.419103279830
    C            4.375065452372     1.557820763350    -0.365568355948
    C            2.880317312170     1.514186723834    -0.062235231306
    H            4.572819215912     2.077794074673    -1.297579938116
    H            4.783503531868     0.556531814251    -0.455090404558
    C            2.060620407885     0.820848469760    -1.165240702795
    H            2.502944498056     2.515292540372     0.098223974969
    H            2.741601830066     0.988024011365     0.878756084936
    C            0.952965016208    -0.086361205435    -0.636067330767
    H            1.598410336731     1.566921389653    -1.798634382184
    H            2.714408153422     0.220585945272    -1.788571088378
    C           -0.172073998296     0.647253925000     0.072870741054
    H            0.495600765111    -0.630827743025    -1.458495219681
    H            1.355329956095    -0.843015892657     0.031331859858
    C           -1.122566534206    -0.176220426220     0.920266341398
    O           -0.318554004028     1.821533469793    -0.041663406580
    C           -1.942108182233    -1.192651271360     0.118103255513
    H           -1.780793567759     0.518870739056     1.423711837876
    H           -0.543788335042    -0.697825049787     1.677931958000
    C           -2.958065205532    -1.933497895066     0.983273850727
    H           -2.462291691113    -0.677429728027    -0.684669452041
    H           -1.283130552708    -1.915382411008    -0.352320372342
    C           -3.781799475654    -2.947339633848     0.196810023522
    H           -3.622265219591    -1.212920715872     1.450848171476
    H           -2.438241179298    -2.439589734781     1.792077132105
    H           -4.338942425398    -2.465346870549    -0.599357765562
    H           -3.147275991928    -3.702636028672    -0.254759377130
    H           -4.493334421598    -3.454171231859     0.837967529997

  Mulliken Charges: (a.u.)
   Center  Symbol    Alpha    Beta     Spin     Total
       1     H     0.44907  0.44907  0.00000  0.10185
       2     C     3.14904  3.14904  0.00000 -0.29809
       3     C     3.08915  3.08915  0.00000 -0.17830
       4     H     0.45388  0.45388  0.00000  0.09223
       5     H     0.45805  0.45805  0.00000  0.08390
       6     C     3.08882  3.08882  0.00000 -0.17764
       7     H     0.43830  0.43830  0.00000  0.12340
       8     H     0.45939  0.45939  0.00000  0.08122
       9     C     3.13366  3.13366  0.00000 -0.26733
      10     H     0.44419  0.44419  0.00000  0.11162
      11     H     0.44729  0.44729  0.00000  0.10541
      12     C     2.86277  2.86277  0.00000  0.27446
      13     H     0.43507  0.43507  0.00000  0.12986
      14     H     0.44197  0.44197  0.00000  0.11606
      15     C     3.09207  3.09207  0.00000 -0.18414
      16     O     4.17756  4.17756  0.00000 -0.35513
      17     C     3.10120  3.10120  0.00000 -0.20239
      18     H     0.43801  0.43801  0.00000  0.12398
      19     H     0.44908  0.44908  0.00000  0.10185
      20     C     3.08713  3.08713  0.00000 -0.17426
      21     H     0.44565  0.44565  0.00000  0.10870
      22     H     0.45051  0.45051  0.00000  0.09898
      23     C     3.14920  3.14920  0.00000 -0.29841
      24     H     0.44981  0.44981  0.00000  0.10039
      25     H     0.45367  0.45367  0.00000  0.09266
      26     H     0.45342  0.45342  0.00000  0.09315
      27     H     0.45522  0.45522  0.00000  0.08957
      28     H     0.44681  0.44681  0.00000  0.10639

   Total alpha = 40.00000, Total beta = 40.00000, Total charge = -0.00000

*** Psi4 exiting successfully. Buy a developer a beer!
