  ==> Input File <==

--------------------------------------------------------------------------
set {
	reference rhf
	basis 6-31G*
}

set_num_threads( 4 )
memory 2 gb

molecule MOL {
0 1

H	 -3.985138	 0.337500	 1.190496
O	 -3.270333	 -0.223465	 0.925398
C	 -2.306886	 0.532354	 0.237577
C	 -1.177863	 -0.397191	 -0.171080
H	 -2.743867	 0.998575	 -0.644462
H	 -1.921958	 1.330273	 0.871215
C	 0.198102	 0.111031	 0.262842
H	 -1.208843	 -0.518759	 -1.250427
H	 -1.368741	 -1.376554	 0.258909
C	 1.331804	 -0.827780	 -0.158768
H	 0.361943	 1.100838	 -0.156218
H	 0.217265	 0.229072	 1.345532
C	 2.723619	 -0.410569	 0.329459
H	 1.342964	 -0.912588	 -1.244120
H	 1.116806	 -1.824343	 0.220779
C	 3.243875	 0.895854	 -0.272975
H	 3.424222	 -1.207124	 0.091250
H	 2.714788	 -0.329854	 1.414619
H	 3.251977	 0.848779	 -1.358681
H	 2.637085	 1.747371	 0.016682
H	 4.259473	 1.094070	 0.055697

	symmetry c1
}
set optking {
	frozen_dihedral = ("
		2 3 4 8
	")
}

ee = optimize('scf')
oeprop('DIPOLE', 'QUADRUPOLE', 'MULLIKEN_CHARGES')
f=open( 'psi4out.xyz', 'w' )
f.write( "21  " )
f.write( str(ee) + "\n" )
f.write( MOL.save_string_xyz() )
f.close()
--------------------------------------------------------------------------

    Molecular point group: c1
  Charge       = 0
  Multiplicity = 1
  Basis Set: 6-31G*
  Basis Set:
  @DF-RHF Final Energy:  -310.20679228234502
    Total Energy =                       -310.2067922823453046
    Molecular point group: c1
  Basis Set: 6-31G*
  Basis Set:
  Basis Set: 6-31G*
  Basis Set:
  @DF-RHF Final Energy:  -310.20713117001139
    Total Energy =                       -310.2071311700113370
  Basis Set: 6-31G*
  Basis Set:
  Basis Set: 6-31G*
  Basis Set:
  @DF-RHF Final Energy:  -310.20725439440196
    Total Energy =                       -310.2072543944021277
  Basis Set: 6-31G*
  Basis Set:
  Basis Set: 6-31G*
  Basis Set:
  @DF-RHF Final Energy:  -310.20724725728331
    Total Energy =                       -310.2072472572832567
  Basis Set: 6-31G*
  Basis Set:
  Basis Set: 6-31G*
  Basis Set:
  @DF-RHF Final Energy:  -310.20725532900411
    Total Energy =                       -310.2072553290041697
  Basis Set: 6-31G*
  Basis Set:
  Charge       = 0
  Multiplicity = 1
  Basis Set: 6-31G*
  Basis Set:

    Orbital Energies (a.u.)
    -----------------------

    Doubly Occupied:

       1A    -20.551213     2A    -11.267301     3A    -11.214282
       4A    -11.213876     5A    -11.212239     6A    -11.210639
       7A    -11.207646     8A     -1.357274     9A     -1.084419
      10A     -1.030718    11A     -0.952730    12A     -0.875579
      13A     -0.807411    14A     -0.777937    15A     -0.699365
      16A     -0.643855    17A     -0.629399    18A     -0.601915
      19A     -0.584711    20A     -0.571412    21A     -0.535040
      22A     -0.522592    23A     -0.507630    24A     -0.484962
      25A     -0.482504    26A     -0.459975    27A     -0.454505
      28A     -0.445500    29A     -0.425904

  @DF-RHF Final Energy:  -310.20725615117749

   => Energetics <=

    Nuclear Repulsion Energy =            312.7210919838256586
    One-Electron Energy =               -1040.2316278009886901
    Two-Electron Energy =                 417.3032796659857127
    DFT Exchange-Correlation Energy =       0.0000000000000000
    Empirical Dispersion Energy =           0.0000000000000000
    PCM Polarization Energy =               0.0000000000000000
    EFP Energy =                            0.0000000000000000
    Total Energy =                       -310.2072561511773188
    Molecular point group: c1
  Basis Set: 6-31G*
  Basis Set:

  -Total Gradient:
     Atom            X                  Y                   Z
    ------   -----------------  -----------------  -----------------
       1       -0.000102229998    -0.000025093394     0.000052007322
       2        0.000758650430     0.000429069323     0.001221597946
       3       -0.000394885037    -0.000055956673    -0.001859675221
       4       -0.001325501791    -0.001888356622     0.000666053643
       5       -0.000068522893    -0.000060298814     0.000027452256
       6       -0.000036244105    -0.000021587504     0.000021178715
       7       -0.000037145971     0.000009855930     0.000043255130
       8        0.001135522909     0.001628000885    -0.000178472950
       9        0.000010717149     0.000000375121     0.000011689099
      10       -0.000011145954     0.000015708198    -0.000014103320
      11       -0.000042532553    -0.000016589046     0.000009765632
      12        0.000027350527    -0.000007756685     0.000010653974
      13        0.000023477504    -0.000012401297    -0.000008181128
      14       -0.000003436899    -0.000000585633     0.000001994331
      15        0.000025122420     0.000005885086    -0.000010582553
      16        0.000012333916    -0.000001372137     0.000000753852
      17        0.000019897404    -0.000001257650     0.000014084773
      18       -0.000008170953     0.000011228729    -0.000004939543
      19       -0.000003655443     0.000002081940    -0.000003405604
      20        0.000019278227    -0.000006646046     0.000003406419
      21        0.000001121103    -0.000004303710    -0.000004532776

  **** Optimization is complete! (in 6 steps) ****
    Final optimized geometry and variables:
    Molecular point group: c1

    Geometry (in Angstrom), charge = 0, multiplicity = 1:

    H           -4.056980128897     0.379132586773     0.980153778411
    O           -3.332055783228    -0.183473929778     0.746741379194
    C           -2.357615504425     0.564986197086     0.061310531994
    C           -1.212170304610    -0.371117156939    -0.343577981457
    H           -2.793406475788     1.041034049152    -0.814138002577
    H           -1.983142305978     1.358591591971     0.705514885608
    C            0.167002532655     0.138014009655     0.084934479828
    H           -1.212867554146    -0.511627471096    -1.421087444770
    H           -1.404194966684    -1.339095703432     0.105502809355
    C            1.300513897443    -0.796658783428    -0.343526816845
    H            0.326360384583     1.130187932468    -0.331382180462
    H            0.183853918896     0.252931179066     1.167534141447
    C            2.693298665619    -0.381081499096     0.143970173024
    H            1.310636270454    -0.877076005412    -1.429559051958
    H            1.086981258308    -1.795265850121     0.031791883947
    C            3.212751742423     0.927139059995    -0.455285924110
    H            3.393778014089    -1.176833772191    -0.097335856020
    H            2.685626057882    -0.303420762918     1.229255463957
    H            3.218852901075     0.883582387203    -1.541214166029
    H            2.606639559793     1.777775061290    -0.161688764971
    H            4.229037295679     1.124140394132    -0.127966946368

  Mulliken Charges: (a.u.)
   Center  Symbol    Alpha    Beta     Spin     Total
       1     H     0.28209  0.28209  0.00000  0.43582
       2     O     4.37140  4.37140  0.00000 -0.74280
       3     C     2.99486  2.99486  0.00000  0.01028
       4     C     3.16482  3.16482  0.00000 -0.32965
       5     H     0.43043  0.43043  0.00000  0.13913
       6     H     0.42952  0.42952  0.00000  0.14095
       7     C     3.16141  3.16141  0.00000 -0.32281
       8     H     0.42025  0.42025  0.00000  0.15950
       9     H     0.40337  0.40337  0.00000  0.19325
      10     C     3.15316  3.15316  0.00000 -0.30631
      11     H     0.42319  0.42319  0.00000  0.15363
      12     H     0.42079  0.42079  0.00000  0.15843
      13     C     3.15234  3.15234  0.00000 -0.30467
      14     H     0.42446  0.42446  0.00000  0.15108
      15     H     0.42051  0.42051  0.00000  0.15898
      16     C     3.24108  3.24108  0.00000 -0.48215
      17     H     0.42091  0.42091  0.00000  0.15818
      18     H     0.42298  0.42298  0.00000  0.15403
      19     H     0.42250  0.42250  0.00000  0.15500
      20     H     0.42062  0.42062  0.00000  0.15876
      21     H     0.41931  0.41931  0.00000  0.16137

   Total alpha = 29.00000, Total beta = 29.00000, Total charge =  0.00000
