  ==> Input File <==

--------------------------------------------------------------------------
set {
	reference rhf
	basis 6-31G*
}

set_num_threads( 4 )
memory 2 gb

molecule MOL {
0 1

H	 -3.650283	 0.221984	 0.000000
C	 -2.577024	 0.154109	 0.000000
C	 -1.960329	 -1.089307	 0.000000
C	 -1.811733	 1.307557	 0.000000
H	 -2.554473	 -1.985285	 0.000000
C	 -0.581547	 -1.175855	 0.000000
H	 -2.287118	 2.271701	 0.000000
C	 -0.428719	 1.219221	 0.000000
H	 -0.090826	 -2.129898	 0.000000
C	 0.198341	 -0.021559	 0.000000
H	 0.149947	 2.124040	 0.000000
C	 1.691355	 -0.173192	 0.000000
C	 2.308274	 -1.387758	 -0.661652
O	 2.385922	 0.652577	 0.514837
H	 1.957915	 -2.302950	 -0.195334
H	 3.382336	 -1.324169	 -0.562470
H	 2.046508	 -1.430639	 -1.713992

	symmetry c1
}
set optking {
	frozen_dihedral = ("
		13 12 10 8
	")
}

ee = optimize('scf')
oeprop('DIPOLE', 'QUADRUPOLE', 'MULLIKEN_CHARGES')
f=open( 'psi4out.xyz', 'w' )
f.write( "17  " )
f.write( str(ee) + "\n" )
f.write( MOL.save_string_xyz() )
f.close()
--------------------------------------------------------------------------

    Molecular point group: c1
  Charge       = 0
  Multiplicity = 1
  Basis Set: 6-31G*
  Basis Set:
  @DF-RHF Final Energy:  -382.47161481642667
    Total Energy =                       -382.4716148164268361
    Molecular point group: c1
  Basis Set: 6-31G*
  Basis Set:
  Basis Set: 6-31G*
  Basis Set:
  @DF-RHF Final Energy:  -382.47198485963060
    Total Energy =                       -382.4719848596305383
  Basis Set: 6-31G*
  Basis Set:
  Basis Set: 6-31G*
  Basis Set:
  @DF-RHF Final Energy:  -382.47324259528716
    Total Energy =                       -382.4732425952872745
  Basis Set: 6-31G*
  Basis Set:
  Basis Set: 6-31G*
  Basis Set:
  @DF-RHF Final Energy:  -382.47365436086363
    Total Energy =                       -382.4736543608635202
  Basis Set: 6-31G*
  Basis Set:
  @DF-RHF Final Energy:  -382.47381402619328
    Total Energy =                       -382.4738140261936223
  @DF-RHF Final Energy:  -382.47390330657225
    Total Energy =                       -382.4739033065719696
  @DF-RHF Final Energy:  -382.47390598977466
    Total Energy =                       -382.4739059897743800
  @DF-RHF Final Energy:  -382.47390724497166
    Total Energy =                       -382.4739072449714286
  @DF-RHF Final Energy:  -382.47364457974385
    Total Energy =                       -382.4736445797443594
  @DF-RHF Final Energy:  -382.47320473802461
    Total Energy =                       -382.4732047380246058
  Basis Set: 6-31G*
  Basis Set:
  @DF-RHF Final Energy:  -382.47388529363263
    Total Energy =                       -382.4738852936326339
  Basis Set: 6-31G*
  Basis Set:
  Basis Set: 6-31G*
  Basis Set:
  @DF-RHF Final Energy:  -382.47390471366566
    Total Energy =                       -382.4739047136650925
  Basis Set: 6-31G*
  Basis Set:
  Basis Set: 6-31G*
  Basis Set:
  @DF-RHF Final Energy:  -382.47390698038157
    Total Energy =                       -382.4739069803815710
  Basis Set: 6-31G*
  Basis Set:
  Charge       = 0
  Multiplicity = 1
  Basis Set: 6-31G*
  Basis Set:

    Orbital Energies (a.u.)
    -----------------------

    Doubly Occupied:

       1A    -20.551229     2A    -11.331867     3A    -11.248149
       4A    -11.245019     5A    -11.243814     6A    -11.241041
       7A    -11.240778     8A    -11.238463     9A    -11.230013
      10A     -1.397381    11A     -1.165770    12A     -1.049845
      13A     -1.026433    14A     -0.996544    15A     -0.860814
      16A     -0.835511    17A     -0.760070    18A     -0.707432
      19A     -0.656644    20A     -0.646301    21A     -0.624489
      22A     -0.611786    23A     -0.599149    24A     -0.592534
      25A     -0.555575    26A     -0.525598    27A     -0.515728
      28A     -0.500975    29A     -0.490907    30A     -0.410588
      31A     -0.345029    32A     -0.341662

  @DF-RHF Final Energy:  -382.47390723300174

   => Energetics <=

    Nuclear Repulsion Energy =            403.4328417176063226
    One-Electron Energy =               -1318.2392185178418913
    Two-Electron Energy =                 532.3324695672342841
    DFT Exchange-Correlation Energy =       0.0000000000000000
    Empirical Dispersion Energy =           0.0000000000000000
    PCM Polarization Energy =               0.0000000000000000
    EFP Energy =                            0.0000000000000000
    Total Energy =                       -382.4739072330012277
    Molecular point group: c1
  Basis Set: 6-31G*
  Basis Set:

  -Total Gradient:
     Atom            X                  Y                   Z
    ------   -----------------  -----------------  -----------------
       1       -0.000001117508     0.000004250257    -0.000002503043
       2        0.000009265953    -0.000006502141     0.000013255760
       3        0.000004174363     0.000014378355    -0.000019814579
       4       -0.000004395231     0.000009170913     0.000011654390
       5        0.000000256386    -0.000002840556     0.000002530205
       6       -0.000016203545    -0.000049027412     0.000063135716
       7       -0.000002787394    -0.000004174640    -0.000004638865
       8       -0.000014443937    -0.000037772836    -0.003031575584
       9       -0.000004580518     0.000014395937     0.000001037390
      10        0.000054818845     0.000741577331     0.003060306228
      11        0.000005582183     0.000004186724     0.000004300109
      12       -0.000049694282    -0.002088515179     0.002404085574
      13        0.000062325439     0.001411295452    -0.002477536739
      14       -0.000033326258    -0.000008475537    -0.000025557996
      15        0.000002372590     0.000004951185     0.000002229986
      16       -0.000011471119    -0.000002881037     0.000003501798
      17       -0.000000775967    -0.000004016818    -0.000004410352

  **** Optimization is complete! (in 14 steps) ****
    Final optimized geometry and variables:
    Molecular point group: c1

    Geometry (in Angstrom), charge = 0, multiplicity = 1:

    H           -3.638591559503     0.337407527544    -0.010480252706
    C           -2.567860190539     0.238680964525     0.004955477919
    C           -1.989184343166    -1.019503660099     0.003403003641
    C           -1.766973474536     1.371165667510     0.022507723085
    H           -2.607853788472    -1.898643090310    -0.008890040823
    C           -0.609630250118    -1.146141846532     0.010701167747
    H           -2.215286873698     2.348291045783     0.016974958542
    C           -0.390515133158     1.243742653281     0.048631683217
    H           -0.174134076500    -2.128502314497    -0.000683680056
    C            0.199706185952    -0.016527446690     0.047679029098
    H            0.239851719184     2.112241183401     0.073897229944
    C            1.698324579921    -0.098825585514     0.036170977408
    C            2.354147078351    -1.290217288520    -0.630294586268
    O            2.358091251091     0.789353185998     0.487598590238
    H            2.169652769094    -2.202148549040    -0.070721985869
    H            3.420176104160    -1.118726404198    -0.675748931940
    H            1.959171956674    -1.432870985039    -1.630453471931

  Mulliken Charges: (a.u.)
   Center  Symbol    Alpha    Beta     Spin     Total
       1     H     0.39558  0.39558  0.00000  0.20884
       2     C     3.09345  3.09345  0.00000 -0.18690
       3     C     3.10376  3.10376  0.00000 -0.20752
       4     C     3.10320  3.10320  0.00000 -0.20639
       5     H     0.39635  0.39635  0.00000  0.20730
       6     C     3.10291  3.10291  0.00000 -0.20582
       7     H     0.39528  0.39528  0.00000  0.20943
       8     C     3.09192  3.09192  0.00000 -0.18384
       9     H     0.39464  0.39464  0.00000  0.21071
      10     C     3.04865  3.04865  0.00000 -0.09729
      11     H     0.37917  0.37917  0.00000  0.24166
      12     C     2.73357  2.73357  0.00000  0.53286
      13     C     3.29093  3.29093  0.00000 -0.58185
      14     O     4.26435  4.26435  0.00000 -0.52869
      15     H     0.40757  0.40757  0.00000  0.18487
      16     H     0.39438  0.39438  0.00000  0.21124
      17     H     0.40429  0.40429  0.00000  0.19141

   Total alpha = 32.00000, Total beta = 32.00000, Total charge = -0.00000
