  ==> Input File <==

--------------------------------------------------------------------------
set {
	reference rhf
	basis cc-pvtz
}

set_num_threads( 4 )
memory 2 gb

molecule MOL {
0 1

H	 2.631016	 -0.346546	 0.596152
O	 2.063695	 -0.083403	 -0.105237
C	 0.742924	 0.005675	 0.350750
H	 0.731380	 0.039219	 1.440080
C	 -0.064076	 -1.193495	 -0.124425
C	 -0.047832	 1.190568	 -0.194462
H	 0.194729	 -1.376165	 -1.161308
H	 0.163013	 -2.094508	 0.429933
C	 -1.533112	 -0.752002	 0.006102
H	 0.148003	 1.266545	 -1.259275
H	 0.226235	 2.136493	 0.259722
C	 -1.506634	 0.799189	 0.067162
H	 -2.124360	 -1.110499	 -0.826089
H	 -1.983103	 -1.158030	 0.903403
H	 -2.183808	 1.252169	 -0.644677
H	 -1.813926	 1.138698	 1.049457

	symmetry c1
}
set optking {
	frozen_dihedral = ("
		1 2 3 6
	")
}

ee = optimize('scf')
oeprop('DIPOLE', 'QUADRUPOLE', 'MULLIKEN_CHARGES')
f=open( 'psi4out.xyz', 'w' )
f.write( "16  " )
f.write( str(ee) + "\n" )
f.write( MOL.save_string_xyz() )
f.close()
--------------------------------------------------------------------------

    Molecular point group: c1
  Charge       = 0
  Multiplicity = 1
  Basis Set: CC-PVTZ
  Basis Set:
  @DF-RHF Final Energy:  -270.11481849840129
    Total Energy =                       -270.1148184984012914
    Molecular point group: c1
  Basis Set: CC-PVTZ
  Basis Set:
  Basis Set: CC-PVTZ
  Basis Set:
  @DF-RHF Final Energy:  -270.11571168868278
    Total Energy =                       -270.1157116886826088
  Basis Set: CC-PVTZ
  Basis Set:
  Basis Set: CC-PVTZ
  Basis Set:
  @DF-RHF Final Energy:  -270.11577793790042
    Total Energy =                       -270.1157779379002477
  Basis Set: CC-PVTZ
  Basis Set:
  Basis Set: CC-PVTZ
  Basis Set:
  @DF-RHF Final Energy:  -270.11578094890228
    Total Energy =                       -270.1157809489018291
  Basis Set: CC-PVTZ
  Basis Set:
  Charge       = 0
  Multiplicity = 1
  Basis Set: CC-PVTZ
  Basis Set:

    Orbital Energies (a.u.)
    -----------------------

    Doubly Occupied:

       1A    -20.545177     2A    -11.268058     3A    -11.212892
       4A    -11.212287     5A    -11.206467     6A    -11.206159
       7A     -1.364820     8A     -1.113596     9A     -0.964580
      10A     -0.949194    11A     -0.781164    12A     -0.779907
      13A     -0.716277    14A     -0.654011    15A     -0.622261
      16A     -0.580366    17A     -0.553532    18A     -0.529160
      19A     -0.521031    20A     -0.479478    21A     -0.469462
      22A     -0.455628    23A     -0.452877    24A     -0.414284

  @DF-RHF Final Energy:  -270.11578192676154

   => Energetics <=

    Nuclear Repulsion Energy =            255.3237209307545754
    One-Electron Energy =                -872.7736655471130689
    Two-Electron Energy =                 347.3341626895970080
    DFT Exchange-Correlation Energy =       0.0000000000000000
    Empirical Dispersion Energy =           0.0000000000000000
    PCM Polarization Energy =               0.0000000000000000
    EFP Energy =                            0.0000000000000000
    Total Energy =                       -270.1157819267614855
    Molecular point group: c1
  Basis Set: CC-PVTZ
  Basis Set:

  -Total Gradient:
     Atom            X                  Y                   Z
    ------   -----------------  -----------------  -----------------
       1        0.000147062296     0.001120798594     0.000335734577
       2       -0.000106861823    -0.001263953321    -0.000157730639
       3       -0.000276277107    -0.000231131496    -0.000770573855
       4        0.000018800038    -0.000011064350    -0.000009914877
       5        0.000116732963     0.000018072702    -0.000042201840
       6        0.000104022777     0.000441656866     0.000605905824
       7       -0.000016187395    -0.000031718227     0.000010235948
       8       -0.000023492913     0.000015582415     0.000010961857
       9       -0.000061946109     0.000016596041     0.000086403405
      10        0.000019279284    -0.000032211885     0.000012529280
      11        0.000037555579     0.000014806239     0.000005387363
      12        0.000057054796    -0.000006926969    -0.000064347982
      13        0.000008579719    -0.000002917535    -0.000036879457
      14       -0.000033651406    -0.000022615277    -0.000029909840
      15       -0.000013819400    -0.000025839308     0.000027888985
      16        0.000023148704     0.000000865507     0.000016511251

  **** Optimization is complete! (in 5 steps) ****
    Final optimized geometry and variables:
    Molecular point group: c1

    Geometry (in Angstrom), charge = 0, multiplicity = 1:

    H            2.655202741520    -0.275404569025     0.564107752736
    O            2.065730736519    -0.013850106406    -0.116798845153
    C            0.742295674048    -0.006433183225     0.349308844565
    H            0.736029502958     0.029113231537     1.437260000937
    C           -0.078839345375    -1.202090288226    -0.125855291653
    C           -0.036847137771     1.185019671537    -0.187579994167
    H            0.179505881429    -1.386707051010    -1.162484942852
    H            0.135071557347    -2.108597215630     0.427458878080
    C           -1.543475575837    -0.746982105676     0.002462732656
    H            0.171781060061     1.270262509873    -1.249128889701
    H            0.249855194386     2.119375108074     0.277948477119
    C           -1.501138912698     0.804852008159     0.055711483300
    H           -2.138369362990    -1.104092329229    -0.827824063689
    H           -1.997935320207    -1.144007005570     0.901728058494
    H           -2.165748383454     1.258701590601    -0.667240480365
    H           -1.819263888299     1.151975673999     1.032046899201

  Mulliken Charges: (a.u.)
   Center  Symbol    Alpha    Beta     Spin     Total
       1     H     0.39271  0.39271  0.00000  0.21458
       2     O     4.20317  4.20317  0.00000 -0.40633
       3     C     2.92141  2.92141  0.00000  0.15718
       4     H     0.46976  0.46976  0.00000  0.06047
       5     C     3.10123  3.10123  0.00000 -0.20247
       6     C     3.09549  3.09549  0.00000 -0.19098
       7     H     0.45249  0.45249  0.00000  0.09502
       8     H     0.44905  0.44905  0.00000  0.10189
       9     C     3.11266  3.11266  0.00000 -0.22532
      10     H     0.45294  0.45294  0.00000  0.09412
      11     H     0.44700  0.44700  0.00000  0.10600
      12     C     3.11258  3.11258  0.00000 -0.22516
      13     H     0.44529  0.44529  0.00000  0.10942
      14     H     0.44912  0.44912  0.00000  0.10176
      15     H     0.44386  0.44386  0.00000  0.11227
      16     H     0.45122  0.45122  0.00000  0.09755

   Total alpha = 24.00000, Total beta = 24.00000, Total charge = -0.00000
