  ==> Input File <==

--------------------------------------------------------------------------
set {
	reference rhf
	basis 6-31G*
}

set_num_threads( 4 )
memory 2 gb

molecule MOL {
0 1

H	 -3.563036	 1.679091	 -0.694965
O	 -2.855329	 1.094818	 -0.926655
C	 -2.306886	 0.532354	 0.237577
C	 -1.177863	 -0.397191	 -0.171080
H	 -1.928051	 1.311487	 0.897686
H	 -3.065055	 -0.022029	 0.789101
C	 0.198102	 0.111031	 0.262842
H	 -1.208843	 -0.518759	 -1.250427
H	 -1.368741	 -1.376554	 0.258909
C	 1.331804	 -0.827780	 -0.158768
H	 0.361943	 1.100838	 -0.156218
H	 0.217265	 0.229072	 1.345532
C	 2.723619	 -0.410569	 0.329459
H	 1.342964	 -0.912588	 -1.244120
H	 1.116806	 -1.824343	 0.220779
C	 3.243875	 0.895854	 -0.272975
H	 3.424222	 -1.207124	 0.091250
H	 2.714788	 -0.329854	 1.414619
H	 3.251977	 0.848779	 -1.358681
H	 2.637085	 1.747371	 0.016682
H	 4.259473	 1.094070	 0.055697

	symmetry c1
}
set optking {
	frozen_dihedral = ("
		2 3 4 8
	")
}

ee = optimize('scf')
oeprop('DIPOLE', 'QUADRUPOLE', 'MULLIKEN_CHARGES')
f=open( 'psi4out.xyz', 'w' )
f.write( "21  " )
f.write( str(ee) + "\n" )
f.write( MOL.save_string_xyz() )
f.close()
--------------------------------------------------------------------------

    Molecular point group: c1
  Charge       = 0
  Multiplicity = 1
  Basis Set: 6-31G*
  Basis Set:
  @DF-RHF Final Energy:  -310.20683407519573
    Total Energy =                       -310.2068340751957294
    Molecular point group: c1
  Basis Set: 6-31G*
  Basis Set:
  Basis Set: 6-31G*
  Basis Set:
  @DF-RHF Final Energy:  -310.20720860672418
    Total Energy =                       -310.2072086067241798
  Basis Set: 6-31G*
  Basis Set:
  Basis Set: 6-31G*
  Basis Set:
  @DF-RHF Final Energy:  -310.20735000302562
    Total Energy =                       -310.2073500030255673
  Basis Set: 6-31G*
  Basis Set:
  Basis Set: 6-31G*
  Basis Set:
  @DF-RHF Final Energy:  -310.20734244810706
    Total Energy =                       -310.2073424481071697
  Basis Set: 6-31G*
  Basis Set:
  Basis Set: 6-31G*
  Basis Set:
  @DF-RHF Final Energy:  -310.20735158230565
    Total Energy =                       -310.2073515823055914
  Basis Set: 6-31G*
  Basis Set:
  Charge       = 0
  Multiplicity = 1
  Basis Set: 6-31G*
  Basis Set:

    Orbital Energies (a.u.)
    -----------------------

    Doubly Occupied:

       1A    -20.551269     2A    -11.267332     3A    -11.213625
       4A    -11.212519     5A    -11.211388     6A    -11.210691
       7A    -11.206124     8A     -1.357226     9A     -1.083477
      10A     -1.029986    11A     -0.952287    12A     -0.875374
      13A     -0.806401    14A     -0.776823    15A     -0.701219
      16A     -0.642806    17A     -0.624164    18A     -0.603351
      19A     -0.590145    20A     -0.562239    21A     -0.539949
      22A     -0.519006    23A     -0.505337    24A     -0.491865
      25A     -0.477194    26A     -0.458751    27A     -0.455132
      28A     -0.445800    29A     -0.424199

  @DF-RHF Final Energy:  -310.20735247340019

   => Energetics <=

    Nuclear Repulsion Energy =            313.9691535124563870
    One-Electron Energy =               -1042.7616483134547707
    Two-Electron Energy =                 418.5851423275981915
    DFT Exchange-Correlation Energy =       0.0000000000000000
    Empirical Dispersion Energy =           0.0000000000000000
    PCM Polarization Energy =               0.0000000000000000
    EFP Energy =                            0.0000000000000000
    Total Energy =                       -310.2073524734001921
    Molecular point group: c1
  Basis Set: 6-31G*
  Basis Set:

  -Total Gradient:
     Atom            X                  Y                   Z
    ------   -----------------  -----------------  -----------------
       1       -0.000101135994     0.000113373462    -0.000112366102
       2       -0.001170675007    -0.001319828908     0.000091306397
       3        0.002059962644     0.001803742719     0.000210386226
       4       -0.002072170584    -0.002581588936     0.000072964891
       5       -0.000048362671     0.000046490869    -0.000079342775
       6       -0.000044032711     0.000019709244    -0.000050710179
       7       -0.000056831846     0.000040171810     0.000038744526
       8        0.001435362202     0.001778222311    -0.000221416142
       9       -0.000059723028     0.000112291025     0.000048591142
      10       -0.000036528305    -0.000009105059     0.000032672968
      11        0.000026143114     0.000003701105    -0.000015269344
      12       -0.000005645618     0.000023220611    -0.000003639260
      13        0.000053342181    -0.000049559935    -0.000038758652
      14        0.000016453290    -0.000023091777     0.000018832038
      15       -0.000017282234     0.000016961974    -0.000001212405
      16       -0.000001685270     0.000011072865     0.000017347583
      17        0.000034344395     0.000016854517    -0.000002086779
      18        0.000005478240    -0.000016992447    -0.000011114439
      19        0.000007211289    -0.000007962384     0.000005618149
      20       -0.000017943380     0.000009665440    -0.000004120061
      21       -0.000006280702     0.000012651493     0.000003572222

  **** Optimization is complete! (in 6 steps) ****
    Final optimized geometry and variables:
    Molecular point group: c1

    Geometry (in Angstrom), charge = 0, multiplicity = 1:

    H           -3.638081621973     1.539183200869    -0.607090207872
    O           -2.949986597091     0.927607982669    -0.828692726075
    C           -2.427777756542     0.359147128940     0.348230257603
    C           -1.283980961007    -0.589000022187    -0.031122610667
    H           -2.069247045991     1.139739616279     1.016338093113
    H           -3.211234405095    -0.180642535571     0.875639298152
    C            0.096754029562    -0.078056529785     0.391070678099
    H           -1.304095181531    -0.701553936392    -1.109730439532
    H           -1.454309491523    -1.571459725534     0.399756700938
    C            1.229928215853    -1.010407688148    -0.043022351991
    H            0.243069505478     0.912595958667    -0.031166213997
    H            0.125373428480     0.040290678178     1.473757490748
    C            2.624764102375    -0.589997343054     0.434436500050
    H            1.231963031438    -1.091192688054    -1.128795465849
    H            1.022916595382    -2.010037649935     0.334353520979
    C            3.130035125391     0.725366605679    -0.161219496988
    H            3.327960943618    -1.379847322947     0.181691431885
    H            2.626757095332    -0.519216847277     1.520383512122
    H            3.128973543358     0.687446947876    -1.247236402822
    H            2.518775273845     1.569380238496     0.140436337514
    H            4.146894814689     0.928659606339     0.160571007034

  Mulliken Charges: (a.u.)
   Center  Symbol    Alpha    Beta     Spin     Total
       1     H     0.28202  0.28202  0.00000  0.43597
       2     O     4.37133  4.37133  0.00000 -0.74266
       3     C     2.99637  2.99637  0.00000  0.00727
       4     C     3.16435  3.16435  0.00000 -0.32871
       5     H     0.42963  0.42963  0.00000  0.14075
       6     H     0.43016  0.43016  0.00000  0.13967
       7     C     3.16047  3.16047  0.00000 -0.32093
       8     H     0.40349  0.40349  0.00000  0.19302
       9     H     0.42107  0.42107  0.00000  0.15787
      10     C     3.15322  3.15322  0.00000 -0.30643
      11     H     0.41631  0.41631  0.00000  0.16738
      12     H     0.42621  0.42621  0.00000  0.14757
      13     C     3.15219  3.15219  0.00000 -0.30439
      14     H     0.42239  0.42239  0.00000  0.15521
      15     H     0.42301  0.42301  0.00000  0.15399
      16     C     3.24104  3.24104  0.00000 -0.48209
      17     H     0.42121  0.42121  0.00000  0.15759
      18     H     0.42412  0.42412  0.00000  0.15176
      19     H     0.42155  0.42155  0.00000  0.15690
      20     H     0.42002  0.42002  0.00000  0.15996
      21     H     0.41984  0.41984  0.00000  0.16031

   Total alpha = 29.00000, Total beta = 29.00000, Total charge =  0.00000
