                              Psi4 1.0.54 Driver

  ==> Input File <==

--------------------------------------------------------------------------
set {
	reference rhf
	basis cc-pvtz
}

set_num_threads( 4 )
memory 2 gb

molecule MOL {
0 1

H	 3.889604	 0.356866	 -0.089510
N	 3.091268	 -0.241216	 -0.065538
C	 1.860978	 0.530248	 0.016256
H	 3.192566	 -0.835836	 0.730398
C	 0.644130	 -0.381765	 -0.031064
H	 1.835721	 1.204666	 -0.833114
H	 1.808789	 1.151975	 0.911067
C	 -0.678115	 0.376691	 0.025731
H	 0.693998	 -0.977147	 -0.936845
H	 0.693309	 -1.082142	 0.800523
C	 -0.806349	 1.276908	 1.251442
H	 -1.501057	 -0.334412	 0.018493
H	 -0.790319	 0.979623	 -0.872465
C	 -2.132131	 2.028436	 1.307846
H	 -0.694055	 0.676520	 2.149894
H	 0.012712	 1.990948	 1.259036
H	 -2.970907	 1.340782	 1.336615
H	 -2.190451	 2.657173	 2.188921
H	 -2.258676	 2.665235	 0.438474

	symmetry c1
}
set optking {
	frozen_dihedral = ("
		12 8 5 9
	")
}

ee,wfn = optimize('scf', return_wfn=True)
oeprop( wfn, 'DIPOLE', 'QUADRUPOLE', 'MULLIKEN_CHARGES')
f=open( 'psi4out.xyz', 'w' )
f.write( "19  " )
f.write( str(ee) + "\n" )
f.write( MOL.save_string_xyz() )
f.close()
--------------------------------------------------------------------------

    Molecular point group: c1
  Charge       = 0
  Multiplicity = 1
  Basis Set: CC-PVTZ
  Basis Set:
  @DF-RHF Final Energy:  -251.44434635932350
    Total Energy =                       -251.4443463593234469
    Molecular point group: c1
  Basis Set: CC-PVTZ
  Basis Set:
  Basis Set: CC-PVTZ
  Basis Set:
  @DF-RHF Final Energy:  -251.44462380530555
    Total Energy =                       -251.4446238053056959
  Basis Set: CC-PVTZ
  Basis Set:
  Basis Set: CC-PVTZ
  Basis Set:
  @DF-RHF Final Energy:  -251.44575217998258
    Total Energy =                       -251.4457521799822644
  Basis Set: CC-PVTZ
  Basis Set:
  Basis Set: CC-PVTZ
  Basis Set:
  @DF-RHF Final Energy:  -251.44584222990278
    Total Energy =                       -251.4458422299028371
  Basis Set: CC-PVTZ
  Basis Set:
  Basis Set: CC-PVTZ
  Basis Set:
  @DF-RHF Final Energy:  -251.44584825847102
    Total Energy =                       -251.4458482584710737
  Basis Set: CC-PVTZ
  Basis Set:
  Basis Set: CC-PVTZ
  Basis Set:
  @DF-RHF Final Energy:  -251.44584945055601
    Total Energy =                       -251.4458494505561248
  Basis Set: CC-PVTZ
  Basis Set:
  Charge       = 0
  Multiplicity = 1
  Basis Set: CC-PVTZ
  Basis Set:

    Orbital Energies (a.u.)
    -----------------------

    Doubly Occupied:

       1A    -15.526149     2A    -11.237195     3A    -11.212505
       4A    -11.211054     5A    -11.208219     6A    -11.206104
       7A     -1.177828     8A     -1.073788     9A     -0.997853
      10A     -0.900067    11A     -0.830673    12A     -0.775381
      13A     -0.656308    14A     -0.640119    15A     -0.631382
      16A     -0.587264    17A     -0.570373    18A     -0.546592
      19A     -0.529531    20A     -0.506100    21A     -0.482854
      22A     -0.462053    23A     -0.457760    24A     -0.451299
      25A     -0.383081

  @DF-RHF Final Energy:  -251.44584957170423

   => Energetics <=

    Nuclear Repulsion Energy =            249.4331301068007178
    One-Electron Energy =                -833.2348939528640130
    Two-Electron Energy =                 332.3559142743594066
    DFT Exchange-Correlation Energy =       0.0000000000000000
    Empirical Dispersion Energy =           0.0000000000000000
    PCM Polarization Energy =               0.0000000000000000
    EFP Energy =                            0.0000000000000000
    Total Energy =                       -251.4458495717038886
    Molecular point group: c1
  Basis Set: CC-PVTZ
  Basis Set:

  -Total Gradient:
     Atom            X                  Y                   Z
    ------   -----------------  -----------------  -----------------
       1       -0.000002034060    -0.000001085412    -0.000002088071
       2        0.000002022042    -0.000000174201     0.000010033713
       3        0.000001755965    -0.000002922429    -0.000012633902
       4        0.000003906234     0.000003172793    -0.000001171478
       5       -0.000881915987    -0.001709509607     0.001421586949
       6        0.000000042631     0.000000627909     0.000004366899
       7       -0.000001634921    -0.000002961704     0.000001766230
       8        0.000074881583     0.000413241146    -0.002323364900
       9        0.000727459156     0.001379770506    -0.000842857535
      10       -0.000002789951     0.000004544647    -0.000003225473
      11        0.000004097761     0.000010704797    -0.000008715863
      12        0.000059740761    -0.000088881112     0.001752998753
      13        0.000007250503    -0.000000827666     0.000005879271
      14        0.000002988678    -0.000004769460     0.000000519204
      15       -0.000001162299    -0.000000058243    -0.000004771752
      16        0.000001579132     0.000003836975     0.000001547264
      17        0.000000799968     0.000000274784    -0.000001064540
      18        0.000000775519    -0.000003621708    -0.000001548170
      19        0.000002237285    -0.000001362012     0.000002743401

  **** Optimization is complete! (in 7 steps) ****
    Final optimized geometry and variables:
    Molecular point group: c1

    Geometry (in Angstrom), charge = 0, multiplicity = 1:

    H            3.556429268719    -0.274769291154    -0.726250991205
    N            2.739855223619    -0.847760935158    -0.697546362401
    C            1.551137993865    -0.049700707046    -0.433653280001
    H            2.881338679582    -1.522588131153     0.025211375746
    C            0.308682694195    -0.931910144285    -0.437126884796
    H            1.465676257574     0.689181738743    -1.224322142026
    H            1.617945377986     0.498443708474     0.503965180077
    C           -1.019137606554    -0.178279979391    -0.346984648259
    H            0.326924479283    -1.505858665968    -1.356929777815
    H            0.376662359896    -1.645581372006     0.381540465058
    C           -1.192233610928     0.699820845824     0.892487463790
    H           -1.822085096393    -0.910166543095    -0.353131560744
    H           -1.149897676437     0.430861666656    -1.237979180689
    C           -2.589734532391     1.302951063832     0.993494869180
    H           -0.990727772159     0.108335219499     1.782235064757
    H           -0.462297561554     1.502094578644     0.887582689111
    H           -3.347532714640     0.528668809828     1.050519199351
    H           -2.686534605533     1.926234392161     1.875136095003
    H           -2.813031816891     1.918190658670     0.128025537914

  Mulliken Charges: (a.u.)
   Center  Symbol    Alpha    Beta     Spin     Total
       1     H     0.43009  0.43009  0.00000  0.13983
       2     N     3.69067  3.69067  0.00000 -0.38135
       3     C     3.02714  3.02714  0.00000 -0.05428
       4     H     0.43079  0.43079  0.00000  0.13842
       5     C     3.09264  3.09264  0.00000 -0.18527
       6     H     0.45691  0.45691  0.00000  0.08617
       7     H     0.46410  0.46410  0.00000  0.07180
       8     C     3.09964  3.09964  0.00000 -0.19928
       9     H     0.44310  0.44310  0.00000  0.11381
      10     H     0.45838  0.45838  0.00000  0.08324
      11     C     3.08839  3.08839  0.00000 -0.17678
      12     H     0.44950  0.44950  0.00000  0.10101
      13     H     0.45243  0.45243  0.00000  0.09514
      14     C     3.14938  3.14938  0.00000 -0.29875
      15     H     0.45466  0.45466  0.00000  0.09067
      16     H     0.45370  0.45370  0.00000  0.09261
      17     H     0.45471  0.45471  0.00000  0.09057
      18     H     0.44874  0.44874  0.00000  0.10251
      19     H     0.45504  0.45504  0.00000  0.08992

   Total alpha = 25.00000, Total beta = 25.00000, Total charge =  0.00000

*** Psi4 exiting successfully. Buy a developer a beer!
