  ==> Input File <==

--------------------------------------------------------------------------
set {
	reference rhf
	basis 6-31G*
}

set_num_threads( 1 )
memory 2 gb

molecule MOL {
0 1

H	 -1.034935	 -0.632002	 0.000000
C	 -0.790252	 0.431209	 0.000000
N	 0.538815	 0.649616	 0.000000
O	 -1.637133	 1.275011	 -0.000000
C	 1.521968	 -0.411503	 0.000000
H	 0.852804	 1.592852	 0.000000
H	 2.150599	 -0.357004	 -0.881901
H	 0.999455	 -1.354525	 0.000000
H	 2.150599	 -0.357004	 0.881901

	symmetry c1
}
set optking {
	frozen_dihedral = ("
		6 3 5 7
	")
}

ee = energy('scf')
oeprop('DIPOLE', 'QUADRUPOLE', 'MULLIKEN_CHARGES')
f=open( 'psi4out.xyz', 'w' )
f.write( "9  " )
f.write( str(ee) + "\n" )
f.write( MOL.save_string_xyz() )
f.close()
--------------------------------------------------------------------------

    Molecular point group: c1

    Geometry (in Angstrom), charge = 0, multiplicity = 1:

       Center              X                  Y                   Z               Mass
    ------------   -----------------  -----------------  -----------------  -----------------
           H         -0.955297474793    -1.116619768681     0.000000000000     1.007825032070
           C         -0.710614474793    -0.053408768681     0.000000000000    12.000000000000
           N          0.618452525207     0.164998231319     0.000000000000    14.003074004780
           O         -1.557495474793     0.790393231319     0.000000000000    15.994914619560
           C          1.601605525207    -0.896120768681     0.000000000000    12.000000000000
           H          0.932441525207     1.108234231319     0.000000000000     1.007825032070
           H          2.230236525207    -0.841621768681    -0.881901000000     1.007825032070
           H          1.079092525207    -1.839142768681     0.000000000000     1.007825032070
           H          2.230236525207    -0.841621768681     0.881901000000     1.007825032070

  Charge       = 0
  Multiplicity = 1
  Basis Set: 6-31G*
  Basis Set:

    Orbital Energies (a.u.)
    -----------------------

    Doubly Occupied:

       1A    -20.524289     2A    -15.590767     3A    -11.344516
       4A    -11.276649     5A     -1.387281     6A     -1.241275
       7A     -0.965886     8A     -0.850046     9A     -0.690025
      10A     -0.674521    11A     -0.634617    12A     -0.591331
      13A     -0.575646    14A     -0.542992    15A     -0.422941
      16A     -0.389467

  @DF-RHF Final Energy:  -207.95894614973406

   => Energetics <=

    Nuclear Repulsion Energy =            120.4089574170366888
    One-Electron Energy =                -521.3312770812055987
    Two-Electron Energy =                 192.9633735144347781
    DFT Exchange-Correlation Energy =       0.0000000000000000
    Empirical Dispersion Energy =           0.0000000000000000
    PCM Polarization Energy =               0.0000000000000000
    EFP Energy =                            0.0000000000000000
    Total Energy =                       -207.9589461497341460

  Mulliken Charges: (a.u.)
   Center  Symbol    Alpha    Beta     Spin     Total
       1     H     0.43195  0.43195  0.00000  0.13610
       2     C     2.73854  2.73854  0.00000  0.52292
       3     N     3.87138  3.87138  0.00000 -0.74276
       4     O     4.28504  4.28504  0.00000 -0.57008
       5     C     3.14074  3.14074  0.00000 -0.28147
       6     H     0.30395  0.30395  0.00000  0.39209
       7     H     0.40982  0.40982  0.00000  0.18036
       8     H     0.40875  0.40875  0.00000  0.18250
       9     H     0.40982  0.40982  0.00000  0.18036

   Total alpha = 16.00000, Total beta = 16.00000, Total charge =  0.00000
