                              Psi4 1.0.54 Driver

  ==> Input File <==

--------------------------------------------------------------------------
set {
	reference rhf
	basis cc-pvtz
}

set_num_threads( 4 )
memory 2 gb

molecule MOL {
0 1

H	 1.166964	 -1.062386	 0.758429
O	 1.324748	 -0.612467	 -0.052206
C	 0.706474	 0.636793	 -0.025501
C	 0.401619	 1.154860	 1.351562
H	 -0.218558	 0.533106	 -0.580360
H	 1.303979	 1.376611	 -0.554987
C	 0.571000	 0.495680	 2.476328
H	 0.009558	 2.158297	 1.377078
H	 0.942762	 -0.511076	 2.490731
H	 0.328751	 0.941727	 3.422065

	symmetry c1
}
set optking {
	frozen_dihedral = ("
		5 3 2 1
	")
}

ee,wfn = optimize('scf', return_wfn=True)
oeprop( wfn, 'DIPOLE', 'QUADRUPOLE', 'MULLIKEN_CHARGES')
f=open( 'psi4out.xyz', 'w' )
f.write( "10  " )
f.write( str(ee) + "\n" )
f.write( MOL.save_string_xyz() )
f.close()
--------------------------------------------------------------------------

    Molecular point group: c1
  Charge       = 0
  Multiplicity = 1
  Basis Set: CC-PVTZ
  Basis Set:
  @DF-RHF Final Energy:  -191.99362929005503
    Total Energy =                       -191.9936292900549972
    Molecular point group: c1
  Basis Set: CC-PVTZ
  Basis Set:
  Basis Set: CC-PVTZ
  Basis Set:
  @DF-RHF Final Energy:  -191.99528185079726
    Total Energy =                       -191.9952818507973120
  Basis Set: CC-PVTZ
  Basis Set:
  Basis Set: CC-PVTZ
  Basis Set:
  @DF-RHF Final Energy:  -191.99585892247299
    Total Energy =                       -191.9958589224730758
  Basis Set: CC-PVTZ
  Basis Set:
  Basis Set: CC-PVTZ
  Basis Set:
  @DF-RHF Final Energy:  -191.99621450197077
    Total Energy =                       -191.9962145019706554
  Basis Set: CC-PVTZ
  Basis Set:
  Basis Set: CC-PVTZ
  Basis Set:
  @DF-RHF Final Energy:  -191.99632562937774
    Total Energy =                       -191.9963256293776510
  Basis Set: CC-PVTZ
  Basis Set:
  Basis Set: CC-PVTZ
  Basis Set:
  @DF-RHF Final Energy:  -191.99633421021767
    Total Energy =                       -191.9963342102176966
  Basis Set: CC-PVTZ
  Basis Set:
  Charge       = 0
  Multiplicity = 1
  Basis Set: CC-PVTZ
  Basis Set:

    Orbital Energies (a.u.)
    -----------------------

    Doubly Occupied:

       1A    -20.551671     2A    -11.278231     3A    -11.239245
       4A    -11.225023     5A     -1.373023     6A     -1.068245
       7A     -0.937255     8A     -0.778323     9A     -0.691398
      10A     -0.662134    11A     -0.629745    12A     -0.574175
      13A     -0.555840    14A     -0.486362    15A     -0.457790
      16A     -0.374434

  @DF-RHF Final Energy:  -191.99633445234127

   => Energetics <=

    Nuclear Repulsion Energy =            119.5376894723189451
    One-Electron Energy =                -497.3022578536132414
    Two-Electron Energy =                 185.7682339289530944
    DFT Exchange-Correlation Energy =       0.0000000000000000
    Empirical Dispersion Energy =           0.0000000000000000
    PCM Polarization Energy =               0.0000000000000000
    EFP Energy =                            0.0000000000000000
    Total Energy =                       -191.9963344523411877
    Molecular point group: c1
  Basis Set: CC-PVTZ
  Basis Set:

  -Total Gradient:
     Atom            X                  Y                   Z
    ------   -----------------  -----------------  -----------------
       1        0.003011030459     0.001220402576     0.001266741557
       2       -0.003299994339    -0.001338023880    -0.002235626408
       3       -0.001232746756    -0.000389766779     0.003534938776
       4        0.000029896754     0.000036853951    -0.000026132755
       5        0.001487380344     0.000483735393    -0.002564851903
       6        0.000008192764     0.000004011958     0.000021717253
       7        0.000036145900     0.000028818712     0.000006637615
       8       -0.000008927039    -0.000006450687     0.000001933054
       9       -0.000012614984    -0.000017081291    -0.000002986216
      10       -0.000018363104    -0.000022499952    -0.000002370973

  **** Optimization is complete! (in 7 steps) ****
    Final optimized geometry and variables:
    Molecular point group: c1

    Geometry (in Angstrom), charge = 0, multiplicity = 1:

    H            0.142099354540    -1.542118640422    -0.035722378880
    O            0.336984107082    -1.154134820151    -0.868399747564
    C           -0.163632156249     0.146504608117    -0.924735949549
    C           -0.346538598506     0.829215645767     0.399043473147
    H           -1.103417638668     0.159732084404    -1.471537657097
    H            0.532533724142     0.731406122593    -1.518378125855
    C            0.119201161030     0.426535237318     1.561151670691
    H           -0.911447261998     1.744749000275     0.350663902740
    H            0.712563946054    -0.462427132772     1.672151588043
    H           -0.065306473789     0.989199792212     2.455921611704

  Mulliken Charges: (a.u.)
   Center  Symbol    Alpha    Beta     Spin     Total
       1     H     0.39011  0.39011  0.00000  0.21977
       2     O     4.20184  4.20184  0.00000 -0.40367
       3     C     2.93781  2.93781  0.00000  0.12439
       4     C     3.07945  3.07945  0.00000 -0.15891
       5     H     0.47124  0.47124  0.00000  0.05753
       6     H     0.46121  0.46121  0.00000  0.07758
       7     C     3.17671  3.17671  0.00000 -0.35341
       8     H     0.42173  0.42173  0.00000  0.15653
       9     H     0.43324  0.43324  0.00000  0.13353
      10     H     0.42667  0.42667  0.00000  0.14666

   Total alpha = 16.00000, Total beta = 16.00000, Total charge = -0.00000

*** Psi4 exiting successfully. Buy a developer a beer!
