  ==> Input File <==

--------------------------------------------------------------------------
set {
	reference rhf
	basis 6-31G*
}

set_num_threads( 4 )
memory 2 gb

molecule MOL {
0 1

O	 1.205420	 0.534792	 -0.992196
C	 1.705091	 0.115954	 0.001797
C	 1.285642	 0.463147	 1.409415
O	 2.721346	 -0.737485	 -0.000216
C	 0.116754	 1.441771	 1.469748
H	 1.046189	 -0.467946	 1.915817
H	 2.158764	 0.860710	 1.919630
C	 -0.287616	 1.775045	 2.906576
H	 -0.729780	 1.020977	 0.936362
H	 0.384247	 2.351389	 0.941212
C	 -1.459517	 2.754964	 2.985728
H	 -0.551230	 0.858469	 3.432307
H	 0.566114	 2.194384	 3.436842
C	 -1.862302	 3.088522	 4.421609
H	 -2.313998	 2.336396	 2.458658
H	 -1.197386	 3.671410	 2.461752
H	 -2.163413	 2.195585	 4.962175
H	 -2.694695	 3.784976	 4.444524
H	 -1.037706	 3.540824	 4.965460
C	 4.024888	 -0.184556	 -0.001949
H	 4.179030	 0.422472	 -0.882452
H	 4.701782	 -1.024608	 -0.003642
H	 4.181981	 0.421185	 0.878906

	symmetry c1
}
set optking {
	frozen_dihedral = ("
		1 2 4 20
	")
}

ee = optimize('scf')
oeprop('DIPOLE', 'QUADRUPOLE', 'MULLIKEN_CHARGES')
f=open( 'psi4out.xyz', 'w' )
f.write( "23  " )
f.write( str(ee) + "\n" )
f.write( MOL.save_string_xyz() )
f.close()
--------------------------------------------------------------------------

    Molecular point group: c1
  Charge       = 0
  Multiplicity = 1
  Basis Set: 6-31G*
  Basis Set:
  @DF-RHF Final Energy:  -422.95466552642546
    Total Energy =                       -422.9546655264259698
    Molecular point group: c1
  Basis Set: 6-31G*
  Basis Set:
  Basis Set: 6-31G*
  Basis Set:
  @DF-RHF Final Energy:  -422.95318098578184
    Total Energy =                       -422.9531809857822964
  Basis Set: 6-31G*
  Basis Set:
  Basis Set: 6-31G*
  Basis Set:
  @DF-RHF Final Energy:  -422.95561803047167
    Total Energy =                       -422.9556180304718964
  Basis Set: 6-31G*
  Basis Set:
  Basis Set: 6-31G*
  Basis Set:
  @DF-RHF Final Energy:  -422.95619006618097
    Total Energy =                       -422.9561900661816480
  Basis Set: 6-31G*
  Basis Set:
  Basis Set: 6-31G*
  Basis Set:
  @DF-RHF Final Energy:  -422.95620645570250
    Total Energy =                       -422.9562064557029544
  Basis Set: 6-31G*
  Basis Set:
  Basis Set: 6-31G*
  Basis Set:
  @DF-RHF Final Energy:  -422.95620876865468
    Total Energy =                       -422.9562087686542782
  Basis Set: 6-31G*
  Basis Set:
  Charge       = 0
  Multiplicity = 1
  Basis Set: 6-31G*
  Basis Set:

    Orbital Energies (a.u.)
    -----------------------

    Doubly Occupied:

       1A    -20.585230     2A    -20.557573     3A    -11.375114
       4A    -11.291860     5A    -11.239886     6A    -11.222256
       7A    -11.220453     8A    -11.218441     9A    -11.211296
      10A     -1.458806    11A     -1.367424    12A     -1.095019
      13A     -1.041956    14A     -0.980846    15A     -0.942797
      16A     -0.850518    17A     -0.797534    18A     -0.765313
      19A     -0.695902    20A     -0.678799    21A     -0.674089
      22A     -0.649542    23A     -0.618514    24A     -0.607248
      25A     -0.579485    26A     -0.568221    27A     -0.556251
      28A     -0.536061    29A     -0.510587    30A     -0.495998
      31A     -0.487048    32A     -0.480089    33A     -0.470882
      34A     -0.467907    35A     -0.449538    36A     -0.431837

  @DF-RHF Final Energy:  -422.95620890564243

   => Energetics <=

    Nuclear Repulsion Energy =            452.5872494380503781
    One-Electron Energy =               -1472.7262768272723861
    Two-Electron Energy =                 597.1828184835792399
    DFT Exchange-Correlation Energy =       0.0000000000000000
    Empirical Dispersion Energy =           0.0000000000000000
    PCM Polarization Energy =               0.0000000000000000
    EFP Energy =                            0.0000000000000000
    Total Energy =                       -422.9562089056428249
    Molecular point group: c1
  Basis Set: 6-31G*
  Basis Set:

  -Total Gradient:
     Atom            X                  Y                   Z
    ------   -----------------  -----------------  -----------------
       1       -0.002046227801    -0.002488315424     0.000216000715
       2        0.002973096422     0.003661278393     0.000927954278
       3        0.000004946220     0.000014595555    -0.000002453255
       4       -0.001063781897    -0.001276426367    -0.003770065023
       5        0.000012758731     0.000003889981     0.000009130223
       6        0.000005414581     0.000005365441     0.000005777532
       7        0.000004879460     0.000008373842     0.000000617845
       8        0.000008814647    -0.000000310032    -0.000001930669
       9       -0.000007862140     0.000000472838    -0.000003869104
      10        0.000006966251    -0.000000957175    -0.000001131771
      11       -0.000005389667    -0.000011742354    -0.000004532339
      12        0.000004520117     0.000000696746    -0.000002460698
      13       -0.000000373727     0.000003597866     0.000002299556
      14        0.000001501326     0.000002483080     0.000000742522
      15       -0.000002279508     0.000000369480    -0.000000897475
      16       -0.000000863736    -0.000002605352     0.000001458358
      17       -0.000001064107     0.000001458980    -0.000001928128
      18        0.000000364628     0.000002415166     0.000001449944
      19        0.000000026583    -0.000002510502     0.000000634398
      20        0.000097746317     0.000079348007     0.002621466493
      21        0.000006225548     0.000005070573    -0.000004804793
      22        0.000001911860    -0.000005225914     0.000002250460
      23       -0.000001330113    -0.000001322821     0.000004290932

  **** Optimization is complete! (in 7 steps) ****
    Final optimized geometry and variables:
    Molecular point group: c1

    Geometry (in Angstrom), charge = 0, multiplicity = 1:

    O            0.336092899671    -0.536801591175    -2.299434951286
    C            0.865031730975    -0.900235387024    -1.307588219914
    C            0.423228925520    -0.542592239953     0.090875903696
    O            1.902939079664    -1.770425151450    -1.334872804837
    C           -0.737463803019     0.446030969160     0.139231252873
    H            0.166010665503    -1.477205304163     0.583531468844
    H            1.286440108025    -0.159246023144     0.630154379120
    C           -1.166990123817     0.770948916269     1.570643916591
    H           -1.575987715327     0.036254817907    -0.414494687323
    H           -0.452592188300     1.358494594329    -0.376198496801
    C           -2.333451823481     1.758383587519     1.635101178065
    H           -1.447108944999    -0.148051364153     2.083231970627
    H           -0.320959726273     1.180081857345     2.121177727537
    C           -2.762412683596     2.082221239837     3.065615142559
    H           -3.179914912479     1.350234536060     1.087547881994
    H           -2.054801269825     2.677525239697     1.124534100749
    H           -3.080542222344     1.186768867843     3.592076926444
    H           -3.590167124395     2.784332376973     3.078076328680
    H           -1.945794424225     2.523915406170     3.629867014676
    C            3.197050587346    -1.215050167734    -1.424424860146
    H            3.299443764876    -0.627612876242    -2.328642282861
    H            3.886544479626    -2.044262994616    -1.453028970417
    H            3.420126923080    -0.596765579942    -0.560978663974

  Mulliken Charges: (a.u.)
   Center  Symbol    Alpha    Beta     Spin     Total
       1     O     4.25184  4.25184  0.00000 -0.50368
       2     C     2.61341  2.61341  0.00000  0.77318
       3     C     3.21335  3.21335  0.00000 -0.42670
       4     O     4.31604  4.31604  0.00000 -0.63208
       5     C     3.15283  3.15283  0.00000 -0.30566
       6     H     0.39757  0.39757  0.00000  0.20485
       7     H     0.40803  0.40803  0.00000  0.18393
       8     C     3.15323  3.15323  0.00000 -0.30647
       9     H     0.40911  0.40911  0.00000  0.18179
      10     H     0.41363  0.41363  0.00000  0.17273
      11     C     3.15169  3.15169  0.00000 -0.30339
      12     H     0.42325  0.42325  0.00000  0.15350
      13     H     0.42486  0.42486  0.00000  0.15028
      14     C     3.23966  3.23966  0.00000 -0.47932
      15     H     0.42062  0.42062  0.00000  0.15877
      16     H     0.42150  0.42150  0.00000  0.15700
      17     H     0.42148  0.42148  0.00000  0.15703
      18     H     0.41809  0.41809  0.00000  0.16381
      19     H     0.42204  0.42204  0.00000  0.15593
      20     C     3.09292  3.09292  0.00000 -0.18585
      21     H     0.40933  0.40933  0.00000  0.18133
      22     H     0.40249  0.40249  0.00000  0.19502
      23     H     0.42300  0.42300  0.00000  0.15399

   Total alpha = 36.00000, Total beta = 36.00000, Total charge = -0.00000
