  ==> Input File <==

--------------------------------------------------------------------------
set {
	reference rhf
	basis 6-31G*
}

set_num_threads( 4 )
memory 2 gb

molecule MOL {
0 1

H	 -3.261111	 -0.295142	 1.469456
C	 -3.306842	 -0.277400	 0.373456
C	 -2.660244	 0.921717	 -0.272021
O	 -3.838538	 -1.161155	 -0.216482
C	 -2.587050	 2.130191	 0.671635
H	 -1.677466	 0.631721	 -0.625232
H	 -3.263943	 1.181743	 -1.140693
C	 -1.648640	 1.918788	 1.862431
H	 -2.256663	 2.992826	 0.100680
H	 -3.586979	 2.369646	 1.030187
C	 -1.576771	 3.135038	 2.787843
H	 -0.652464	 1.683952	 1.493198
H	 -1.969272	 1.050816	 2.435456
C	 -0.625136	 2.926131	 3.968817
H	 -1.266219	 4.000631	 2.208156
H	 -2.573382	 3.360309	 3.165207
C	 -0.582696	 4.087081	 4.969049
H	 0.379661	 2.739440	 3.593022
H	 -0.922309	 2.024149	 4.499693
C	 -0.002389	 5.387098	 4.409747
H	 0.012805	 3.780397	 5.825362
H	 -1.585485	 4.272484	 5.348471
H	 0.994922	 5.228166	 4.008026
H	 -0.617150	 5.798370	 3.616086
H	 0.071706	 6.141438	 5.187228

	symmetry c1
}
set optking {
	frozen_dihedral = ("
		6 3 2 4
	")
}

ee = optimize('scf')
oeprop('DIPOLE', 'QUADRUPOLE', 'MULLIKEN_CHARGES')
f=open( 'psi4out.xyz', 'w' )
f.write( "25  " )
f.write( str(ee) + "\n" )
f.write( MOL.save_string_xyz() )
f.close()
--------------------------------------------------------------------------

    Molecular point group: c1
  Charge       = 0
  Multiplicity = 1
  Basis Set: 6-31G*
  Basis Set:
  @DF-RHF Final Energy:  -387.11878859363492
    Total Energy =                       -387.1187885936351449
    Molecular point group: c1
  Basis Set: 6-31G*
  Basis Set:
  Basis Set: 6-31G*
  Basis Set:
  @DF-RHF Final Energy:  -387.11964897891204
    Total Energy =                       -387.1196489789119823
  Basis Set: 6-31G*
  Basis Set:
  Basis Set: 6-31G*
  Basis Set:
  @DF-RHF Final Energy:  -387.12000671372545
    Total Energy =                       -387.1200067137253882
  Basis Set: 6-31G*
  Basis Set:
  Basis Set: 6-31G*
  Basis Set:
  @DF-RHF Final Energy:  -387.11998291175604
    Total Energy =                       -387.1199829117560967
  Basis Set: 6-31G*
  Basis Set:
  Basis Set: 6-31G*
  Basis Set:
  @DF-RHF Final Energy:  -387.12008236674734
    Total Energy =                       -387.1200823667472832
  Basis Set: 6-31G*
  Basis Set:
  Basis Set: 6-31G*
  Basis Set:
  @DF-RHF Final Energy:  -387.12008871045680
    Total Energy =                       -387.1200887104565709
  Basis Set: 6-31G*
  Basis Set:
  Basis Set: 6-31G*
  Basis Set:
  @DF-RHF Final Energy:  -387.12009014575148
    Total Energy =                       -387.1200901457507371
  Basis Set: 6-31G*
  Basis Set:
  Charge       = 0
  Multiplicity = 1
  Basis Set: 6-31G*
  Basis Set:

    Orbital Energies (a.u.)
    -----------------------

    Doubly Occupied:

       1A    -20.560580     2A    -11.326428     3A    -11.234973
       4A    -11.233920     5A    -11.228035     6A    -11.222389
       7A    -11.220382     8A    -11.219784     9A    -11.212451
      10A     -1.401277    11A     -1.105532    12A     -1.070695
      13A     -1.014338    14A     -0.943309    15A     -0.876165
      16A     -0.824766    17A     -0.788575    18A     -0.784342
      19A     -0.665507    20A     -0.661933    21A     -0.633813
      22A     -0.620628    23A     -0.611077    24A     -0.597367
      25A     -0.565546    26A     -0.558606    27A     -0.543523
      28A     -0.521870    29A     -0.505809    30A     -0.504689
      31A     -0.486817    32A     -0.480160    33A     -0.467305
      34A     -0.461641    35A     -0.445072    36A     -0.407916

  @DF-RHF Final Energy:  -387.12009063676572

   => Energetics <=

    Nuclear Repulsion Energy =            435.3224385023750642
    One-Electron Energy =               -1386.8706183912108827
    Two-Electron Energy =                 564.4280892520700945
    DFT Exchange-Correlation Energy =       0.0000000000000000
    Empirical Dispersion Energy =           0.0000000000000000
    PCM Polarization Energy =               0.0000000000000000
    EFP Energy =                            0.0000000000000000
    Total Energy =                       -387.1200906367657808
    Molecular point group: c1
  Basis Set: 6-31G*
  Basis Set:

  -Total Gradient:
     Atom            X                  Y                   Z
    ------   -----------------  -----------------  -----------------
       1        0.000000876916     0.000007142578    -0.000008420637
       2        0.000031091184    -0.000009610014    -0.000083102862
       3        0.000002864641    -0.000007792284     0.000023820617
       4       -0.000043425097    -0.000043299939     0.000031219858
       5        0.000011363586     0.000049014949    -0.000037639421
       6       -0.000006382008    -0.000012180281    -0.000002808132
       7       -0.000000700401    -0.000035441100     0.000011886795
       8        0.000015400376     0.000064225557    -0.000017997373
       9       -0.000006625203     0.000046061192     0.000049643012
      10       -0.000003674814    -0.000012288624     0.000000124607
      11        0.000005305175    -0.000032449501     0.000013970328
      12        0.000004084508    -0.000030747740    -0.000005835991
      13       -0.000009879751     0.000020837401     0.000007909453
      14       -0.000006587380     0.000006319625     0.000006260698
      15       -0.000004952574    -0.000026229229    -0.000015278347
      16        0.000002608782     0.000008289885     0.000004108622
      17        0.000003874557    -0.000002691606     0.000011393645
      18       -0.000002672778     0.000002739468    -0.000000524974
      19        0.000004147878    -0.000002053458    -0.000000397875
      20       -0.000000268059    -0.000000865743     0.000002143667
      21        0.000000618742     0.000008231592     0.000006503229
      22        0.000001109052     0.000000725503    -0.000000018475
      23       -0.000000525644    -0.000000762211    -0.000000644003
      24        0.000001968102     0.000003316816     0.000003940272
      25        0.000000380216    -0.000000492826    -0.000000256713

  **** Optimization is complete! (in 8 steps) ****
    Final optimized geometry and variables:
    Molecular point group: c1

    Geometry (in Angstrom), charge = 0, multiplicity = 1:

    H           -1.657323069575    -2.451467817859    -0.651817965901
    C           -1.556624531847    -2.397903761823    -1.741172157497
    C           -0.770751116924    -1.228628356772    -2.291018462380
    O           -2.051161766027    -3.235949638144    -2.423563738074
    C           -0.690586478747    -0.022972466224    -1.347251541535
    H            0.229806468438    -1.591128942128    -2.521630219342
    H           -1.225413170729    -0.960568560099    -3.238531450544
    C            0.271637073778    -0.213176556765    -0.170702364741
    H           -0.375040874697     0.843268885365    -1.921616725153
    H           -1.685818208584     0.212031522782    -0.973362767718
    C            0.325858796802     1.001657957049     0.757907079780
    H            1.268215058568    -0.415628922319    -0.559182879379
    H           -0.010421886095    -1.090257250750     0.408455139569
    C            1.305166275145     0.818324458824     1.920409414091
    H            0.598584722592     1.877673159875     0.175145407573
    H           -0.669632202669     1.195224678354     1.154486351886
    C            1.325726069753     1.973675217908     2.927807229657
    H            2.308966178862     0.669771488815     1.525475810805
    H            1.049580865072    -0.096906988059     2.450546605591
    C            1.846959110763     3.297678564123     2.366079596862
    H            1.948410019393     1.683364086746     3.770311916007
    H            0.324343647555     2.119684548533     3.327652745039
    H            2.842653055445     3.178836774401     1.947154109883
    H            1.203832123727     3.689818402349     1.585213087188
    H            1.905749893418     4.050111327791     3.146376969812

  Mulliken Charges: (a.u.)
   Center  Symbol    Alpha    Beta     Spin     Total
       1     H     0.42920  0.42920  0.00000  0.14159
       2     C     2.83335  2.83335  0.00000  0.33330
       3     C     3.20919  3.20919  0.00000 -0.41838
       4     O     4.24102  4.24102  0.00000 -0.48204
       5     C     3.16745  3.16745  0.00000 -0.33490
       6     H     0.40185  0.40185  0.00000  0.19630
       7     H     0.39635  0.39635  0.00000  0.20730
       8     C     3.15606  3.15606  0.00000 -0.31211
       9     H     0.41266  0.41266  0.00000  0.17469
      10     H     0.41769  0.41769  0.00000  0.16463
      11     C     3.15393  3.15393  0.00000 -0.30786
      12     H     0.42035  0.42035  0.00000  0.15930
      13     H     0.42249  0.42249  0.00000  0.15502
      14     C     3.15305  3.15305  0.00000 -0.30610
      15     H     0.41998  0.41998  0.00000  0.16003
      16     H     0.42271  0.42271  0.00000  0.15458
      17     C     3.15278  3.15278  0.00000 -0.30556
      18     H     0.42341  0.42341  0.00000  0.15319
      19     H     0.42179  0.42179  0.00000  0.15642
      20     C     3.24151  3.24151  0.00000 -0.48303
      21     H     0.41992  0.41992  0.00000  0.16016
      22     H     0.42281  0.42281  0.00000  0.15437
      23     H     0.42194  0.42194  0.00000  0.15611
      24     H     0.42026  0.42026  0.00000  0.15948
      25     H     0.41825  0.41825  0.00000  0.16351

   Total alpha = 36.00000, Total beta = 36.00000, Total charge =  0.00000
