  ==> Input File <==

--------------------------------------------------------------------------
set {
	reference rhf
	basis 6-31G*
}

set_num_threads( 1 )
memory 2 gb

molecule MOL {
0 1

O	 1.771044	 1.428934	 -0.350490
C	 1.484543	 0.502234	 -1.037703
C	 0.166042	 -0.231939	 -1.017402
O	 2.309674	 -0.016465	 -1.938396
C	 -0.823008	 0.326187	 0.001381
H	 -0.242000	 -0.194371	 -2.023783
H	 0.380722	 -1.279558	 -0.824721
C	 -2.149452	 -0.435131	 -0.000098
H	 -0.999910	 1.376042	 -0.210040
H	 -0.377096	 0.288738	 0.990354
C	 -3.368779	 0.488503	 -0.000883
H	 -2.193746	 -1.087250	 -0.871175
H	 -2.195311	 -1.087803	 0.870418
C	 -4.693822	 -0.272754	 -0.001129
H	 -3.325798	 1.139422	 -0.871284
H	 -3.326423	 1.139959	 0.869145
H	 -4.781274	 -0.907928	 -0.878124
H	 -5.538651	 0.408946	 -0.001420
H	 -4.781694	 -0.907783	 0.875984
C	 3.586252	 0.583681	 -2.061406
H	 3.492302	 1.621802	 -2.346022
H	 4.099801	 0.029718	 -2.831645
H	 4.128193	 0.518801	 -1.128884

	symmetry c1
}
set optking {
	frozen_dihedral = ("
		15 11 8 12,
		1 2 3 6,
		9 5 3 6,
		1 2 4 20
	")
}

ee = energy('scf')
oeprop('DIPOLE', 'QUADRUPOLE', 'MULLIKEN_CHARGES')
f=open( 'psi4out.xyz', 'w' )
f.write( "23  " )
f.write( str(ee) + "\n" )
f.write( MOL.save_string_xyz() )
f.close()
--------------------------------------------------------------------------

    Molecular point group: c1

    Geometry (in Angstrom), charge = 0, multiplicity = 1:

       Center              X                  Y                   Z               Mass
    ------------   -----------------  -----------------  -----------------  -----------------
           O          1.925475050932     1.158458362242     0.375602595566    15.994914619560
           C          1.638974050932     0.231758362242    -0.311610404434    12.000000000000
           C          0.320473050932    -0.502414637758    -0.291309404434    12.000000000000
           O          2.464105050932    -0.286940637758    -1.212303404434    15.994914619560
           C         -0.668576949068     0.055711362242     0.727473595566    12.000000000000
           H         -0.087568949068    -0.464846637758    -1.297690404434     1.007825032070
           H          0.535153050932    -1.550033637758    -0.098628404434     1.007825032070
           C         -1.995020949068    -0.705606637758     0.725994595566    12.000000000000
           H         -0.845478949068     1.105566362242     0.516052595566     1.007825032070
           H         -0.222664949068     0.018262362242     1.716446595566     1.007825032070
           C         -3.214347949068     0.218027362242     0.725209595566    12.000000000000
           H         -2.039314949068    -1.357725637758    -0.145082404434     1.007825032070
           H         -2.040879949068    -1.358278637758     1.596510595566     1.007825032070
           C         -4.539390949068    -0.543229637758     0.724963595566    12.000000000000
           H         -3.171366949068     0.868946362242    -0.145191404434     1.007825032070
           H         -3.171991949068     0.869483362242     1.595237595566     1.007825032070
           H         -4.626842949068    -1.178403637758    -0.152031404434     1.007825032070
           H         -5.384219949068     0.138470362242     0.724672595566     1.007825032070
           H         -4.627262949068    -1.178258637758     1.602076595566     1.007825032070
           C          3.740683050932     0.313205362242    -1.335313404434    12.000000000000
           H          3.646733050932     1.351326362242    -1.619929404434     1.007825032070
           H          4.254232050932    -0.240757637758    -2.105552404434     1.007825032070
           H          4.282624050932     0.248325362242    -0.402791404434     1.007825032070

  Charge       = 0
  Multiplicity = 1
  Basis Set: 6-31G*
  Basis Set:

    Orbital Energies (a.u.)
    -----------------------

    Doubly Occupied:

       1A    -20.603445     2A    -20.545283     3A    -11.371758
       4A    -11.280737     5A    -11.235823     6A    -11.217798
       7A    -11.217245     8A    -11.216246     9A    -11.209431
      10A     -1.469144    11A     -1.362576    12A     -1.093480
      13A     -1.043265    14A     -0.986861    15A     -0.931958
      16A     -0.844167    17A     -0.795161    18A     -0.767475
      19A     -0.699105    20A     -0.682675    21A     -0.672040
      22A     -0.643557    23A     -0.615051    24A     -0.598935
      25A     -0.572467    26A     -0.559571    27A     -0.556305
      28A     -0.526948    29A     -0.521142    30A     -0.502477
      31A     -0.489913    32A     -0.470759    33A     -0.463935
      34A     -0.458893    35A     -0.453015    36A     -0.434790

  @DF-RHF Final Energy:  -422.97130285401425

   => Energetics <=

    Nuclear Repulsion Energy =            453.3701844478634371
    One-Electron Energy =               -1474.4561071804794210
    Two-Electron Energy =                 598.1146198786011610
    DFT Exchange-Correlation Energy =       0.0000000000000000
    Empirical Dispersion Energy =           0.0000000000000000
    PCM Polarization Energy =               0.0000000000000000
    EFP Energy =                            0.0000000000000000
    Total Energy =                       -422.9713028540147661

  Mulliken Charges: (a.u.)
   Center  Symbol    Alpha    Beta     Spin     Total
       1     O     4.28598  4.28598  0.00000 -0.57196
       2     C     2.60554  2.60554  0.00000  0.78893
       3     C     3.21070  3.21070  0.00000 -0.42140
       4     O     4.30740  4.30740  0.00000 -0.61480
       5     C     3.15454  3.15454  0.00000 -0.30909
       6     H     0.40053  0.40053  0.00000  0.19894
       7     H     0.40018  0.40018  0.00000  0.19964
       8     C     3.15564  3.15564  0.00000 -0.31128
       9     H     0.40932  0.40932  0.00000  0.18137
      10     H     0.40962  0.40962  0.00000  0.18077
      11     C     3.15377  3.15377  0.00000 -0.30755
      12     H     0.42287  0.42287  0.00000  0.15427
      13     H     0.41976  0.41976  0.00000  0.16049
      14     C     3.24020  3.24020  0.00000 -0.48040
      15     H     0.42250  0.42250  0.00000  0.15501
      16     H     0.42021  0.42021  0.00000  0.15958
      17     H     0.42199  0.42199  0.00000  0.15602
      18     H     0.41869  0.41869  0.00000  0.16261
      19     H     0.42143  0.42143  0.00000  0.15713
      20     C     3.09245  3.09245  0.00000 -0.18489
      21     H     0.40909  0.40909  0.00000  0.18182
      22     H     0.40849  0.40849  0.00000  0.18302
      23     H     0.40912  0.40912  0.00000  0.18177

   Total alpha = 36.00000, Total beta = 36.00000, Total charge =  0.00000
