  ==> Input File <==

--------------------------------------------------------------------------
set {
	reference rhf
	basis 6-31G*
}

set_num_threads( 1 )
memory 2 gb

molecule MOL {
0 1

H	 -2.569587	 -1.522340	 0.326811
O	 -2.310168	 -0.871793	 -0.309793
C	 -2.026376	 0.340750	 0.341611
C	 -0.673256	 0.843270	 -0.132153
H	 -2.792215	 1.080697	 0.115987
H	 -2.013526	 0.200402	 1.421792
C	 0.486613	 -0.083066	 0.235839
H	 -0.715586	 0.970948	 -1.210718
H	 -0.508072	 1.829858	 0.297090
C	 1.840406	 0.433480	 -0.254303
H	 0.300215	 -1.068318	 -0.178947
H	 0.519509	 -0.203625	 1.318070
C	 3.000220	 -0.489290	 0.118523
H	 1.809207	 0.553576	 -1.335192
H	 2.021860	 1.424500	 0.157276
H	 2.864959	 -1.479103	 -0.307933
H	 3.946603	 -0.099227	 -0.243630
H	 3.080049	 -0.602997	 1.196117

	symmetry c1
}
set optking {
	frozen_dihedral = ("
		14 10 7 11,
		10 7 4 8,
		2 3 4 8
	")
}

ee = energy('scf')
oeprop('DIPOLE', 'QUADRUPOLE', 'MULLIKEN_CHARGES')
f=open( 'psi4out.xyz', 'w' )
f.write( "18  " )
f.write( str(ee) + "\n" )
f.write( MOL.save_string_xyz() )
f.close()
--------------------------------------------------------------------------

    Molecular point group: c1

    Geometry (in Angstrom), charge = 0, multiplicity = 1:

       Center              X                  Y                   Z               Mass
    ------------   -----------------  -----------------  -----------------  -----------------
           H         -2.576060778810    -1.518824566593     0.323087532694     1.007825032070
           O         -2.316641778810    -0.868277566593    -0.313516467306    15.994914619560
           C         -2.032849778810     0.344265433407     0.337887532694    12.000000000000
           C         -0.679729778810     0.846785433407    -0.135876467306    12.000000000000
           H         -2.798688778810     1.084212433407     0.112263532694     1.007825032070
           H         -2.019999778810     0.203917433407     1.418068532694     1.007825032070
           C          0.480139221190    -0.079550566593     0.232115532694    12.000000000000
           H         -0.722059778810     0.974463433407    -1.214441467306     1.007825032070
           H         -0.514545778810     1.833373433407     0.293366532694     1.007825032070
           C          1.833932221190     0.436995433407    -0.258026467306    12.000000000000
           H          0.293741221190    -1.064802566593    -0.182670467306     1.007825032070
           H          0.513035221190    -0.200109566593     1.314346532694     1.007825032070
           C          2.993746221190    -0.485774566593     0.114799532694    12.000000000000
           H          1.802733221190     0.557091433407    -1.338915467306     1.007825032070
           H          2.015386221190     1.428015433407     0.153552532694     1.007825032070
           H          2.858485221190    -1.475587566593    -0.311656467306     1.007825032070
           H          3.940129221190    -0.095711566593    -0.247353467306     1.007825032070
           H          3.073575221190    -0.599481566593     1.192393532694     1.007825032070

  Charge       = 0
  Multiplicity = 1
  Basis Set: 6-31G*
  Basis Set:

    Orbital Energies (a.u.)
    -----------------------

    Doubly Occupied:

       1A    -20.552884     2A    -11.268477     3A    -11.212521
       4A    -11.210484     5A    -11.208962     6A    -11.206328
       7A     -1.360300     8A     -1.075878     9A     -1.009226
      10A     -0.915232    11A     -0.819792    12A     -0.785003
      13A     -0.706582    14A     -0.635205    15A     -0.630615
      16A     -0.581170    17A     -0.571060    18A     -0.565028
      19A     -0.523717    20A     -0.498313    21A     -0.479252
      22A     -0.474725    23A     -0.461175    24A     -0.459167
      25A     -0.422132

  @DF-RHF Final Energy:  -271.17809088800414

   => Energetics <=

    Nuclear Repulsion Energy =            249.3716077686222263
    One-Electron Energy =                -861.8328000021830348
    Two-Electron Energy =                 341.2831013455568154
    DFT Exchange-Correlation Energy =       0.0000000000000000
    Empirical Dispersion Energy =           0.0000000000000000
    PCM Polarization Energy =               0.0000000000000000
    EFP Energy =                            0.0000000000000000
    Total Energy =                       -271.1780908880040215

  Mulliken Charges: (a.u.)
   Center  Symbol    Alpha    Beta     Spin     Total
       1     H     0.27923  0.27923  0.00000  0.44154
       2     O     4.36985  4.36985  0.00000 -0.73971
       3     C     3.00072  3.00072  0.00000 -0.00145
       4     C     3.15671  3.15671  0.00000 -0.31342
       5     H     0.42258  0.42258  0.00000  0.15483
       6     H     0.43265  0.43265  0.00000  0.13471
       7     C     3.15454  3.15454  0.00000 -0.30908
       8     H     0.41500  0.41500  0.00000  0.17000
       9     H     0.42627  0.42627  0.00000  0.14746
      10     C     3.15127  3.15127  0.00000 -0.30255
      11     H     0.41205  0.41205  0.00000  0.17590
      12     H     0.42964  0.42964  0.00000  0.14072
      13     C     3.23905  3.23905  0.00000 -0.47809
      14     H     0.42174  0.42174  0.00000  0.15651
      15     H     0.42458  0.42458  0.00000  0.15084
      16     H     0.42131  0.42131  0.00000  0.15738
      17     H     0.41984  0.41984  0.00000  0.16033
      18     H     0.42296  0.42296  0.00000  0.15408

   Total alpha = 25.00000, Total beta = 25.00000, Total charge = -0.00000
