  ==> Input File <==

--------------------------------------------------------------------------
set {
	reference rhf
	basis 6-31G*
}

set_num_threads( 4 )
memory 2 gb

molecule MOL {
0 1

H	 -2.646374	 -0.642757	 1.268656
C	 -2.083525	 -0.384536	 0.393091
O	 -0.807605	 -0.127164	 0.768327
F	 -2.118945	 -1.383102	 -0.486752
F	 -2.621877	 0.670592	 -0.209486
C	 0.084052	 0.273579	 -0.209957
C	 1.353033	 -0.546803	 -0.018071
Cl	 0.433844	 2.004619	 -0.074457
H	 -0.288836	 0.092657	 -1.202930
F	 1.625941	 -1.232742	 -1.107634
F	 1.160671	 -1.401928	 0.966406
F	 2.386491	 0.202660	 0.278990

	symmetry c1
}
set optking {
	frozen_dihedral = ("
		10 7 6 9
	")
}

ee = optimize('scf')
oeprop('DIPOLE', 'QUADRUPOLE', 'MULLIKEN_CHARGES')
f=open( 'psi4out.xyz', 'w' )
f.write( "12  " )
f.write( str(ee) + "\n" )
f.write( MOL.save_string_xyz() )
f.close()
--------------------------------------------------------------------------

    Molecular point group: c1
  Charge       = 0
  Multiplicity = 1
  Basis Set: 6-31G*
  Basis Set:
  @DF-RHF Final Energy: -1146.30218093904841
    Total Energy =                      -1146.3021809390493218
    Molecular point group: c1
  Basis Set: 6-31G*
  Basis Set:
  Basis Set: 6-31G*
  Basis Set:
  @DF-RHF Final Energy: -1146.30216491448164
    Total Energy =                      -1146.3021649144804996
  Basis Set: 6-31G*
  Basis Set:
  Basis Set: 6-31G*
  Basis Set:
  @DF-RHF Final Energy: -1146.30481103699321
    Total Energy =                      -1146.3048110369938968
  Basis Set: 6-31G*
  Basis Set:
  Basis Set: 6-31G*
  Basis Set:
  @DF-RHF Final Energy: -1146.30493076259745
    Total Energy =                      -1146.3049307625974507
  Basis Set: 6-31G*
  Basis Set:
  @DF-RHF Final Energy: -1146.30494255595795
    Total Energy =                      -1146.3049425559586325
  @DF-RHF Final Energy: -1146.30494581564108
    Total Energy =                      -1146.3049458156415312
  Basis Set: 6-31G*
  Basis Set:
  @DF-RHF Final Energy: -1146.30494966259585
    Total Energy =                      -1146.3049496625963002
  Basis Set: 6-31G*
  Basis Set:
  Basis Set: 6-31G*
  Basis Set:
  @DF-RHF Final Energy: -1146.30495498829259
    Total Energy =                      -1146.3049549882925930
  Basis Set: 6-31G*
  Basis Set:
  Basis Set: 6-31G*
  Basis Set:
  @DF-RHF Final Energy: -1146.30495794524472
    Total Energy =                      -1146.3049579452447233
  Basis Set: 6-31G*
  Basis Set:
  Charge       = 0
  Multiplicity = 1
  Basis Set: 6-31G*
  Basis Set:

    Orbital Energies (a.u.)
    -----------------------

    Doubly Occupied:

       1A   -104.843359     2A    -26.358254     3A    -26.357255
       4A    -26.357227     5A    -26.346262     6A    -26.346194
       7A    -20.647525     8A    -11.529660     9A    -11.489255
      10A    -11.401888    11A    -10.577938    12A     -8.047285
      13A     -8.043754    14A     -8.043657    15A     -1.761399
      16A     -1.717514    17A     -1.656572    18A     -1.654809
      19A     -1.638294    20A     -1.485132    21A     -1.176788
      22A     -1.046790    23A     -0.986785    24A     -0.919075
      25A     -0.857093    26A     -0.851701    27A     -0.844720
      28A     -0.825605    29A     -0.812682    30A     -0.791131
      31A     -0.726145    32A     -0.725008    33A     -0.703688
      34A     -0.701993    35A     -0.677591    36A     -0.673263
      37A     -0.657815    38A     -0.655959    39A     -0.646629
      40A     -0.629596    41A     -0.596692    42A     -0.577986
      43A     -0.522533    44A     -0.475271    45A     -0.467879

  @DF-RHF Final Energy: -1146.30495889712756

   => Energetics <=

    Nuclear Repulsion Energy =            735.4572009838817621
    One-Electron Energy =               -3053.8170155687585066
    Two-Electron Energy =                1172.0548556877492956
    DFT Exchange-Correlation Energy =       0.0000000000000000
    Empirical Dispersion Energy =           0.0000000000000000
    PCM Polarization Energy =               0.0000000000000000
    EFP Energy =                            0.0000000000000000
    Total Energy =                      -1146.3049588971275625
    Molecular point group: c1
  Basis Set: 6-31G*
  Basis Set:

  -Total Gradient:
     Atom            X                  Y                   Z
    ------   -----------------  -----------------  -----------------
       1        0.000000391284    -0.000006820729    -0.000007439627
       2        0.000080549149     0.000034581866    -0.000006314369
       3       -0.000050648182    -0.000021095691     0.000084346488
       4       -0.000023826384    -0.000026898331     0.000000750025
       5       -0.000034532789     0.000021122993    -0.000013151181
       6       -0.000666119390    -0.000863879341     0.000346206667
       7        0.000541544634     0.000798179313    -0.000279888515
       8       -0.000011888310    -0.000066463688     0.000007018821
       9        0.000513758217     0.000660373220    -0.000299522784
      10       -0.000379764596    -0.000550821593     0.000203598133
      11        0.000046086508     0.000025452534    -0.000026060646
      12       -0.000015550132    -0.000003730607    -0.000009543012

  **** Optimization is complete! (in 10 steps) ****
    Final optimized geometry and variables:
    Molecular point group: c1

    Geometry (in Angstrom), charge = 0, multiplicity = 1:

    H           -2.683199247417    -0.600128327240     1.243288058410
    C           -2.087169460747    -0.378146946877     0.379960141870
    O           -0.847472696354    -0.030171753957     0.796080126260
    F           -2.027880342689    -1.439835492837    -0.422880328356
    F           -2.644040934584     0.600298483098    -0.327343365699
    C            0.074532332308     0.326376449417    -0.170712407345
    C            1.344516489511    -0.553459511771    -0.012800856287
    CL           0.435062872638     2.056227610134    -0.044119020349
    H           -0.303629989169     0.164620345819    -1.163372902327
    F            1.537109593426    -1.205937964111    -1.147145705583
    F            1.196438585357    -1.442195787404     0.940080077914
    F            2.431533115556     0.133723113993     0.239947711502

  Mulliken Charges: (a.u.)
   Center  Symbol    Alpha    Beta     Spin     Total
       1     H     0.40089  0.40089  0.00000  0.19822
       2     C     2.56682  2.56682  0.00000  0.86636
       3     O     4.29195  4.29195  0.00000 -0.58390
       4     F     4.68752  4.68752  0.00000 -0.37503
       5     F     4.68506  4.68506  0.00000 -0.37012
       6     C     3.07378  3.07378  0.00000 -0.14757
       7     C     2.42364  2.42364  0.00000  1.15272
       8    CL     8.49446  8.49446  0.00000  0.01109
       9     H     0.36137  0.36137  0.00000  0.27726
      10     F     4.68004  4.68004  0.00000 -0.36008
      11     F     4.66801  4.66801  0.00000 -0.33601
      12     F     4.66647  4.66647  0.00000 -0.33293

   Total alpha = 45.00000, Total beta = 45.00000, Total charge = -0.00000
