  ==> Input File <==

--------------------------------------------------------------------------
set {
	reference rhf
	basis 6-31G*
}

set_num_threads( 4 )
memory 2 gb

molecule MOL {
0 1

H	 0.871472	 0.849136	 -3.856591
O	 1.755115	 0.532415	 -3.974639
C	 2.439986	 0.571604	 -2.748479
C	 1.984249	 -0.505869	 -1.770685
H	 3.485120	 0.427219	 -2.990392
H	 2.347137	 1.556124	 -2.291445
C	 0.526734	 -0.365448	 -1.324815
H	 2.131914	 -1.477521	 -2.234855
H	 2.634493	 -0.468925	 -0.898226
C	 0.115918	 -1.429151	 -0.302766
H	 -0.120607	 -0.429246	 -2.195013
H	 0.374121	 0.623396	 -0.892105
C	 -1.309753	 -1.282496	 0.241564
H	 0.231716	 -2.416096	 -0.747039
H	 0.809666	 -1.390841	 0.534460
C	 -2.037799	 -0.007733	 -0.193645
H	 -1.890610	 -2.142323	 -0.085726
H	 -1.285946	 -1.330893	 1.329189
C	 -3.489788	 0.042957	 0.286558
H	 -2.017067	 0.064384	 -1.280144
H	 -1.513726	 0.868678	 0.179924
C	 -4.216917	 1.317354	 -0.141063
H	 -4.025645	 -0.823308	 -0.095450
H	 -3.513059	 -0.038752	 1.371301
H	 -4.239342	 1.411634	 -1.223113
H	 -5.243387	 1.322503	 0.212445
H	 -3.726170	 2.201406	 0.256408

	symmetry c1
}
set optking {
	frozen_dihedral = ("
		14 10 13 16
	")
}

ee = optimize('scf')
oeprop('DIPOLE', 'QUADRUPOLE', 'MULLIKEN_CHARGES')
f=open( 'psi4out.xyz', 'w' )
f.write( "27  " )
f.write( str(ee) + "\n" )
f.write( MOL.save_string_xyz() )
f.close()
--------------------------------------------------------------------------

    Molecular point group: c1
  Charge       = 0
  Multiplicity = 1
  Basis Set: 6-31G*
  Basis Set:
  @DF-RHF Final Energy:  -388.27149148604713
    Total Energy =                       -388.2714914860472391
    Molecular point group: c1
  Basis Set: 6-31G*
  Basis Set:
  Basis Set: 6-31G*
  Basis Set:
  @DF-RHF Final Energy:  -388.27171484222373
    Total Energy =                       -388.2717148422235596
  Basis Set: 6-31G*
  Basis Set:
  Basis Set: 6-31G*
  Basis Set:
  @DF-RHF Final Energy:  -388.27354984089288
    Total Energy =                       -388.2735498408927697
  Basis Set: 6-31G*
  Basis Set:
  Basis Set: 6-31G*
  Basis Set:
  @DF-RHF Final Energy:  -388.27368468244106
    Total Energy =                       -388.2736846824410577
  Basis Set: 6-31G*
  Basis Set:
  @DF-RHF Final Energy:  -388.27367633311093
    Total Energy =                       -388.2736763331104157
  Basis Set: 6-31G*
  Basis Set:
  @DF-RHF Final Energy:  -388.27369069939652
    Total Energy =                       -388.2736906993973207
  Basis Set: 6-31G*
  Basis Set:
  Basis Set: 6-31G*
  Basis Set:
  @DF-RHF Final Energy:  -388.27368943725799
    Total Energy =                       -388.2736894372591223
  Basis Set: 6-31G*
  Basis Set:
  Basis Set: 6-31G*
  Basis Set:
  @DF-RHF Final Energy:  -388.27369240518857
    Total Energy =                       -388.2736924051888536
  Basis Set: 6-31G*
  Basis Set:
  Charge       = 0
  Multiplicity = 1
  Basis Set: 6-31G*
  Basis Set:

    Orbital Energies (a.u.)
    -----------------------

    Doubly Occupied:

       1A    -20.552110     2A    -11.266898     3A    -11.219680
       4A    -11.217759     5A    -11.216492     6A    -11.216108
       7A    -11.215167     8A    -11.214980     9A    -11.210104
      10A     -1.358881    11A     -1.093016    12A     -1.061648
      13A     -1.008973    14A     -0.948524    15A     -0.890036
      16A     -0.820466    17A     -0.807218    18A     -0.769026
      19A     -0.693800    20A     -0.658070    21A     -0.633114
      22A     -0.612678    23A     -0.604203    24A     -0.584840
      25A     -0.575001    26A     -0.552620    27A     -0.541746
      28A     -0.530095    29A     -0.505646    30A     -0.496954
      31A     -0.489393    32A     -0.475568    33A     -0.467267
      34A     -0.454379    35A     -0.447167    36A     -0.442714
      37A     -0.423235

  @DF-RHF Final Energy:  -388.27369269615878

   => Energetics <=

    Nuclear Repulsion Energy =            461.4140943420725876
    One-Electron Energy =               -1440.8244172309534861
    Two-Electron Energy =                 591.1366301927228051
    DFT Exchange-Correlation Energy =       0.0000000000000000
    Empirical Dispersion Energy =           0.0000000000000000
    PCM Polarization Energy =               0.0000000000000000
    EFP Energy =                            0.0000000000000000
    Total Energy =                       -388.2736926961581503
    Molecular point group: c1
  Basis Set: 6-31G*
  Basis Set:

  -Total Gradient:
     Atom            X                  Y                   Z
    ------   -----------------  -----------------  -----------------
       1       -0.000009686432     0.000000148719    -0.000004090411
       2       -0.000016268045     0.000010926267     0.000015896639
       3        0.000042017301    -0.000034150829    -0.000016984028
       4        0.000010865139     0.000023154786     0.000022882124
       5        0.000009971171     0.000006777993    -0.000005069868
       6       -0.000005690968    -0.000005571250    -0.000002850950
       7        0.000009311236    -0.000057776472     0.000020567220
       8        0.000002211060     0.000010384476     0.000003887715
       9        0.000005883240     0.000005802037    -0.000003639716
      10        0.000649894707    -0.001671356922     0.002154110371
      11       -0.000013445874     0.000003206182     0.000000552202
      12       -0.000003012587    -0.000018434748     0.000006964542
      13        0.000767342139     0.001646986712     0.001929450910
      14       -0.000729820898     0.001041399617    -0.002442957657
      15        0.000031590773     0.000007457854    -0.000031002639
      16       -0.000671018032    -0.001002818659    -0.001656508742
      17       -0.000041486307     0.000021078601     0.000014917008
      18       -0.000025483172     0.000026882319    -0.000002301300
      19       -0.000008083923    -0.000012104456    -0.000013407148
      20        0.000006440743    -0.000006573888     0.000011769016
      21        0.000010706386    -0.000006474166     0.000003610871
      22       -0.000016118039     0.000003021182     0.000001975334
      23       -0.000001307676    -0.000000259269     0.000002897840
      24        0.000004151398     0.000000732476    -0.000007607636
      25       -0.000002689652     0.000000768928     0.000000658405
      26       -0.000006738402     0.000009415175    -0.000001400182
      27        0.000000464714    -0.000002622667    -0.000002319921

  **** Optimization is complete! (in 9 steps) ****
    Final optimized geometry and variables:
    Molecular point group: c1

    Geometry (in Angstrom), charge = 0, multiplicity = 1:

    H            1.471163467379     0.960334581107    -2.730469489729
    O            2.332402520775     0.585221846371    -2.843153386908
    C            3.013587519548     0.587346939016    -1.614359181887
    C            2.481506394176    -0.448855756630    -0.630482103917
    H            4.047337287943     0.370136109213    -1.850743829053
    H            2.986432866270     1.579546262967    -1.165400881062
    C            1.033371545968    -0.207099948779    -0.196458270448
    H            2.568330163517    -1.432352592426    -1.084915015835
    H            3.127352213426    -0.446575428335     0.246115935070
    C            0.562062713110    -1.243409298051     0.831596006079
    H            0.388150863442    -0.244864466697    -1.070277396038
    H            0.947759945341     0.796286523563     0.214875791860
    C           -0.901757675276    -1.123288213861     1.340370227930
    H            0.691003329602    -2.221539958858     0.376748494513
    H            1.241125409885    -1.209776514443     1.678991614200
    C           -1.689858777116     0.129205325586     0.940615501427
    H           -1.462659026409    -1.986945439569     0.992071829265
    H           -0.902256902251    -1.195213234785     2.424600355564
    C           -3.112481203911     0.121814615376     1.505003475245
    H           -1.742040433529     0.208402806227    -0.142073979835
    H           -1.178041892371     1.023194872872     1.290428905462
    C           -3.916862227081     1.360727003787     1.112549489491
    H           -3.632366113960    -0.769442738283     1.160030840574
    H           -3.069723205630     0.048644769405     2.589595225777
    H           -4.008767830197     1.443280910155     0.033146191022
    H           -4.919530448877     1.326713179364     1.527397694918
    H           -3.440773407398     2.268254867110     1.473188561568

  Mulliken Charges: (a.u.)
   Center  Symbol    Alpha    Beta     Spin     Total
       1     H     0.27987  0.27987  0.00000  0.44027
       2     O     4.37103  4.37103  0.00000 -0.74206
       3     C     2.99720  2.99720  0.00000  0.00561
       4     C     3.16099  3.16099  0.00000 -0.32199
       5     H     0.41445  0.41445  0.00000  0.17110
       6     H     0.43209  0.43209  0.00000  0.13581
       7     C     3.16472  3.16472  0.00000 -0.32943
       8     H     0.41526  0.41526  0.00000  0.16948
       9     H     0.42444  0.42444  0.00000  0.15113
      10     C     3.15436  3.15436  0.00000 -0.30872
      11     H     0.42414  0.42414  0.00000  0.15171
      12     H     0.42314  0.42314  0.00000  0.15373
      13     C     3.15643  3.15643  0.00000 -0.31286
      14     H     0.41902  0.41902  0.00000  0.16195
      15     H     0.42088  0.42088  0.00000  0.15825
      16     C     3.15339  3.15339  0.00000 -0.30677
      17     H     0.42109  0.42109  0.00000  0.15782
      18     H     0.42047  0.42047  0.00000  0.15906
      19     C     3.15137  3.15137  0.00000 -0.30274
      20     H     0.42374  0.42374  0.00000  0.15251
      21     H     0.42392  0.42392  0.00000  0.15217
      22     C     3.23914  3.23914  0.00000 -0.47828
      23     H     0.42275  0.42275  0.00000  0.15450
      24     H     0.42287  0.42287  0.00000  0.15425
      25     H     0.42221  0.42221  0.00000  0.15559
      26     H     0.41890  0.41890  0.00000  0.16219
      27     H     0.42214  0.42214  0.00000  0.15572

   Total alpha = 37.00000, Total beta = 37.00000, Total charge = -0.00000
