                              Psi4 1.0.54 Driver

  ==> Input File <==

--------------------------------------------------------------------------
set {
	reference rhf
	basis cc-pvtz
}

set_num_threads( 4 )
memory 2 gb

molecule MOL {
0 1

H	 1.575786	 2.014245	 -2.441169
O	 2.403197	 1.625599	 -2.656051
C	 2.947372	 0.988369	 -1.530402
C	 2.231655	 -0.301676	 -1.158623
H	 3.976604	 0.771395	 -1.782562
H	 2.960364	 1.666836	 -0.679541
C	 0.788513	 -0.108119	 -0.698486
H	 2.256238	 -0.969346	 -2.014643
H	 2.800272	 -0.782841	 -0.366441
C	 0.113298	 -1.420414	 -0.302504
H	 0.219800	 0.365914	 -1.491493
H	 0.769511	 0.573074	 0.150573
C	 -1.311023	 -1.277304	 0.237018
H	 0.107089	 -2.091038	 -1.158338
H	 0.720666	 -1.905562	 0.456578
C	 -2.041121	 -0.006551	 -0.194127
H	 -1.888548	 -2.136293	 -0.093331
H	 -1.289731	 -1.328757	 1.323321
C	 -3.489218	 0.042606	 0.286507
H	 -2.022185	 0.066287	 -1.279394
H	 -1.518764	 0.869305	 0.178730
C	 -4.219984	 1.311773	 -0.139038
H	 -4.022855	 -0.824300	 -0.093339
H	 -3.510372	 -0.038577	 1.370031
H	 -4.244251	 1.405725	 -1.219696
H	 -5.244345	 1.313233	 0.215630
H	 -3.732090	 2.196311	 0.257073

	symmetry c1
}
set optking {
	frozen_dihedral = ("
		14 10 13 16
	")
}

ee,wfn = optimize('scf', return_wfn=True)
oeprop( wfn, 'DIPOLE', 'QUADRUPOLE', 'MULLIKEN_CHARGES')
f=open( 'psi4out.xyz', 'w' )
f.write( "27  " )
f.write( str(ee) + "\n" )
f.write( MOL.save_string_xyz() )
f.close()
--------------------------------------------------------------------------

    Molecular point group: c1
  Charge       = 0
  Multiplicity = 1
  Basis Set: CC-PVTZ
  Basis Set:
  @DF-RHF Final Energy:  -388.42075514420247
    Total Energy =                       -388.4207551442025306
    Molecular point group: c1
  Basis Set: CC-PVTZ
  Basis Set:
  Basis Set: CC-PVTZ
  Basis Set:
  @DF-RHF Final Energy:  -388.42076878560397
    Total Energy =                       -388.4207687856032862
  Basis Set: CC-PVTZ
  Basis Set:
  Basis Set: CC-PVTZ
  Basis Set:
  @DF-RHF Final Energy:  -388.42208698859298
    Total Energy =                       -388.4220869885929233
  Basis Set: CC-PVTZ
  Basis Set:
  Basis Set: CC-PVTZ
  Basis Set:
  @DF-RHF Final Energy:  -388.42212417576087
    Total Energy =                       -388.4221241757612688
  Basis Set: CC-PVTZ
  Basis Set:
  Basis Set: CC-PVTZ
  Basis Set:
  @DF-RHF Final Energy:  -388.42212068261756
    Total Energy =                       -388.4221206826166508
  Basis Set: CC-PVTZ
  Basis Set:
  Basis Set: CC-PVTZ
  Basis Set:
  @DF-RHF Final Energy:  -388.42213077473809
    Total Energy =                       -388.4221307747376386
  Basis Set: CC-PVTZ
  Basis Set:
  Charge       = 0
  Multiplicity = 1
  Basis Set: CC-PVTZ
  Basis Set:

    Orbital Energies (a.u.)
    -----------------------

    Doubly Occupied:

       1A    -20.545245     2A    -11.264946     3A    -11.217234
       4A    -11.214784     5A    -11.213983     6A    -11.213551
       7A    -11.213188     8A    -11.212297     9A    -11.207631
      10A     -1.363156    11A     -1.094878    12A     -1.062608
      13A     -1.010873    14A     -0.949293    15A     -0.891032
      16A     -0.820895    17A     -0.807165    18A     -0.770221
      19A     -0.696040    20A     -0.657974    21A     -0.634448
      22A     -0.615347    23A     -0.603470    24A     -0.586005
      25A     -0.577156    26A     -0.554233    27A     -0.539590
      28A     -0.533179    29A     -0.507182    30A     -0.497845
      31A     -0.487862    32A     -0.474635    33A     -0.467814
      34A     -0.457485    35A     -0.447504    36A     -0.442865
      37A     -0.426521

  @DF-RHF Final Energy:  -388.42213088415997

   => Energetics <=

    Nuclear Repulsion Energy =            462.0470855269825279
    One-Electron Energy =               -1442.3781571340500705
    Two-Electron Energy =                 591.9089407229067774
    DFT Exchange-Correlation Energy =       0.0000000000000000
    Empirical Dispersion Energy =           0.0000000000000000
    PCM Polarization Energy =               0.0000000000000000
    EFP Energy =                            0.0000000000000000
    Total Energy =                       -388.4221308841607652
    Molecular point group: c1
  Basis Set: CC-PVTZ
  Basis Set:

  -Total Gradient:
     Atom            X                  Y                   Z
    ------   -----------------  -----------------  -----------------
       1        0.000004605026     0.000003557202    -0.000004446857
       2       -0.000011974087     0.000010428065    -0.000007616648
       3        0.000008992474    -0.000006478419     0.000005837715
       4        0.000000572286     0.000001722475     0.000000483100
       5        0.000004820701    -0.000002060403     0.000010515538
       6       -0.000004845777    -0.000000913465    -0.000005502814
       7        0.000001551568     0.000005140165    -0.000001422328
       8       -0.000003433401     0.000006945167    -0.000000249210
       9       -0.000003833221    -0.000006652982    -0.000000073450
      10       -0.000819311453     0.006361186487    -0.003571265144
      11       -0.000004671997    -0.000004193807     0.000003704143
      12        0.000005838717    -0.000005567509    -0.000008979015
      13       -0.001877934554    -0.004764902427    -0.003902564202
      14        0.001206125734    -0.004203543000     0.004122247513
      15        0.000001325136    -0.000001003623     0.000000454069
      16        0.001496500490     0.002600461501     0.003360025116
      17       -0.000000886320     0.000002564700    -0.000001114278
      18       -0.000003049736    -0.000003772781     0.000001062729
      19       -0.000004550141     0.000005808631     0.000000577367
      20       -0.000007020809     0.000000138448     0.000007303136
      21       -0.000005343226    -0.000000290539    -0.000003874214
      22        0.000006065471     0.000002336152    -0.000002535501
      23        0.000007835000     0.000002811471    -0.000002080138
      24        0.000004153645    -0.000003062680    -0.000003238166
      25       -0.000000118685     0.000000768672     0.000003500117
      26        0.000001347937     0.000000161554     0.000001275919
      27       -0.000002760774    -0.000001589052    -0.000002024500

  **** Optimization is complete! (in 7 steps) ****
    Final optimized geometry and variables:
    Molecular point group: c1

    Geometry (in Angstrom), charge = 0, multiplicity = 1:

    H            1.891027124398     1.830790900637    -1.871389398726
    O            2.714237539252     1.422944874044    -2.065301453737
    C            3.259255361750     0.852401721549    -0.904904026462
    C            2.532174818485    -0.403072694189    -0.446979889767
    H            4.284207686322     0.608067167795    -1.149292887566
    H            3.285851359234     1.583562289317    -0.099236320276
    C            1.093812090013    -0.163406513609     0.006490061017
    H            2.544417386692    -1.124533842942    -1.258315076818
    H            3.100317212351    -0.838513085605     0.371461329110
    C            0.419713754792    -1.443374058774     0.493470792012
    H            0.523656696628     0.259876104008    -0.813270020526
    H            1.090640946545     0.576060191042     0.804549056203
    C           -1.019593983837    -1.321203901255     1.039252926919
    H            0.449139247029    -2.198936098327    -0.286395257151
    H            1.034308970317    -1.861720688250     1.286267163757
    C           -1.861755042840    -0.158904996381     0.513795481415
    H           -1.542268535407    -2.253639148686     0.853500242371
    H           -0.971146197697    -1.220844867680     2.120342181611
    C           -3.276705423676    -0.155463929941     1.086864644091
    H           -1.921893174024    -0.201371416566    -0.571471907772
    H           -1.381921083041     0.783501718924     0.756732445635
    C           -4.124015641245     1.009176906379     0.585322287498
    H           -3.767958263939    -1.091624407072     0.836508447180
    H           -3.224049238669    -0.120904799264     2.171745848998
    H           -4.224770168017     0.983602675203    -0.494674486318
    H           -5.120787412305     0.981772660533     1.010410120768
    H           -3.677704815682     1.961653068347     0.851738650822

  Mulliken Charges: (a.u.)
   Center  Symbol    Alpha    Beta     Spin     Total
       1     H     0.39234  0.39234  0.00000  0.21533
       2     O     4.20557  4.20557  0.00000 -0.41115
       3     C     2.97999  2.97999  0.00000  0.04002
       4     C     3.09014  3.09014  0.00000 -0.18029
       5     H     0.44851  0.44851  0.00000  0.10298
       6     H     0.46988  0.46988  0.00000  0.06024
       7     C     3.10606  3.10606  0.00000 -0.21212
       8     H     0.45089  0.45089  0.00000  0.09822
       9     H     0.45508  0.45508  0.00000  0.08985
      10     C     3.09596  3.09596  0.00000 -0.19191
      11     H     0.45288  0.45288  0.00000  0.09424
      12     H     0.45242  0.45242  0.00000  0.09516
      13     C     3.09527  3.09527  0.00000 -0.19055
      14     H     0.45020  0.45020  0.00000  0.09959
      15     H     0.45162  0.45162  0.00000  0.09677
      16     C     3.09187  3.09187  0.00000 -0.18374
      17     H     0.44913  0.44913  0.00000  0.10173
      18     H     0.45376  0.45376  0.00000  0.09248
      19     C     3.08496  3.08496  0.00000 -0.16993
      20     H     0.45384  0.45384  0.00000  0.09232
      21     H     0.45240  0.45240  0.00000  0.09520
      22     C     3.14996  3.14996  0.00000 -0.29992
      23     H     0.45350  0.45350  0.00000  0.09300
      24     H     0.45469  0.45469  0.00000  0.09062
      25     H     0.45507  0.45507  0.00000  0.08985
      26     H     0.44808  0.44808  0.00000  0.10384
      27     H     0.45592  0.45592  0.00000  0.08816

   Total alpha = 37.00000, Total beta = 37.00000, Total charge =  0.00000

*** Psi4 exiting successfully. Buy a developer a beer!
