                              Psi4 1.0.54 Driver

  ==> Input File <==

--------------------------------------------------------------------------
set {
	reference rhf
	basis cc-pvtz
}

set_num_threads( 4 )
memory 2 gb

molecule MOL {
0 1

O	 -1.278239	 1.034789	 -0.784693
C	 -1.204115	 0.062668	 -0.112312
C	 -2.386398	 -0.667698	 0.460323
O	 -0.068058	 -0.518372	 0.226882
H	 -2.382952	 -1.693172	 0.114333
H	 -3.296656	 -0.175702	 0.158400
H	 -2.312537	 -0.685191	 1.540100
C	 1.110824	 -0.258294	 -0.542144
C	 2.001104	 -1.473819	 -0.377790
C	 1.764988	 1.025751	 -0.064749
H	 0.815951	 -0.151629	 -1.574984
H	 1.496846	 -2.366983	 -0.723813
H	 2.909985	 -1.348641	 -0.953965
H	 2.270989	 -1.614480	 0.662072
H	 2.664525	 1.217774	 -0.637865
H	 1.097801	 1.866829	 -0.191626
H	 2.037035	 0.947211	 0.981724

	symmetry c1
}
set optking {
	frozen_dihedral = ("
		8 4 2 1
	")
}

ee,wfn = optimize('scf', return_wfn=True)
oeprop( wfn, 'DIPOLE', 'QUADRUPOLE', 'MULLIKEN_CHARGES')
f=open( 'psi4out.xyz', 'w' )
f.write( "17  " )
f.write( str(ee) + "\n" )
f.write( MOL.save_string_xyz() )
f.close()
--------------------------------------------------------------------------

    Molecular point group: c1
  Charge       = 0
  Multiplicity = 1
  Basis Set: CC-PVTZ
  Basis Set:
  @DF-RHF Final Energy:  -345.04094473216617
    Total Energy =                       -345.0409447321663947
    Molecular point group: c1
  Basis Set: CC-PVTZ
  Basis Set:
  Basis Set: CC-PVTZ
  Basis Set:
  @DF-RHF Final Energy:  -345.01543401357065
    Total Energy =                       -345.0154340135708253
  Basis Set: CC-PVTZ
  Basis Set:
  Basis Set: CC-PVTZ
  Basis Set:
  @DF-RHF Final Energy:  -345.03922857890598
    Total Energy =                       -345.0392285789055222
  Basis Set: CC-PVTZ
  Basis Set:
  Basis Set: CC-PVTZ
  Basis Set:
  @DF-RHF Final Energy:  -345.04126177160799
    Total Energy =                       -345.0412617716080490
  Basis Set: CC-PVTZ
  Basis Set:
  @DF-RHF Final Energy:  -345.04111266777068
    Total Energy =                       -345.0411126677705624
  @DF-RHF Final Energy:  -345.04144885011186
    Total Energy =                       -345.0414488501120331
  @DF-RHF Final Energy:  -345.04146129647376
    Total Energy =                       -345.0414612964733578
  Basis Set: CC-PVTZ
  Basis Set:
  @DF-RHF Final Energy:  -345.04146711419730
    Total Energy =                       -345.0414671141974168
  Basis Set: CC-PVTZ
  Basis Set:
  Basis Set: CC-PVTZ
  Basis Set:
  @DF-RHF Final Energy:  -345.04147075629334
    Total Energy =                       -345.0414707562933927
  Basis Set: CC-PVTZ
  Basis Set:
  Basis Set: CC-PVTZ
  Basis Set:
  @DF-RHF Final Energy:  -345.04147203587075
    Total Energy =                       -345.0414720358709246
  Basis Set: CC-PVTZ
  Basis Set:
  Charge       = 0
  Multiplicity = 1
  Basis Set: CC-PVTZ
  Basis Set:

    Orbital Energies (a.u.)
    -----------------------

    Doubly Occupied:

       1A    -20.589497     2A    -20.532458     3A    -11.367074
       4A    -11.289473     5A    -11.230850     6A    -11.218381
       7A    -11.212398     8A     -1.467477     9A     -1.364591
      10A     -1.079216    11A     -1.005806    12A     -0.948030
      13A     -0.849169    14A     -0.769594    15A     -0.694268
      16A     -0.673618    17A     -0.659176    18A     -0.611950
      19A     -0.588019    20A     -0.579647    21A     -0.565208
      22A     -0.550656    23A     -0.541559    24A     -0.518723
      25A     -0.502730    26A     -0.484062    27A     -0.448458
      28A     -0.440153

  @DF-RHF Final Energy:  -345.04147269855008

   => Energetics <=

    Nuclear Repulsion Energy =            323.1560185921577499
    One-Electron Energy =               -1110.8305074207214602
    Two-Electron Energy =                 442.6330161300136297
    DFT Exchange-Correlation Energy =       0.0000000000000000
    Empirical Dispersion Energy =           0.0000000000000000
    PCM Polarization Energy =               0.0000000000000000
    EFP Energy =                            0.0000000000000000
    Total Energy =                       -345.0414726985500238
    Molecular point group: c1
  Basis Set: CC-PVTZ
  Basis Set:

  -Total Gradient:
     Atom            X                  Y                   Z
    ------   -----------------  -----------------  -----------------
       1        0.001380163418     0.004646026796     0.003471758226
       2       -0.003020953141    -0.009227475118    -0.006016015590
       3       -0.000000142894     0.000201465796     0.000050432887
       4        0.003257155252     0.008608947014     0.003641821928
       5       -0.000003194000    -0.000127081156    -0.000007585596
       6       -0.000031880377     0.000011093143     0.000008294080
       7        0.000013104449     0.000009985449     0.000068715452
       8       -0.001653173654    -0.004184710307    -0.001250256035
       9       -0.000015507735     0.000054811737    -0.000012031753
      10        0.000085168777    -0.000007620583     0.000043571462
      11        0.000029753159     0.000013737676     0.000022593216
      12        0.000009057294    -0.000006548625     0.000000895589
      13       -0.000006988083    -0.000004584164     0.000007707027
      14       -0.000004230333    -0.000008069869    -0.000004296571
      15       -0.000015653208     0.000017510539     0.000009675468
      16       -0.000010855842     0.000007523085    -0.000016633845
      17       -0.000011823082    -0.000005011409    -0.000018645945

  **** Optimization is complete! (in 11 steps) ****
    Final optimized geometry and variables:
    Molecular point group: c1

    Geometry (in Angstrom), charge = 0, multiplicity = 1:

    O           -1.390387185113     1.034483554054    -0.601997296400
    C           -1.147213560623     0.291930972924     0.287432222359
    C           -2.127993909325    -0.106189961732     1.354451635806
    O            0.041188849570    -0.248971374937     0.494242658357
    H           -2.323900352243    -1.169075104347     1.282402875366
    H           -3.045111155404     0.446389160033     1.230066842453
    H           -1.702856586716     0.083254047276     2.331198209981
    C            0.984107692705    -0.303230950561    -0.582556405153
    C            1.752287439505    -1.599049592357    -0.415186360689
    C            1.875613770087     0.924919018168    -0.549130687670
    H            0.427210522966    -0.317075189627    -1.507736593005
    H            1.082792764882    -2.449321211042    -0.443801710983
    H            2.476713490322    -1.706621643059    -1.213611990175
    H            2.280312026494    -1.611594708150     0.530721657518
    H            2.597795289560     0.882731838040    -1.356275720789
    H            1.287538002205     1.824413877799    -0.663810195765
    H            2.415197033013     0.975940455781     0.389718315388

  Mulliken Charges: (a.u.)
   Center  Symbol    Alpha    Beta     Spin     Total
       1     O     4.19752  4.19752  0.00000 -0.39504
       2     C     2.80784  2.80784  0.00000  0.38432
       3     C     3.13742  3.13742  0.00000 -0.27483
       4     O     4.16548  4.16548  0.00000 -0.33096
       5     H     0.44771  0.44771  0.00000  0.10457
       6     H     0.43857  0.43857  0.00000  0.12287
       7     H     0.44459  0.44459  0.00000  0.11083
       8     C     2.93035  2.93035  0.00000  0.13931
       9     C     3.13655  3.13655  0.00000 -0.27309
      10     C     3.15069  3.15069  0.00000 -0.30139
      11     H     0.44594  0.44594  0.00000  0.10812
      12     H     0.44828  0.44828  0.00000  0.10345
      13     H     0.45379  0.45379  0.00000  0.09242
      14     H     0.45185  0.45185  0.00000  0.09630
      15     H     0.45138  0.45138  0.00000  0.09725
      16     H     0.43782  0.43782  0.00000  0.12435
      17     H     0.45424  0.45424  0.00000  0.09153

   Total alpha = 28.00000, Total beta = 28.00000, Total charge = -0.00000

*** Psi4 exiting successfully. Buy a developer a beer!
