                              Psi4 1.0.54 Driver

  ==> Input File <==

--------------------------------------------------------------------------
set {
	reference rhf
	basis cc-pvtz
}

set_num_threads( 4 )
memory 2 gb

molecule MOL {
0 1

H	 -2.529953	 -0.163854	 -0.694158
O	 -2.041679	 -0.058866	 0.103463
C	 -0.959304	 0.780994	 -0.094939
C	 0.354905	 0.037902	 -0.006215
H	 -0.985899	 1.279578	 -1.057596
H	 -0.969809	 1.529522	 0.682889
F	 0.412060	 -0.931028	 -0.902708
F	 1.359641	 0.856111	 -0.239961
F	 0.545380	 -0.506387	 1.171682

	symmetry c1
}
set optking {
	frozen_dihedral = ("
		1 2 3 5
	")
}

ee,wfn = optimize('scf', return_wfn=True)
oeprop( wfn, 'DIPOLE', 'QUADRUPOLE', 'MULLIKEN_CHARGES')
f=open( 'psi4out.xyz', 'w' )
f.write( "9  " )
f.write( str(ee) + "\n" )
f.write( MOL.save_string_xyz() )
f.close()
--------------------------------------------------------------------------

    Molecular point group: c1
  Charge       = 0
  Multiplicity = 1
  Basis Set: CC-PVTZ
  Basis Set:
  @DF-RHF Final Energy:  -450.84493460328048
    Total Energy =                       -450.8449346032806488
    Molecular point group: c1
  Basis Set: CC-PVTZ
  Basis Set:
  Basis Set: CC-PVTZ
  Basis Set:
  @DF-RHF Final Energy:  -450.84527868328598
    Total Energy =                       -450.8452786832860397
  Basis Set: CC-PVTZ
  Basis Set:
  Basis Set: CC-PVTZ
  Basis Set:
  @DF-RHF Final Energy:  -450.84536722541679
    Total Energy =                       -450.8453672254165667
  Basis Set: CC-PVTZ
  Basis Set:
  Basis Set: CC-PVTZ
  Basis Set:
  @DF-RHF Final Energy:  -450.84537182569733
    Total Energy =                       -450.8453718256974412
  Basis Set: CC-PVTZ
  Basis Set:
  Charge       = 0
  Multiplicity = 1
  Basis Set: CC-PVTZ
  Basis Set:

    Orbital Energies (a.u.)
    -----------------------

    Doubly Occupied:

       1A    -26.334738     2A    -26.332794     3A    -26.330970
       4A    -20.583003     5A    -11.489211     6A    -11.310453
       7A     -1.742714     8A     -1.639317     9A     -1.637878
      10A     -1.406351    11A     -1.049899    12A     -0.925483
      13A     -0.833481    14A     -0.831967    15A     -0.797015
      16A     -0.741165    17A     -0.714035    18A     -0.704214
      19A     -0.669165    20A     -0.659740    21A     -0.643912
      22A     -0.636792    23A     -0.603978    24A     -0.536564
      25A     -0.483236

  @DF-RHF Final Energy:  -450.84537227875728

   => Energetics <=

    Nuclear Repulsion Energy =            277.4952995523800610
    One-Electron Energy =               -1177.4051908895066845
    Two-Electron Energy =                 449.0645190583691146
    DFT Exchange-Correlation Energy =       0.0000000000000000
    Empirical Dispersion Energy =           0.0000000000000000
    PCM Polarization Energy =               0.0000000000000000
    EFP Energy =                            0.0000000000000000
    Total Energy =                       -450.8453722787575089
    Molecular point group: c1
  Basis Set: CC-PVTZ
  Basis Set:

  -Total Gradient:
     Atom            X                  Y                   Z
    ------   -----------------  -----------------  -----------------
       1       -0.001096689174     0.001457924574     0.000406198907
       2        0.001613934931    -0.002179007288    -0.000731408635
       3       -0.001390550740     0.001956771656     0.000944394742
       4        0.000056277822     0.000143634260     0.000099874925
       5        0.000845490232    -0.001252726697    -0.000616787786
       6        0.000002892540    -0.000009237851    -0.000016484508
       7        0.000015218857    -0.000019277338    -0.000020195097
       8       -0.000046918625    -0.000090859692    -0.000022477877
       9        0.000000344150    -0.000007221624    -0.000043114665

  **** Optimization is complete! (in 5 steps) ****
    Final optimized geometry and variables:
    Molecular point group: c1

    Geometry (in Angstrom), charge = 0, multiplicity = 1:

    H           -2.505103348051    -0.206840604501    -0.668730562462
    O           -2.022179454987    -0.062699559313     0.122791700453
    C           -0.950292868668     0.789886004523    -0.097151760587
    C            0.353805548530     0.028743339779    -0.011828547604
    H           -0.975871443872     1.254853270621    -1.074662087932
    H           -0.931914096368     1.561790421009     0.659798462557
    F            0.427876485998    -0.909887581869    -0.932144757192
    F            1.366849080769     0.852398037437    -0.200961898981
    F            0.518619135773    -0.545240210206     1.156045125028

  Mulliken Charges: (a.u.)
   Center  Symbol    Alpha    Beta     Spin     Total
       1     H     0.38558  0.38558  0.00000  0.22885
       2     O     4.19216  4.19216  0.00000 -0.38433
       3     C     2.99298  2.99298  0.00000  0.01405
       4     C     2.67798  2.67798  0.00000  0.64404
       5     H     0.46179  0.46179  0.00000  0.07642
       6     H     0.45320  0.45320  0.00000  0.09360
       7     F     4.61390  4.61390  0.00000 -0.22780
       8     F     4.61453  4.61453  0.00000 -0.22907
       9     F     4.60788  4.60788  0.00000 -0.21576

   Total alpha = 25.00000, Total beta = 25.00000, Total charge =  0.00000

*** Psi4 exiting successfully. Buy a developer a beer!
