  ==> Input File <==

--------------------------------------------------------------------------
set {
	reference rhf
	basis 6-31G*
}

set_num_threads( 4 )
memory 2 gb

molecule MOL {
0 1

H	 1.708334	 -2.950826	 -0.149359
C	 1.452919	 -1.945151	 -0.471259
C	 0.407419	 -1.338886	 0.459597
H	 1.066941	 -1.994294	 -1.483370
H	 2.369815	 -1.366022	 -0.492380
N	 -0.000257	 -0.000071	 0.054619
H	 -0.465018	 -1.980034	 0.446919
H	 0.773580	 -1.344969	 1.490410
C	 -1.363055	 0.315058	 0.462241
C	 0.954667	 1.021266	 0.464067
C	 -2.412078	 -0.285320	 -0.468531
H	 -1.482241	 1.391144	 0.451970
H	 -1.549931	 -0.001174	 1.492681
C	 0.960380	 2.231474	 -0.464698
H	 1.945817	 0.585770	 0.453184
H	 0.774335	 1.339673	 1.495031
H	 -2.262839	 0.075384	 -1.480151
H	 -2.369300	 -1.368867	 -0.491760
H	 -3.410332	 -0.003975	 -0.144961
H	 1.198006	 1.923407	 -1.476757
H	 0.000997	 2.737067	 -0.487270
H	 1.703644	 2.954207	 -0.139824

	symmetry c1
}
set optking {
	frozen_dihedral = ("
		3 6 9 11
	")
}

ee = optimize('scf')
oeprop('DIPOLE', 'QUADRUPOLE', 'MULLIKEN_CHARGES')
f=open( 'psi4out.xyz', 'w' )
f.write( "22  " )
f.write( str(ee) + "\n" )
f.write( MOL.save_string_xyz() )
f.close()
--------------------------------------------------------------------------

    Molecular point group: c1
  Charge       = 0
  Multiplicity = 1
  Basis Set: 6-31G*
  Basis Set:
  @DF-RHF Final Energy:  -290.37233521798680
    Total Energy =                       -290.3723352179862331
    Molecular point group: c1
  Basis Set: 6-31G*
  Basis Set:
  Charge       = 0
  Multiplicity = 1
  Basis Set: 6-31G*
  Basis Set:

    Orbital Energies (a.u.)
    -----------------------

    Doubly Occupied:

       1A    -15.536997     2A    -11.240212     3A    -11.240204
       4A    -11.240180     5A    -11.205082     6A    -11.205058
       7A    -11.205046     8A     -1.223715     9A     -1.023297
      10A     -1.023260    11A     -0.955150    12A     -0.845978
      13A     -0.845880    14A     -0.772346    15A     -0.645751
      16A     -0.645652    17A     -0.619890    18A     -0.591241
      19A     -0.591162    20A     -0.549996    21A     -0.531781
      22A     -0.518283    23A     -0.518212    24A     -0.493583
      25A     -0.493516    26A     -0.490585    27A     -0.461143
      28A     -0.461100    29A     -0.340907

  @DF-RHF Final Energy:  -290.37233509305617

   => Energetics <=

    Nuclear Repulsion Energy =            337.4933461679447078
    One-Electron Energy =               -1060.7009530646823805
    Two-Electron Energy =                 432.8352718036819624
    DFT Exchange-Correlation Energy =       0.0000000000000000
    Empirical Dispersion Energy =           0.0000000000000000
    PCM Polarization Energy =               0.0000000000000000
    EFP Energy =                            0.0000000000000000
    Total Energy =                       -290.3723350930556535
    Molecular point group: c1
  Basis Set: 6-31G*
  Basis Set:

  -Total Gradient:
     Atom            X                  Y                   Z
    ------   -----------------  -----------------  -----------------
       1       -0.000004189728     0.000004108240    -0.000007959779
       2       -0.000010847411    -0.000030770116    -0.000021422573
       3        0.000040020217     0.000035810308     0.000008401096
       4        0.000008937215    -0.000003244898    -0.000009252317
       5       -0.000017963277    -0.000048054728    -0.000003886501
       6        0.000006971629     0.000007209712    -0.000005892401
       7        0.000011685731     0.000019865642    -0.000019461529
       8       -0.000000554539    -0.000009286225     0.000033380925
       9        0.000009000758     0.000025385686    -0.000024465011
      10        0.000009096319    -0.000013737817     0.000017993235
      11       -0.000010220473    -0.000037829212     0.000018114239
      12        0.000005824594    -0.000000033867     0.000006337854
      13        0.000005849284    -0.000003346765    -0.000000928467
      14       -0.000008654865    -0.000003681838     0.000001806362
      15       -0.000033170767     0.000045635226     0.000016090575
      16       -0.000008361659     0.000002891190     0.000000623865
      17        0.000000167187    -0.000001621970    -0.000000154009
      18       -0.000005818707     0.000011805443     0.000000099635
      19       -0.000000273180    -0.000000401988    -0.000006482783
      20        0.000001196514    -0.000000818013    -0.000005158517
      21        0.000003074192     0.000002845456     0.000000970718
      22       -0.000001769035    -0.000002729466     0.000001245384

  **** Optimization is complete! (in 2 steps) ****
    Final optimized geometry and variables:
    Molecular point group: c1

    Geometry (in Angstrom), charge = 0, multiplicity = 1:

    H            1.705050890973    -2.952577129722    -0.151577854491
    C            1.450992257306    -1.946388132763    -0.472965412570
    C            0.408679725658    -1.338012542334     0.460168263793
    H            1.062796176746    -1.994855567822    -1.484267522969
    H            2.369057386189    -1.369246212984    -0.496114256795
    N            0.000388375998     0.000493833879     0.054725163154
    H           -0.464104629110    -1.978575557255     0.450453440844
    H            0.777459589712    -1.343304537469     1.490130043370
    C           -1.362787655776     0.314917977781     0.461491271321
    C            0.954036395552     1.022676370254     0.464954086300
    C           -2.411325485254    -0.286029184606    -0.469470123077
    H           -1.482394761579     1.390940769162     0.450945902449
    H           -1.550010625491    -0.001170919162     1.491971294557
    C            0.960149099916     2.232442644348    -0.464358630156
    H            1.945570057504     0.587961738986     0.455843401524
    H            0.771915791244     1.341456744054     1.495500180660
    H           -2.261091222789     0.073471549800    -1.481382741185
    H           -2.369240680984    -1.369637380649    -0.491443320496
    H           -3.409634332646    -0.003842841890    -0.146984757440
    H            1.199141352518     1.924000184768    -1.476055158106
    H            0.000535049546     2.737498126182    -0.488213838881
    H            1.702597856773     2.955697336996    -0.138889113612

  Mulliken Charges: (a.u.)
   Center  Symbol    Alpha    Beta     Spin     Total
       1     H     0.42362  0.42362  0.00000  0.15275
       2     C     3.23516  3.23516  0.00000 -0.47032
       3     C     3.05918  3.05918  0.00000 -0.11836
       4     H     0.41517  0.41517  0.00000  0.16966
       5     H     0.42137  0.42137  0.00000  0.15726
       6     N     3.78379  3.78379  0.00000 -0.56759
       7     H     0.41871  0.41871  0.00000  0.16259
       8     H     0.43219  0.43219  0.00000  0.13562
       9     C     3.05914  3.05914  0.00000 -0.11828
      10     C     3.05917  3.05917  0.00000 -0.11834
      11     C     3.23527  3.23527  0.00000 -0.47054
      12     H     0.41868  0.41868  0.00000  0.16263
      13     H     0.43226  0.43226  0.00000  0.13549
      14     C     3.23520  3.23520  0.00000 -0.47040
      15     H     0.41868  0.41868  0.00000  0.16264
      16     H     0.43222  0.43222  0.00000  0.13556
      17     H     0.41515  0.41515  0.00000  0.16971
      18     H     0.42134  0.42134  0.00000  0.15731
      19     H     0.42357  0.42357  0.00000  0.15285
      20     H     0.41516  0.41516  0.00000  0.16967
      21     H     0.42135  0.42135  0.00000  0.15730
      22     H     0.42361  0.42361  0.00000  0.15279

   Total alpha = 29.00000, Total beta = 29.00000, Total charge = -0.00000
