  ==> Input File <==

--------------------------------------------------------------------------
set {
	reference rhf
	basis 6-31G*
}

set_num_threads( 4 )
memory 2 gb

molecule MOL {
0 1

O	 2.895104	 -0.466464	 -1.782989
C	 2.524321	 -0.709459	 -0.680023
C	 1.091099	 -0.681065	 -0.206887
O	 3.347903	 -1.046386	 0.304773
C	 0.102459	 -0.309818	 -1.310011
H	 0.877452	 -1.655464	 0.219836
H	 1.037629	 0.023100	 0.619544
C	 -1.344009	 -0.174118	 -0.822354
H	 0.155409	 -1.049790	 -2.102953
H	 0.416848	 0.628191	 -1.754671
C	 -1.986287	 -1.476771	 -0.336881
H	 -1.939642	 0.222741	 -1.641163
H	 -1.390550	 0.569363	 -0.027949
C	 -3.461151	 -1.310490	 0.034769
H	 -1.894775	 -2.232548	 -1.115499
H	 -1.447861	 -1.860930	 0.526537
C	 -4.112006	 -2.604689	 0.526265
H	 -4.010038	 -0.938649	 -0.828766
H	 -3.554386	 -0.547195	 0.805735
C	 -5.585767	 -2.430931	 0.891693
H	 -4.018846	 -3.368814	 -0.242550
H	 -3.567379	 -2.975590	 1.392056
H	 -6.018778	 -3.364926	 1.236311
H	 -6.164610	 -2.093825	 0.036418
H	 -5.709602	 -1.697117	 1.683182
C	 4.728119	 -1.109107	 -0.004993
H	 4.882018	 -1.033965	 -1.071845
H	 5.068212	 -2.067527	 0.355250
H	 5.265056	 -0.311663	 0.488280

	symmetry c1
}
set optking {
	frozen_dihedral = ("
		2 4 26 27
	")
}

ee = optimize('scf')
oeprop('DIPOLE', 'QUADRUPOLE', 'MULLIKEN_CHARGES')
f=open( 'psi4out.xyz', 'w' )
f.write( "29  " )
f.write( str(ee) + "\n" )
f.write( MOL.save_string_xyz() )
f.close()
--------------------------------------------------------------------------

    Molecular point group: c1
  Charge       = 0
  Multiplicity = 1
  Basis Set: 6-31G*
  Basis Set:
  @DF-RHF Final Energy:  -501.04128382672047
    Total Energy =                       -501.0412838267197913
    Molecular point group: c1
  Basis Set: 6-31G*
  Basis Set:
  Basis Set: 6-31G*
  Basis Set:
  @DF-RHF Final Energy:  -501.04156247850938
    Total Energy =                       -501.0415624785092632
  Basis Set: 6-31G*
  Basis Set:
  Basis Set: 6-31G*
  Basis Set:
  @DF-RHF Final Energy:  -501.04208190289501
    Total Energy =                       -501.0420819028951200
  Basis Set: 6-31G*
  Basis Set:
  Basis Set: 6-31G*
  Basis Set:
  @DF-RHF Final Energy:  -501.04178842089186
    Total Energy =                       -501.0417884208918622
  Basis Set: 6-31G*
  Basis Set:
  Basis Set: 6-31G*
  Basis Set:
  @DF-RHF Final Energy:  -501.04209401732612
    Total Energy =                       -501.0420940173268036
  Basis Set: 6-31G*
  Basis Set:
  Charge       = 0
  Multiplicity = 1
  Basis Set: 6-31G*
  Basis Set:

    Orbital Energies (a.u.)
    -----------------------

    Doubly Occupied:

       1A    -20.602309     2A    -20.544486     3A    -11.373431
       4A    -11.279174     5A    -11.234096     6A    -11.218569
       7A    -11.217303     8A    -11.215786     9A    -11.215671
      10A    -11.214270    11A    -11.208956    12A     -1.466294
      13A     -1.363007    14A     -1.097719    15A     -1.066513
      16A     -1.019561    17A     -0.977792    18A     -0.928430
      19A     -0.861288    20A     -0.798921    21A     -0.790185
      22A     -0.762865    23A     -0.701675    24A     -0.680109
      25A     -0.672036    26A     -0.650671    27A     -0.628723
      28A     -0.604932    29A     -0.595236    30A     -0.580442
      31A     -0.568120    32A     -0.550127    33A     -0.533840
      34A     -0.526923    35A     -0.515200    36A     -0.511517
      37A     -0.496179    38A     -0.477587    39A     -0.469847
      40A     -0.462137    41A     -0.458424    42A     -0.451980
      43A     -0.441236    44A     -0.435244

  @DF-RHF Final Energy:  -501.04209409337022

   => Energetics <=

    Nuclear Repulsion Energy =            609.7513062403959339
    One-Electron Energy =               -1890.6491803390881614
    Two-Electron Energy =                 779.8557800053220035
    DFT Exchange-Correlation Energy =       0.0000000000000000
    Empirical Dispersion Energy =           0.0000000000000000
    PCM Polarization Energy =               0.0000000000000000
    EFP Energy =                            0.0000000000000000
    Total Energy =                       -501.0420940933702241
    Molecular point group: c1
  Basis Set: 6-31G*
  Basis Set:

  -Total Gradient:
     Atom            X                  Y                   Z
    ------   -----------------  -----------------  -----------------
       1        0.000015438482    -0.000011008315     0.000039802201
       2       -0.000073657883    -0.000597598923    -0.000189492912
       3       -0.000013312375    -0.000021740223    -0.000001654832
       4        0.000146937079     0.001106108112     0.000243473058
       5        0.000000318593     0.000018892795     0.000008932695
       6       -0.000016096960    -0.000005292810     0.000010028933
       7        0.000002993339     0.000002661479    -0.000010721701
       8       -0.000010933491     0.000000637659    -0.000019353675
       9       -0.000000602376     0.000008057243    -0.000006683907
      10        0.000009426924    -0.000001625824     0.000012097033
      11        0.000009976289     0.000000304729     0.000002301570
      12       -0.000007649471    -0.000010857753    -0.000000929898
      13       -0.000008167831     0.000007804434    -0.000009274558
      14        0.000000960768     0.000000343341     0.000007141132
      15       -0.000004407163     0.000006934124     0.000001356942
      16        0.000022075428    -0.000007838002     0.000003321237
      17       -0.000000376980     0.000000521823     0.000000636896
      18        0.000001884405    -0.000001265154    -0.000000749074
      19       -0.000002344906     0.000001106647     0.000000066506
      20        0.000000206912    -0.000000218208     0.000001702256
      21       -0.000000193707     0.000000535137    -0.000000468043
      22       -0.000000153180    -0.000000595292    -0.000000588111
      23       -0.000000317229     0.000000044643     0.000000533406
      24        0.000000407169    -0.000000405104    -0.000000078396
      25       -0.000000359571     0.000000352588    -0.000000094823
      26       -0.000148098943    -0.001234475141    -0.000124134169
      27        0.000061087123     0.000733193200     0.000043922447
      28        0.000020582673     0.000002382754    -0.000007843415
      29       -0.000005623130     0.000003040042    -0.000003248794

  **** Optimization is complete! (in 6 steps) ****
    Final optimized geometry and variables:
    Molecular point group: c1

    Geometry (in Angstrom), charge = 0, multiplicity = 1:

    O            2.999180560104     0.670547270885    -1.506189138134
    C            2.641300197045     0.422166013058    -0.400523541459
    C            1.210281776865     0.447683478368     0.080754514118
    O            3.461616503766     0.081825080953     0.587493965752
    C            0.214724922823     0.825352235788    -1.013830407047
    H            0.999448818082    -0.529160667860     0.503131523699
    H            1.161893353805     1.146859743442     0.911660018438
    C           -1.228886871956     0.956003213492    -0.516341199556
    H            0.263555653973     0.090938096168    -1.812157344365
    H            0.525277140698     1.766766760767    -1.453929901681
    C           -1.865425143032    -0.350067139595    -0.032452947046
    H           -1.830645635547     1.355204093336    -1.329528050056
    H           -1.271865535389     1.695877564665     0.281634478134
    C           -3.337818441112    -0.188134513480     0.350765417998
    H           -1.778338162437    -1.101925963192    -0.815356597330
    H           -1.320030645303    -0.737446904643     0.825125483570
    C           -3.982770831892    -1.485686000369     0.841189338038
    H           -3.893704965245     0.186608299955    -0.507017108516
    H           -3.426729801914     0.571512802859     1.125830277220
    C           -5.453909201770    -1.316064359458     1.218944865584
    H           -3.894409157239    -2.246029629761     0.068070377530
    H           -3.430807207627    -1.859782615356     1.700939008135
    H           -5.882675092855    -2.252337605201     1.562708963726
    H           -6.039991724480    -0.976057812711     0.369771356052
    H           -5.572737774678    -0.586040319534     2.014695955649
    C            4.853144841968    -0.012694388759     0.334145557628
    H            5.056971022424     0.047238214207    -0.721618446305
    H            5.190732001269    -0.957659506098     0.734440724210
    H            5.351343934347     0.796683549346     0.850513554093

  Mulliken Charges: (a.u.)
   Center  Symbol    Alpha    Beta     Spin     Total
       1     O     4.28541  4.28541  0.00000 -0.57083
       2     C     2.60446  2.60446  0.00000  0.79107
       3     C     3.21023  3.21023  0.00000 -0.42045
       4     O     4.30957  4.30957  0.00000 -0.61914
       5     C     3.15373  3.15373  0.00000 -0.30746
       6     H     0.39896  0.39896  0.00000  0.20209
       7     H     0.40131  0.40131  0.00000  0.19738
       8     C     3.15657  3.15657  0.00000 -0.31314
       9     H     0.41317  0.41317  0.00000  0.17367
      10     H     0.40885  0.40885  0.00000  0.18229
      11     C     3.15506  3.15506  0.00000 -0.31011
      12     H     0.41832  0.41832  0.00000  0.16336
      13     H     0.42392  0.42392  0.00000  0.15216
      14     C     3.15027  3.15027  0.00000 -0.30055
      15     H     0.42265  0.42265  0.00000  0.15469
      16     H     0.42360  0.42360  0.00000  0.15279
      17     C     3.15144  3.15144  0.00000 -0.30289
      18     H     0.42335  0.42335  0.00000  0.15331
      19     H     0.42399  0.42399  0.00000  0.15202
      20     C     3.23934  3.23934  0.00000 -0.47868
      21     H     0.42282  0.42282  0.00000  0.15436
      22     H     0.42345  0.42345  0.00000  0.15310
      23     H     0.41926  0.41926  0.00000  0.16148
      24     H     0.42155  0.42155  0.00000  0.15689
      25     H     0.42184  0.42184  0.00000  0.15632
      26     C     3.09835  3.09835  0.00000 -0.19671
      27     H     0.39396  0.39396  0.00000  0.21208
      28     H     0.41145  0.41145  0.00000  0.17710
      29     H     0.41310  0.41310  0.00000  0.17380

   Total alpha = 44.00000, Total beta = 44.00000, Total charge =  0.00000
