  ==> Input File <==

--------------------------------------------------------------------------
set {
	reference rhf
	basis cc-pvtz
}

set_num_threads( 4 )
memory 2 gb

molecule MOL {
0 1

H	 2.212469	 -1.303754	 0.165358
N	 2.433987	 -0.362316	 -0.080024
C	 1.263552	 0.494993	 0.021953
H	 2.785070	 -0.376372	 -1.014839
C	 -0.016533	 -0.325589	 -0.026925
H	 1.280915	 1.180773	 -0.818522
H	 1.263064	 1.106893	 0.925038
C	 -1.280353	 0.525521	 0.047747
H	 -0.016686	 -0.912532	 -0.939714
H	 -0.014099	 -1.037598	 0.796369
C	 -2.560681	 -0.301323	 -0.007747
H	 -1.279957	 1.241025	 -0.770189
H	 -1.270445	 1.110526	 0.963468
H	 -2.617064	 -0.872870	 -0.928010
H	 -3.439525	 0.331102	 0.043462
H	 -2.609427	 -1.002736	 0.818585

	symmetry c1
}
set optking {
	frozen_dihedral = ("
		1 2 3 6
	")
}

ee = optimize('scf')
oeprop('DIPOLE', 'QUADRUPOLE', 'MULLIKEN_CHARGES')
f=open( 'psi4out.xyz', 'w' )
f.write( "16  " )
f.write( str(ee) + "\n" )
f.write( MOL.save_string_xyz() )
f.close()
--------------------------------------------------------------------------

    Molecular point group: c1
  Charge       = 0
  Multiplicity = 1
  Basis Set: CC-PVTZ
  Basis Set:
  @DF-RHF Final Energy:  -212.39625526832774
    Total Energy =                       -212.3962552683279341
    Molecular point group: c1
  Basis Set: CC-PVTZ
  Basis Set:
  Basis Set: CC-PVTZ
  Basis Set:
  @DF-RHF Final Energy:  -212.39723182117660
    Total Energy =                       -212.3972318211762627
  Basis Set: CC-PVTZ
  Basis Set:
  Basis Set: CC-PVTZ
  Basis Set:
  @DF-RHF Final Energy:  -212.39737673705957
    Total Energy =                       -212.3973767370594601
  Basis Set: CC-PVTZ
  Basis Set:
  Basis Set: CC-PVTZ
  Basis Set:
  @DF-RHF Final Energy:  -212.39737904177062
    Total Energy =                       -212.3973790417705914
  Basis Set: CC-PVTZ
  Basis Set:
  Charge       = 0
  Multiplicity = 1
  Basis Set: CC-PVTZ
  Basis Set:

    Orbital Energies (a.u.)
    -----------------------

    Doubly Occupied:

       1A    -15.525006     2A    -11.238240     3A    -11.216056
       4A    -11.213106     5A    -11.208846     6A     -1.176820
       7A     -1.063543     8A     -0.961082     9A     -0.848113
      10A     -0.797914    11A     -0.672380    12A     -0.631661
      13A     -0.597946    14A     -0.586811    15A     -0.561838
      16A     -0.522227    17A     -0.509192    18A     -0.479449
      19A     -0.472395    20A     -0.466146    21A     -0.379084

  @DF-RHF Final Energy:  -212.39737935213864

   => Energetics <=

    Nuclear Repulsion Energy =            186.4263198964380592
    One-Electron Energy =                -655.3916905166375955
    Two-Electron Energy =                 256.5679912680610073
    DFT Exchange-Correlation Energy =       0.0000000000000000
    Empirical Dispersion Energy =           0.0000000000000000
    PCM Polarization Energy =               0.0000000000000000
    EFP Energy =                            0.0000000000000000
    Total Energy =                       -212.3973793521385574
    Molecular point group: c1
  Basis Set: CC-PVTZ
  Basis Set:

  -Total Gradient:
     Atom            X                  Y                   Z
    ------   -----------------  -----------------  -----------------
       1       -0.000482409143    -0.000565751391    -0.002627182629
       2        0.000270505724     0.000308789875     0.002948545032
       3        0.001384710176     0.001907633642     0.001075131523
       4       -0.000004887301     0.000009738485     0.000006177785
       5        0.000074564952     0.000013773408    -0.000009975885
       6       -0.001181581824    -0.001680025490    -0.001406650327
       7       -0.000013465417     0.000006625912     0.000008097125
       8        0.000016202016    -0.000009113596    -0.000003525855
       9        0.000006416665     0.000003258070     0.000005159677
      10       -0.000007429876    -0.000003368404    -0.000015203534
      11       -0.000042226011     0.000015719343     0.000022693500
      12        0.000006895522    -0.000007578287     0.000002030092
      13       -0.000012668601     0.000003337001    -0.000007383375
      14        0.000008450170     0.000010824918     0.000003060350
      15       -0.000021800801    -0.000011797891     0.000002144499
      16       -0.000001276250    -0.000002065595    -0.000003117978

  **** Optimization is complete! (in 5 steps) ****
    Final optimized geometry and variables:
    Molecular point group: c1

    Geometry (in Angstrom), charge = 0, multiplicity = 1:

    H            2.296957687889    -1.275401402197     0.207724507810
    N            2.484361394920    -0.324579836039    -0.030146584230
    C            1.269535030066     0.483227047664     0.021859469260
    H            2.867000168066    -0.335054396500    -0.950516010157
    C           -0.022504692418    -0.326339585613    -0.029177957332
    H            1.276926369713     1.174751124251    -0.813876642910
    H            1.278007574901     1.082200570205     0.926983855006
    C           -1.278512885808     0.534828508470     0.062499462024
    H           -0.043017128795    -0.905743929647    -0.949433971195
    H           -0.020789801665    -1.045381702115     0.787949291701
    C           -2.567736279273    -0.279139618427     0.023966373698
    H           -1.282208509770     1.252339477680    -0.753624815860
    H           -1.248326077750     1.117177725362     0.979077920249
    H           -2.644464833237    -0.847223430810    -0.897141995721
    H           -3.439178838493     0.361951276909     0.090296807509
    H           -2.611040735325    -0.982265324513     0.849034345016

  Mulliken Charges: (a.u.)
   Center  Symbol    Alpha    Beta     Spin     Total
       1     H     0.42940  0.42940  0.00000  0.14120
       2     N     3.69343  3.69343  0.00000 -0.38686
       3     C     3.01938  3.01938  0.00000 -0.03875
       4     H     0.42961  0.42961  0.00000  0.14078
       5     C     3.08795  3.08795  0.00000 -0.17589
       6     H     0.46025  0.46025  0.00000  0.07950
       7     H     0.45888  0.45888  0.00000  0.08223
       8     C     3.09025  3.09025  0.00000 -0.18050
       9     H     0.45810  0.45810  0.00000  0.08379
      10     H     0.45753  0.45753  0.00000  0.08495
      11     C     3.14892  3.14892  0.00000 -0.29785
      12     H     0.45460  0.45460  0.00000  0.09079
      13     H     0.45365  0.45365  0.00000  0.09270
      14     H     0.45514  0.45514  0.00000  0.08972
      15     H     0.44815  0.44815  0.00000  0.10370
      16     H     0.45476  0.45476  0.00000  0.09049

   Total alpha = 21.00000, Total beta = 21.00000, Total charge = -0.00000
