  ==> Input File <==

--------------------------------------------------------------------------
set {
	reference rhf
	basis 6-31G*
}

set_num_threads( 4 )
memory 2 gb

molecule MOL {
0 1

H	 -0.891815	 -1.275557	 -0.063677
N	 -1.172117	 -0.314371	 -0.100254
C	 -0.024542	 0.565565	 0.069209
H	 -1.595540	 -0.169681	 -0.997391
C	 1.271298	 -0.229563	 -0.014192
H	 -0.049409	 1.297310	 -0.731596
H	 -0.046881	 1.125219	 1.006750
H	 1.332152	 -0.753033	 -0.961461
H	 2.134169	 0.422483	 0.080702
H	 1.326077	 -0.968298	 0.781395

	symmetry c1
}
set optking {
	frozen_dihedral = ("
		1 2 3 6
	")
}

ee = optimize('scf')
oeprop('DIPOLE', 'QUADRUPOLE', 'MULLIKEN_CHARGES')
f=open( 'psi4out.xyz', 'w' )
f.write( "10  " )
f.write( str(ee) + "\n" )
f.write( MOL.save_string_xyz() )
f.close()
--------------------------------------------------------------------------

    Molecular point group: c1
  Charge       = 0
  Multiplicity = 1
  Basis Set: 6-31G*
  Basis Set:
  @DF-RHF Final Energy:  -134.24213315154853
    Total Energy =                       -134.2421331515485008
    Molecular point group: c1
  Basis Set: 6-31G*
  Basis Set:
  Basis Set: 6-31G*
  Basis Set:
  @DF-RHF Final Energy:  -134.24326100810356
    Total Energy =                       -134.2432610081035875
  Basis Set: 6-31G*
  Basis Set:
  Basis Set: 6-31G*
  Basis Set:
  @DF-RHF Final Energy:  -134.24344779017483
    Total Energy =                       -134.2434477901747982
  Basis Set: 6-31G*
  Basis Set:
  Basis Set: 6-31G*
  Basis Set:
  @DF-RHF Final Energy:  -134.24344961247522
    Total Energy =                       -134.2434496124752741
  Basis Set: 6-31G*
  Basis Set:
  Charge       = 0
  Multiplicity = 1
  Basis Set: 6-31G*
  Basis Set:

    Orbital Energies (a.u.)
    -----------------------

    Doubly Occupied:

       1A    -15.530422     2A    -11.242725     3A    -11.213479
       4A     -1.173635     5A     -0.989635     6A     -0.831352
       7A     -0.665320     8A     -0.607344     9A     -0.593279
      10A     -0.537141    11A     -0.506796    12A     -0.488738
      13A     -0.377260

  @DF-RHF Final Energy:  -134.24345012852646

   => Energetics <=

    Nuclear Repulsion Energy =             83.2026691080931471
    One-Electron Energy =                -345.3779882328946087
    Two-Electron Energy =                 127.9318689962749858
    DFT Exchange-Correlation Energy =       0.0000000000000000
    Empirical Dispersion Energy =           0.0000000000000000
    PCM Polarization Energy =               0.0000000000000000
    EFP Energy =                            0.0000000000000000
    Total Energy =                       -134.2434501285264901
    Molecular point group: c1
  Basis Set: 6-31G*
  Basis Set:

  -Total Gradient:
     Atom            X                  Y                   Z
    ------   -----------------  -----------------  -----------------
       1        0.000196913338    -0.000002320732    -0.001775132973
       2       -0.000026445852    -0.000253351780     0.001975061576
       3       -0.001021019342     0.001236728977     0.000727662275
       4        0.000001878669     0.000007138901     0.000005762627
       5       -0.000010948603     0.000000821538     0.000014765251
       6        0.000841953622    -0.001017432923    -0.000964302062
       7        0.000028415222     0.000002197549     0.000009809425
       8       -0.000014644606     0.000014504466     0.000015002591
       9        0.000012232667     0.000009760309     0.000001736026
      10       -0.000008335115     0.000001953696    -0.000010364736

  **** Optimization is complete! (in 5 steps) ****
    Final optimized geometry and variables:
    Molecular point group: c1

    Geometry (in Angstrom), charge = 0, multiplicity = 1:

    H           -0.970017311782    -1.259337454502    -0.013849911898
    N           -1.216489318980    -0.289801317951    -0.045826386295
    C           -0.034967802209     0.563693865392     0.080272683044
    H           -1.678942185691    -0.141273683848    -0.919673095788
    C            1.280605493498    -0.208355666531     0.023147363922
    H           -0.039816097269     1.304697357426    -0.713526866281
    H           -0.086647062320     1.108987234600     1.017805569600
    H            1.395219261108    -0.714627391350    -0.931370177802
    H            2.129119291518     0.455635696732     0.157337050851
    H            1.321818207895    -0.958431797841     0.808600512358

  Mulliken Charges: (a.u.)
   Center  Symbol    Alpha    Beta     Spin     Total
       1     H     0.33215  0.33215  0.00000  0.33570
       2     N     3.92759  3.92759  0.00000 -0.85518
       3     C     3.05229  3.05229  0.00000 -0.10458
       4     H     0.33204  0.33204  0.00000  0.33592
       5     C     3.25189  3.25189  0.00000 -0.50379
       6     H     0.42533  0.42533  0.00000  0.14933
       7     H     0.41847  0.41847  0.00000  0.16305
       8     H     0.42255  0.42255  0.00000  0.15489
       9     H     0.41838  0.41838  0.00000  0.16325
      10     H     0.41930  0.41930  0.00000  0.16141

   Total alpha = 13.00000, Total beta = 13.00000, Total charge = -0.00000
