                              Psi4 1.0.54 Driver

  ==> Input File <==

--------------------------------------------------------------------------
set {
	reference rhf
	basis cc-pvtz
}

set_num_threads( 4 )
memory 2 gb

molecule MOL {
0 1

H	 -2.149496	 -2.244167	 0.000000
O	 -2.454378	 -1.354528	 0.000000
C	 -1.430628	 -0.482077	 0.000000
C	 -1.730415	 0.855492	 0.213794
C	 -0.123287	 -0.871155	 -0.201737
H	 -2.752871	 1.137705	 0.368606
C	 -0.722486	 1.792392	 0.224252
H	 0.122761	 -1.902499	 -0.368287
C	 0.881814	 0.086560	 -0.188161
H	 -0.962758	 2.824407	 0.390233
C	 0.595441	 1.420202	 0.023572
C	 2.246875	 -0.329367	 -0.400102
H	 1.381823	 2.147196	 0.031199
N	 3.313205	 -0.658069	 -0.566171

	symmetry c1
}
set optking {
	frozen_dihedral = ("
		5 3 2 1
	")
}

ee,wfn = optimize('scf', return_wfn=True)
oeprop( wfn, 'DIPOLE', 'QUADRUPOLE', 'MULLIKEN_CHARGES')
f=open( 'psi4out.xyz', 'w' )
f.write( "14  " )
f.write( str(ee) + "\n" )
f.write( MOL.save_string_xyz() )
f.close()
--------------------------------------------------------------------------

    Molecular point group: c1
  Charge       = 0
  Multiplicity = 1
  Basis Set: CC-PVTZ
  Basis Set:
  @DF-RHF Final Energy:  -397.43283415411037
    Total Energy =                       -397.4328341541103100
    Molecular point group: c1
  Basis Set: CC-PVTZ
  Basis Set:
  Basis Set: CC-PVTZ
  Basis Set:
  @DF-RHF Final Energy:  -397.43283919110297
    Total Energy =                       -397.4328391911029712
  Basis Set: CC-PVTZ
  Basis Set:
  Charge       = 0
  Multiplicity = 1
  Basis Set: CC-PVTZ
  Basis Set:

    Orbital Energies (a.u.)
    -----------------------

    Doubly Occupied:

       1A    -20.606841     2A    -15.565772     3A    -11.324927
       4A    -11.293016     5A    -11.269221     6A    -11.261067
       7A    -11.260337     8A    -11.256034     9A    -11.251878
      10A     -1.439134    11A     -1.238730    12A     -1.187010
      13A     -1.067077    14A     -1.042592    15A     -0.899861
      16A     -0.871942    17A     -0.783081    18A     -0.731026
      19A     -0.702646    20A     -0.669050    21A     -0.629511
      22A     -0.622399    23A     -0.596205    24A     -0.566338
      25A     -0.553887    26A     -0.545675    27A     -0.529784
      28A     -0.479987    29A     -0.479568    30A     -0.368205
      31A     -0.342020

  @DF-RHF Final Energy:  -397.43285342962832

   => Energetics <=

    Nuclear Repulsion Energy =            380.5391384087960773
    One-Electron Energy =               -1293.0743412810516020
    Two-Electron Energy =                 515.1023494426273146
    DFT Exchange-Correlation Energy =       0.0000000000000000
    Empirical Dispersion Energy =           0.0000000000000000
    PCM Polarization Energy =               0.0000000000000000
    EFP Energy =                            0.0000000000000000
    Total Energy =                       -397.4328534296281532
    Molecular point group: c1
  Basis Set: CC-PVTZ
  Basis Set:

  -Total Gradient:
     Atom            X                  Y                   Z
    ------   -----------------  -----------------  -----------------
       1        0.000016108164    -0.000056941527     0.000912223211
       2       -0.000077337059     0.000119959677    -0.001516595339
       3        0.000220363937    -0.000265989393     0.001261660975
       4        0.000041527314     0.000131071491     0.000013340715
       5       -0.000195476228     0.000071704175    -0.000685745129
       6       -0.000003524045    -0.000008789677    -0.000002260415
       7       -0.000116980175    -0.000024841455     0.000026465066
       8        0.000009512086     0.000004046020    -0.000004061265
       9        0.000028498878     0.000117965585     0.000051243631
      10        0.000005179618     0.000003038314     0.000003539350
      11        0.000075395779    -0.000078828304    -0.000072969328
      12       -0.000012455530    -0.000028859611     0.000019245066
      13       -0.000002601004     0.000004186362     0.000005832297
      14        0.000011788256     0.000012278341    -0.000011918834

  **** Optimization is complete! (in 3 steps) ****
    Final optimized geometry and variables:
    Molecular point group: c1

    Geometry (in Angstrom), charge = 0, multiplicity = 1:

    H           -2.144011152508    -2.250706242380     0.083205082565
    O           -2.448864668891    -1.361009082858     0.093818843101
    C           -1.424466627864    -0.488999948968     0.103443509706
    C           -1.724589663063     0.849000081151     0.312384850182
    C           -0.117705312461    -0.877492426583    -0.103753732981
    H           -2.746843657480     1.131342988790     0.468476096377
    C           -0.717173596028     1.786761930621     0.316807460779
    H            0.127216690807    -1.908409060134    -0.274491380432
    C            0.887241363931     0.080001788877    -0.091188533844
    H           -0.957701304124     2.819226056756     0.479597206143
    C            0.600513062408     1.414317392551     0.116818874815
    C            2.252117931645    -0.335859554269    -0.304092401255
    H            1.386706260581     2.141587662931     0.122021346538
    N            3.318320476012    -0.664975033168    -0.470707343717

  Mulliken Charges: (a.u.)
   Center  Symbol    Alpha    Beta     Spin     Total
       1     H     0.38472  0.38472  0.00000  0.23057
       2     O     4.16903  4.16903  0.00000 -0.33806
       3     C     2.84188  2.84188  0.00000  0.31624
       4     C     3.10626  3.10626  0.00000 -0.21253
       5     C     3.14547  3.14547  0.00000 -0.29094
       6     H     0.41393  0.41393  0.00000  0.17213
       7     C     3.05032  3.05032  0.00000 -0.10064
       8     H     0.42278  0.42278  0.00000  0.15445
       9     C     2.92890  2.92890  0.00000  0.14221
      10     H     0.41675  0.41675  0.00000  0.16650
      11     C     3.10524  3.10524  0.00000 -0.21047
      12     C     3.02569  3.02569  0.00000 -0.05137
      13     H     0.41437  0.41437  0.00000  0.17127
      14     N     3.57467  3.57467  0.00000 -0.14935

   Total alpha = 31.00000, Total beta = 31.00000, Total charge =  0.00000

*** Psi4 exiting successfully. Buy a developer a beer!
