  ==> Input File <==

--------------------------------------------------------------------------
set {
	reference rhf
	basis 6-31G*
}

set_num_threads( 4 )
memory 2 gb

molecule MOL {
0 1

H	 -1.748661	 -2.220942	 -0.005015
C	 -1.343207	 -1.225221	 -0.013879
N	 -0.055091	 -1.100174	 -0.261126
C	 -2.150779	 -0.125890	 0.222726
C	 0.449969	 0.122615	 -0.277109
H	 -3.200618	 -0.238980	 0.422496
N	 -1.660212	 1.097703	 0.209594
C	 -0.371804	 1.219904	 -0.038265
C	 1.928147	 0.267347	 -0.541394
H	 0.029131	 2.217482	 -0.051283
C	 2.378927	 1.731769	 -0.558075
H	 2.466591	 -0.267071	 0.234065
H	 2.174874	 -0.204975	 -1.487022
H	 3.449576	 1.798822	 -0.723038
H	 2.149438	 2.211336	 0.386292
H	 1.881762	 2.285095	 -1.348624

	symmetry c1
}
set optking {
	frozen_dihedral = ("
		12 9 5 3
	")
}

ee = optimize('scf')
oeprop('DIPOLE', 'QUADRUPOLE', 'MULLIKEN_CHARGES')
f=open( 'psi4out.xyz', 'w' )
f.write( "16  " )
f.write( str(ee) + "\n" )
f.write( MOL.save_string_xyz() )
f.close()
--------------------------------------------------------------------------

    Molecular point group: c1
  Charge       = 0
  Multiplicity = 1
  Basis Set: 6-31G*
  Basis Set:
  @DF-RHF Final Energy:  -340.75456044413068
    Total Energy =                       -340.7545604441311866
    Molecular point group: c1
  Basis Set: 6-31G*
  Basis Set:
  Basis Set: 6-31G*
  Basis Set:
  @DF-RHF Final Energy:  -340.75561860115437
    Total Energy =                       -340.7556186011546515
  Basis Set: 6-31G*
  Basis Set:
  Basis Set: 6-31G*
  Basis Set:
  @DF-RHF Final Energy:  -340.75624589442577
    Total Energy =                       -340.7562458944258310
  Basis Set: 6-31G*
  Basis Set:
  Basis Set: 6-31G*
  Basis Set:
  @DF-RHF Final Energy:  -340.75623336368352
    Total Energy =                       -340.7562333636835206
  Basis Set: 6-31G*
  Basis Set:
  Basis Set: 6-31G*
  Basis Set:
  @DF-RHF Final Energy:  -340.75627123261745
    Total Energy =                       -340.7562712326172800
  Basis Set: 6-31G*
  Basis Set:
  Basis Set: 6-31G*
  Basis Set:
  @DF-RHF Final Energy:  -340.75629304769285
    Total Energy =                       -340.7562930476925089
  Basis Set: 6-31G*
  Basis Set:
  Basis Set: 6-31G*
  Basis Set:
  @DF-RHF Final Energy:  -340.75629406847031
    Total Energy =                       -340.7562940684702539
  Basis Set: 6-31G*
  Basis Set:
  Charge       = 0
  Multiplicity = 1
  Basis Set: 6-31G*
  Basis Set:

    Orbital Energies (a.u.)
    -----------------------

    Doubly Occupied:

       1A    -15.585799     2A    -15.580780     3A    -11.281970
       4A    -11.275971     5A    -11.271307     6A    -11.270296
       7A    -11.233609     8A    -11.223463     9A     -1.312395
      10A     -1.220653    11A     -1.085576    12A     -1.015070
      13A     -0.908679    14A     -0.891350    15A     -0.829821
      16A     -0.714588    17A     -0.707015    18A     -0.651736
      19A     -0.631000    20A     -0.610895    21A     -0.567555
      22A     -0.563640    23A     -0.518388    24A     -0.512048
      25A     -0.507611    26A     -0.483410    27A     -0.426516
      28A     -0.394030    29A     -0.344750

  @DF-RHF Final Energy:  -340.75629456812862

   => Energetics <=

    Nuclear Repulsion Energy =            349.2251557421493544
    One-Electron Energy =               -1152.7230680006741750
    Two-Electron Energy =                 462.7416176903961968
    DFT Exchange-Correlation Energy =       0.0000000000000000
    Empirical Dispersion Energy =           0.0000000000000000
    PCM Polarization Energy =               0.0000000000000000
    EFP Energy =                            0.0000000000000000
    Total Energy =                       -340.7562945681286237
    Molecular point group: c1
  Basis Set: 6-31G*
  Basis Set:

  -Total Gradient:
     Atom            X                  Y                   Z
    ------   -----------------  -----------------  -----------------
       1        0.000008232424    -0.000000139734    -0.000000830360
       2       -0.000143566680     0.000050923428     0.000011979675
       3        0.000112065430     0.000113877623    -0.000098667322
       4        0.000016004283    -0.000162502677     0.000011520676
       5        0.000032982750    -0.000158733356     0.000141173917
       6       -0.000000908454     0.000006084677    -0.000010526875
       7        0.000127164422     0.000092711635    -0.000015318462
       8       -0.000135643897     0.000059539531     0.000014359689
       9        0.000003167133    -0.000057889422    -0.000100953390
      10        0.000007830513     0.000003924080    -0.000004862012
      11       -0.000015597437    -0.000008534057    -0.000004824386
      12       -0.000005725463     0.000064828851     0.000052277634
      13       -0.000007525391    -0.000004460045     0.000003143171
      14       -0.000003440079    -0.000010613062     0.000002096157
      15        0.000002738494     0.000005203722     0.000003804502
      16        0.000002221951     0.000005778803    -0.000004372613

  **** Optimization is complete! (in 8 steps) ****
    Final optimized geometry and variables:
    Molecular point group: c1

    Geometry (in Angstrom), charge = 0, multiplicity = 1:

    H           -1.644167220568    -2.521968526468     0.119979362031
    C           -1.268073378179    -1.514584546575     0.129223989586
    N            0.016225352671    -1.348425745920    -0.100012997256
    C           -2.110069137053    -0.441389194994     0.372984209580
    C            0.492336886357    -0.111450277286    -0.091625221815
    H           -3.158677968381    -0.586083072681     0.559060277951
    N           -1.652278900098     0.792268843114     0.383625574953
    C           -0.362645861002     0.957484056725     0.153371261106
    C            1.975554097592     0.028557081224    -0.355851839288
    H           -0.002732073042     1.968155957835     0.164160495432
    C            2.519446067145     1.454001178423    -0.425056121911
    H            2.498493150036    -0.524296742866     0.419128376266
    H            2.188814300582    -0.491001481093    -1.284708685817
    H            3.583443617977     1.431431812210    -0.633385408794
    H            2.381384980678     1.985463783439     0.511132858477
    H            2.042900740967     2.029034848441    -1.212748961598

  Mulliken Charges: (a.u.)
   Center  Symbol    Alpha    Beta     Spin     Total
       1     H     0.39392  0.39392  0.00000  0.21217
       2     C     2.98926  2.98926  0.00000  0.02149
       3     N     3.75360  3.75360  0.00000 -0.50719
       4     C     2.99808  2.99808  0.00000  0.00384
       5     C     2.88292  2.88292  0.00000  0.23416
       6     H     0.39451  0.39451  0.00000  0.21097
       7     N     3.73130  3.73130  0.00000 -0.46260
       8     C     2.99910  2.99910  0.00000  0.00180
       9     C     3.15838  3.15838  0.00000 -0.31675
      10     H     0.39259  0.39259  0.00000  0.21482
      11     C     3.25369  3.25369  0.00000 -0.50738
      12     H     0.40445  0.40445  0.00000  0.19110
      13     H     0.40392  0.40392  0.00000  0.19216
      14     H     0.41161  0.41161  0.00000  0.17677
      15     H     0.41664  0.41664  0.00000  0.16672
      16     H     0.41604  0.41604  0.00000  0.16793

   Total alpha = 29.00000, Total beta = 29.00000, Total charge =  0.00000
