  ==> Input File <==

--------------------------------------------------------------------------
set {
	reference rhf
	basis cc-pvtz
}

set_num_threads( 4 )
memory 2 gb

molecule MOL {
0 1

H	 2.614283	 2.028610	 0.296620
O	 3.358864	 1.662087	 -0.142800
C	 3.565468	 0.338079	 0.273842
C	 2.533667	 -0.637565	 -0.272227
H	 4.548038	 0.064914	 -0.086598
H	 3.593945	 0.282242	 1.360360
C	 1.114816	 -0.402372	 0.240993
H	 2.544552	 -0.580764	 -1.356576
H	 2.850574	 -1.642962	 -0.005497
C	 0.113298	 -1.420414	 -0.302504
H	 0.796373	 0.598427	 -0.031033
H	 1.113377	 -0.446476	 1.328807
C	 -0.944087	 -0.845979	 -1.247076
H	 0.653115	 -2.216352	 -0.809758
H	 -0.393998	 -1.887412	 0.537159
C	 -0.408529	 -0.336731	 -2.584082
H	 -1.682359	 -1.618793	 -1.442629
H	 -1.476144	 -0.042131	 -0.743193
C	 -1.511261	 0.133764	 -3.529084
H	 0.161479	 -1.128108	 -3.066037
H	 0.285600	 0.482186	 -2.421100
C	 -0.979753	 0.646354	 -4.863491
H	 -2.203591	 -0.684322	 -3.707949
H	 -2.087012	 0.918603	 -3.045762
H	 -0.425851	 -0.126011	 -5.386830
H	 -1.787417	 0.969333	 -5.510384
H	 -0.312790	 1.490348	 -4.721411

	symmetry c1
}
set optking {
	frozen_dihedral = ("
		14 10 7 4
	")
}

ee = optimize('scf')
oeprop('DIPOLE', 'QUADRUPOLE', 'MULLIKEN_CHARGES')
f=open( 'psi4out.xyz', 'w' )
f.write( "27  " )
f.write( str(ee) + "\n" )
f.write( MOL.save_string_xyz() )
f.close()
--------------------------------------------------------------------------

    Molecular point group: c1
  Charge       = 0
  Multiplicity = 1
  Basis Set: CC-PVTZ
  Basis Set:
  @DF-RHF Final Energy:  -388.42245061403003
    Total Energy =                       -388.4224506140299127
    Molecular point group: c1
  Basis Set: CC-PVTZ
  Basis Set:
  Basis Set: CC-PVTZ
  Basis Set:
  @DF-RHF Final Energy:  -388.42278011381330
    Total Energy =                       -388.4227801138129053
  Basis Set: CC-PVTZ
  Basis Set:
  Basis Set: CC-PVTZ
  Basis Set:
  @DF-RHF Final Energy:  -388.42285084522547
    Total Energy =                       -388.4228508452249571
  Basis Set: CC-PVTZ
  Basis Set:
  Basis Set: CC-PVTZ
  Basis Set:
  @DF-RHF Final Energy:  -388.42284310359645
    Total Energy =                       -388.4228431035961648
  Basis Set: CC-PVTZ
  Basis Set:
  Basis Set: CC-PVTZ
  Basis Set:
  @DF-RHF Final Energy:  -388.42286373958586
    Total Energy =                       -388.4228637395854093
  Basis Set: CC-PVTZ
  Basis Set:
  Charge       = 0
  Multiplicity = 1
  Basis Set: CC-PVTZ
  Basis Set:

    Orbital Energies (a.u.)
    -----------------------

    Doubly Occupied:

       1A    -20.545700     2A    -11.264903     3A    -11.217038
       4A    -11.214181     5A    -11.213295     6A    -11.212266
       7A    -11.212001     8A    -11.209713     9A    -11.204951
      10A     -1.363425    11A     -1.094487    12A     -1.059879
      13A     -1.011219    14A     -0.948023    15A     -0.888347
      16A     -0.822977    17A     -0.796464    18A     -0.778905
      19A     -0.697402    20A     -0.647836    21A     -0.633870
      22A     -0.617435    23A     -0.610344    24A     -0.583454
      25A     -0.572366    26A     -0.552783    27A     -0.544554
      28A     -0.523312    29A     -0.506056    30A     -0.501943
      31A     -0.481643    32A     -0.472033    33A     -0.467878
      34A     -0.459050    35A     -0.453612    36A     -0.438289
      37A     -0.425032

  @DF-RHF Final Energy:  -388.42286385039961

   => Energetics <=

    Nuclear Repulsion Energy =            469.6931807050145835
    One-Electron Energy =               -1457.7387559053329369
    Two-Electron Energy =                 599.6227113499184043
    DFT Exchange-Correlation Energy =       0.0000000000000000
    Empirical Dispersion Energy =           0.0000000000000000
    PCM Polarization Energy =               0.0000000000000000
    EFP Energy =                            0.0000000000000000
    Total Energy =                       -388.4228638503999491
    Molecular point group: c1
  Basis Set: CC-PVTZ
  Basis Set:

  -Total Gradient:
     Atom            X                  Y                   Z
    ------   -----------------  -----------------  -----------------
       1        0.000004792592    -0.000012073309    -0.000000203390
       2        0.000031530945    -0.000013218112    -0.000013918418
       3       -0.000024344571     0.000024708688     0.000032371904
       4        0.000120155343    -0.000361926528     0.000498707940
       5        0.000000182033     0.000018043590    -0.000004355007
       6        0.000008056476    -0.000007770791     0.000005107423
       7       -0.000174972160     0.000626588947    -0.000880833044
       8       -0.000013861146    -0.000002047319    -0.000004401761
       9       -0.000005125043     0.000000207116    -0.000001593581
      10        0.000107955202    -0.000680668974     0.001122652548
      11        0.000011464379    -0.000005774047    -0.000010778033
      12        0.000005265072     0.000002418900     0.000006178784
      13       -0.000003234297    -0.000041533396    -0.000010707972
      14       -0.000063053981     0.000441326887    -0.000751572445
      15       -0.000010207701    -0.000002173448    -0.000002897447
      16       -0.000003394302     0.000007910514    -0.000003259783
      17       -0.000012510711    -0.000003369088    -0.000000397217
      18        0.000015496964    -0.000005958444     0.000002256802
      19       -0.000000485755     0.000019691008     0.000013546466
      20        0.000006165685     0.000001142304     0.000002928026
      21        0.000000691380     0.000008830562     0.000003644712
      22       -0.000000506590    -0.000018047764    -0.000004960672
      23       -0.000000021060     0.000003952979     0.000001766758
      24        0.000000786071     0.000003584798     0.000001977027
      25        0.000006325764     0.000001637126    -0.000003769531
      26       -0.000000979940    -0.000005686279    -0.000001396808
      27       -0.000006170644     0.000000204080     0.000003906716

  **** Optimization is complete! (in 6 steps) ****
    Final optimized geometry and variables:
    Molecular point group: c1

    Geometry (in Angstrom), charge = 0, multiplicity = 1:

    H            1.767079729706     2.106219343560     1.610754125803
    O            2.514424246755     1.741237927055     1.175127022109
    C            2.749543560483     0.433271719663     1.627056302487
    C            1.741300485437    -0.577811463496     1.103052254502
    H            3.739095580034     0.172975572776     1.276261120981
    H            2.776018191030     0.406619034808     2.714704273823
    C            0.316944129249    -0.365090505924     1.614449463068
    H            1.753984339242    -0.548292938941     0.018210434259
    H            2.078064800245    -1.569624271452     1.394603175979
    C           -0.700596537589    -1.396765369602     1.081911558340
    H           -0.018209617351     0.633857311980     1.354121350410
    H            0.333830346926    -0.402922860861     2.699975181448
    C           -1.755848384463    -0.825723365789     0.131566516300
    H           -0.172514225519    -2.197481043431     0.572123923850
    H           -1.212979457021    -1.859424587898     1.917851059248
    C           -1.206420557787    -0.321482478773    -1.201112109378
    H           -2.496611936613    -1.595827791193    -0.066100955120
    H           -2.285891999708    -0.018316327082     0.631769613303
    C           -2.288954212630     0.226871107061    -2.127037977739
    H           -0.686496315742    -1.134955874834    -1.702243937218
    H           -0.464107350703     0.452699090604    -1.029809973457
    C           -1.742702743994     0.717922814149    -3.463553002188
    H           -3.034306287111    -0.543795056074    -2.304038477587
    H           -2.807346847331     1.041917929322    -1.629114067752
    H           -1.248165753773    -0.083558347863    -4.002311314012
    H           -2.535915895040     1.100370657961    -4.095749037671
    H           -1.019414465418     1.514040808975    -3.322063548300

  Mulliken Charges: (a.u.)
   Center  Symbol    Alpha    Beta     Spin     Total
       1     H     0.39254  0.39254  0.00000  0.21492
       2     O     4.20577  4.20577  0.00000 -0.41153
       3     C     2.98080  2.98080  0.00000  0.03840
       4     C     3.08861  3.08861  0.00000 -0.17721
       5     H     0.44820  0.44820  0.00000  0.10360
       6     H     0.46912  0.46912  0.00000  0.06176
       7     C     3.11891  3.11891  0.00000 -0.23782
       8     H     0.44867  0.44867  0.00000  0.10266
       9     H     0.45375  0.45375  0.00000  0.09251
      10     C     3.10418  3.10418  0.00000 -0.20837
      11     H     0.45539  0.45539  0.00000  0.08922
      12     H     0.44322  0.44322  0.00000  0.11357
      13     C     3.09490  3.09490  0.00000 -0.18981
      14     H     0.45336  0.45336  0.00000  0.09329
      15     H     0.44200  0.44200  0.00000  0.11600
      16     C     3.09322  3.09322  0.00000 -0.18645
      17     H     0.44847  0.44847  0.00000  0.10306
      18     H     0.45468  0.45468  0.00000  0.09063
      19     C     3.08313  3.08313  0.00000 -0.16626
      20     H     0.45385  0.45385  0.00000  0.09230
      21     H     0.44969  0.44969  0.00000  0.10063
      22     C     3.15005  3.15005  0.00000 -0.30009
      23     H     0.45438  0.45438  0.00000  0.09125
      24     H     0.45514  0.45514  0.00000  0.08973
      25     H     0.45529  0.45529  0.00000  0.08942
      26     H     0.44869  0.44869  0.00000  0.10261
      27     H     0.45401  0.45401  0.00000  0.09199

   Total alpha = 37.00000, Total beta = 37.00000, Total charge =  0.00000
