  ==> Input File <==

--------------------------------------------------------------------------
set {
	reference rhf
	basis 6-31G*
}

set_num_threads( 4 )
memory 2 gb

molecule MOL {
0 1

H	 -3.301617	 0.570527	 0.000000
C	 -2.250981	 0.344174	 0.000000
C	 -1.813665	 -0.976045	 0.000000
C	 -1.315303	 1.358057	 0.000000
H	 -2.528860	 -1.779366	 0.000000
C	 -0.467298	 -1.270142	 0.000000
H	 -1.635074	 2.385107	 0.000000
C	 0.047081	 1.078114	 0.000000
H	 -0.115948	 -2.285222	 0.000000
C	 0.472063	 -0.241155	 0.000000
H	 0.749976	 1.888426	 0.000000
O	 1.765256	 -0.628444	 0.000000
C	 2.163435	 -1.718308	 -0.780207
H	 1.656088	 -2.628941	 -0.479078
H	 3.224586	 -1.834293	 -0.617986
H	 1.982488	 -1.539064	 -1.834940

	symmetry c1
}
set optking {
	frozen_dihedral = ("
		13 12 10 8
	")
}

ee = optimize('scf')
oeprop('DIPOLE', 'QUADRUPOLE', 'MULLIKEN_CHARGES')
f=open( 'psi4out.xyz', 'w' )
f.write( "16  " )
f.write( str(ee) + "\n" )
f.write( MOL.save_string_xyz() )
f.close()
--------------------------------------------------------------------------

    Molecular point group: c1
  Charge       = 0
  Multiplicity = 1
  Basis Set: 6-31G*
  Basis Set:
  @DF-RHF Final Energy:  -344.57378891477464
    Total Energy =                       -344.5737889147748092
    Molecular point group: c1
  Basis Set: 6-31G*
  Basis Set:
  Basis Set: 6-31G*
  Basis Set:
  @DF-RHF Final Energy:  -344.57808657814428
    Total Energy =                       -344.5780865781441662
  Basis Set: 6-31G*
  Basis Set:
  Basis Set: 6-31G*
  Basis Set:
  @DF-RHF Final Energy:  -344.58049393760126
    Total Energy =                       -344.5804939376010338
  Basis Set: 6-31G*
  Basis Set:
  Basis Set: 6-31G*
  Basis Set:
  @DF-RHF Final Energy:  -344.58084341989945
    Total Energy =                       -344.5808434198994519
  Basis Set: 6-31G*
  Basis Set:
  Basis Set: 6-31G*
  Basis Set:
  @DF-RHF Final Energy:  -344.58087015849156
    Total Energy =                       -344.5808701584918481
  Basis Set: 6-31G*
  Basis Set:
  Charge       = 0
  Multiplicity = 1
  Basis Set: 6-31G*
  Basis Set:

    Orbital Energies (a.u.)
    -----------------------

    Doubly Occupied:

       1A    -20.578224     2A    -11.290384     3A    -11.277952
       4A    -11.233402     5A    -11.231943     6A    -11.225202
       7A    -11.222265     8A    -11.220958     9A     -1.406826
      10A     -1.146563    11A     -1.019604    12A     -1.013548
      13A     -0.938008    14A     -0.832019    15A     -0.805384
      16A     -0.717655    17A     -0.665299    18A     -0.661558
      19A     -0.647895    20A     -0.614876    21A     -0.590111
      22A     -0.580307    23A     -0.527976    24A     -0.512745
      25A     -0.505929    26A     -0.480617    27A     -0.449333
      28A     -0.334775    29A     -0.310889

  @DF-RHF Final Energy:  -344.58087426589850

   => Energetics <=

    Nuclear Repulsion Energy =            347.9868226693438373
    One-Electron Energy =               -1157.0508954590245594
    Two-Electron Energy =                 464.4831985237822209
    DFT Exchange-Correlation Energy =       0.0000000000000000
    Empirical Dispersion Energy =           0.0000000000000000
    PCM Polarization Energy =               0.0000000000000000
    EFP Energy =                            0.0000000000000000
    Total Energy =                       -344.5808742658985011
    Molecular point group: c1
  Basis Set: 6-31G*
  Basis Set:

  -Total Gradient:
     Atom            X                  Y                   Z
    ------   -----------------  -----------------  -----------------
       1       -0.000010069842    -0.000034878075     0.000006072413
       2        0.000094452851     0.000294182535     0.000064087301
       3        0.000205016610    -0.000220307330    -0.000084947392
       4       -0.000243779372    -0.000085410676    -0.000059323365
       5       -0.000017058499     0.000009223436     0.000008795995
       6       -0.000232460543    -0.000081984322     0.000013825042
       7        0.000040594720     0.000005448561     0.000005576126
       8        0.000188222622    -0.000208976106    -0.001548490574
       9        0.000017481338    -0.000021291420     0.000001687739
      10        0.000031098711     0.000840263489     0.001751547082
      11        0.000004464772     0.000021439076     0.000011724592
      12       -0.000295051984    -0.001558676104     0.001044035292
      13        0.000207960245     0.001085436132    -0.001278488139
      14       -0.000048815866    -0.000006770467     0.000075754590
      15        0.000032350897    -0.000009425443    -0.000013940311
      16        0.000025593324    -0.000028273285     0.000002083611

  **** Optimization is complete! (in 6 steps) ****
    Final optimized geometry and variables:
    Molecular point group: c1

    Geometry (in Angstrom), charge = 0, multiplicity = 1:

    H           -3.199626727031     0.962597112665     0.102477675386
    C           -2.160569111583     0.687358181983     0.104837525460
    C           -1.789988113743    -0.645520841507     0.091148771884
    C           -1.175122885433     1.663895770440     0.120240383420
    H           -2.543460320194    -1.413061036935     0.080862587870
    C           -0.451710659767    -1.010505360229     0.096230915617
    H           -1.448160408311     2.704187667232     0.127025720830
    C            0.161878083860     1.312509305057     0.116986916643
    H           -0.180457269260    -2.049618942033     0.097236370181
    C            0.526379367620    -0.027130281172     0.112317604523
    H            0.935820371993     2.057423993768     0.123665047283
    O            1.853573121092    -0.303451478514     0.137737050264
    C            2.334348580537    -1.356534592479    -0.653830667011
    H            2.109625616795    -2.323157352006    -0.216192299525
    H            3.407312225886    -1.239478268479    -0.701750103492
    H            1.920780178668    -1.313618559335    -1.655613788602

  Mulliken Charges: (a.u.)
   Center  Symbol    Alpha    Beta     Spin     Total
       1     H     0.40066  0.40066  0.00000  0.19868
       2     C     3.10946  3.10946  0.00000 -0.21892
       3     C     3.09349  3.09349  0.00000 -0.18698
       4     C     3.09396  3.09396  0.00000 -0.18792
       5     H     0.39911  0.39911  0.00000  0.20177
       6     C     3.13389  3.13389  0.00000 -0.26777
       7     H     0.39857  0.39857  0.00000  0.20286
       8     C     3.12407  3.12407  0.00000 -0.24815
       9     H     0.39724  0.39724  0.00000  0.20551
      10     C     2.78949  2.78949  0.00000  0.42101
      11     H     0.39306  0.39306  0.00000  0.21389
      12     O     4.32986  4.32986  0.00000 -0.65972
      13     C     3.08775  3.08775  0.00000 -0.17549
      14     H     0.42249  0.42249  0.00000  0.15503
      15     H     0.40747  0.40747  0.00000  0.18506
      16     H     0.41943  0.41943  0.00000  0.16114

   Total alpha = 29.00000, Total beta = 29.00000, Total charge =  0.00000
