  ==> Input File <==

--------------------------------------------------------------------------
set {
	reference rhf
	basis 6-31G*
}

set_num_threads( 4 )
memory 2 gb

molecule MOL {
0 1

O	 3.536002	 -2.861629	 1.557609
C	 2.866560	 -1.990230	 1.104208
C	 1.388571	 -1.799585	 1.345027
O	 3.347903	 -1.046386	 0.304773
C	 0.790445	 -2.856390	 2.271052
H	 1.256490	 -0.795605	 1.734605
H	 0.899375	 -1.808048	 0.374299
C	 -0.727952	 -2.739080	 2.441942
H	 1.275272	 -2.799100	 3.240990
H	 1.028539	 -3.837681	 1.875069
C	 -1.200211	 -1.474555	 3.165169
H	 -1.072188	 -3.607110	 2.999391
H	 -1.208206	 -2.797693	 1.466272
C	 -2.710752	 -1.457065	 3.407984
H	 -0.681772	 -1.393509	 4.119356
H	 -0.926432	 -0.591177	 2.592752
C	 -3.194762	 -0.195661	 4.125428
H	 -2.991357	 -2.331797	 3.992226
H	 -3.229727	 -1.548880	 2.455129
C	 -4.703751	 -0.187806	 4.367481
H	 -2.676423	 -0.101833	 5.077355
H	 -2.919030	 0.679533	 3.540802
H	 -5.016073	 0.718392	 4.877251
H	 -5.007020	 -1.032662	 4.979397
H	 -5.251386	 -0.245900	 3.431001
C	 4.728119	 -1.109107	 -0.004993
H	 4.882018	 -1.033965	 -1.071845
H	 5.068212	 -2.067527	 0.355250
H	 5.265056	 -0.311663	 0.488280

	symmetry c1
}
set optking {
	frozen_dihedral = ("
		2 4 26 27
	")
}

ee = optimize('scf')
oeprop('DIPOLE', 'QUADRUPOLE', 'MULLIKEN_CHARGES')
f=open( 'psi4out.xyz', 'w' )
f.write( "29  " )
f.write( str(ee) + "\n" )
f.write( MOL.save_string_xyz() )
f.close()
--------------------------------------------------------------------------

    Molecular point group: c1
  Charge       = 0
  Multiplicity = 1
  Basis Set: 6-31G*
  Basis Set:
  @DF-RHF Final Energy:  -501.04001116040502
    Total Energy =                       -501.0400111604047879
    Molecular point group: c1
  Basis Set: 6-31G*
  Basis Set:
  Basis Set: 6-31G*
  Basis Set:
  @DF-RHF Final Energy:  -501.04105156773971
    Total Energy =                       -501.0410515677392596
  Basis Set: 6-31G*
  Basis Set:
  Basis Set: 6-31G*
  Basis Set:
  @DF-RHF Final Energy:  -501.04202705358500
    Total Energy =                       -501.0420270535844338
  Basis Set: 6-31G*
  Basis Set:
  Basis Set: 6-31G*
  Basis Set:
  @DF-RHF Final Energy:  -501.04178250941004
    Total Energy =                       -501.0417825094102682
  Basis Set: 6-31G*
  Basis Set:
  Basis Set: 6-31G*
  Basis Set:
  @DF-RHF Final Energy:  -501.04207330720033
    Total Energy =                       -501.0420733072005532
  Basis Set: 6-31G*
  Basis Set:
  Basis Set: 6-31G*
  Basis Set:
  @DF-RHF Final Energy:  -501.04207657314441
    Total Energy =                       -501.0420765731446409
  Basis Set: 6-31G*
  Basis Set:
  Charge       = 0
  Multiplicity = 1
  Basis Set: 6-31G*
  Basis Set:

    Orbital Energies (a.u.)
    -----------------------

    Doubly Occupied:

       1A    -20.602275     2A    -20.544473     3A    -11.373439
       4A    -11.279171     5A    -11.234098     6A    -11.218548
       7A    -11.217287     8A    -11.215756     9A    -11.215641
      10A    -11.214245    11A    -11.208934    12A     -1.466243
      13A     -1.362998    14A     -1.097677    15A     -1.066504
      16A     -1.019560    17A     -0.977799    18A     -0.928407
      19A     -0.861223    20A     -0.798918    21A     -0.790162
      22A     -0.762887    23A     -0.701596    24A     -0.680139
      25A     -0.672083    26A     -0.650666    27A     -0.628826
      28A     -0.604921    29A     -0.594722    30A     -0.580490
      31A     -0.568482    32A     -0.550056    33A     -0.533808
      34A     -0.527202    35A     -0.514447    36A     -0.511672
      37A     -0.496163    38A     -0.477536    39A     -0.469899
      40A     -0.462096    41A     -0.458301    42A     -0.452449
      43A     -0.440836    44A     -0.435378

  @DF-RHF Final Energy:  -501.04207604650992

   => Energetics <=

    Nuclear Repulsion Energy =            609.6381592472748707
    One-Electron Energy =               -1890.4244528658068702
    Two-Electron Energy =                 779.7442175720223076
    DFT Exchange-Correlation Energy =       0.0000000000000000
    Empirical Dispersion Energy =           0.0000000000000000
    PCM Polarization Energy =               0.0000000000000000
    EFP Energy =                            0.0000000000000000
    Total Energy =                       -501.0420760465096919
    Molecular point group: c1
  Basis Set: 6-31G*
  Basis Set:

  -Total Gradient:
     Atom            X                  Y                   Z
    ------   -----------------  -----------------  -----------------
       1        0.000015133912     0.000025498019    -0.000030567197
       2       -0.000157717285    -0.000355473482    -0.000439764183
       3        0.000002727892    -0.000015554946    -0.000022770481
       4        0.000210661793     0.000338867956     0.000690702413
       5       -0.000001541135     0.000024201217     0.000038486888
       6        0.000025525203    -0.000026506401    -0.000011835209
       7       -0.000018172608     0.000009423806    -0.000005374187
       8        0.000003436248     0.000023005887    -0.000030405128
       9        0.000002434303     0.000020390263    -0.000002275013
      10       -0.000006213382    -0.000010430023     0.000017539534
      11       -0.000015678686    -0.000004345817     0.000001563883
      12        0.000000202465    -0.000010529866    -0.000017335564
      13        0.000009806273     0.000023442473    -0.000010114916
      14        0.000003555241    -0.000010963780     0.000014708396
      15        0.000011610481     0.000007833604     0.000002695784
      16       -0.000038644020    -0.000017664275     0.000012488943
      17        0.000000683120    -0.000002935583     0.000005003039
      18       -0.000004786632    -0.000001776392     0.000000020039
      19        0.000004491394     0.000001677938     0.000001400789
      20       -0.000000163758     0.000000578840    -0.000000753365
      21       -0.000000821193     0.000000459190     0.000000684152
      22        0.000000825976    -0.000000369773    -0.000000488833
      23       -0.000000131307     0.000000293591    -0.000000472564
      24        0.000000431838     0.000000295781     0.000000000132
      25       -0.000000325664    -0.000000281854    -0.000000079541
      26       -0.000026351464     0.000635910131    -0.000140804282
      27       -0.000030853735    -0.000670158592    -0.000070351711
      28        0.000021758081     0.000008685972    -0.000008814825
      29       -0.000011883354     0.000006426114     0.000006913012

  **** Optimization is complete! (in 7 steps) ****
    Final optimized geometry and variables:
    Molecular point group: c1

    Geometry (in Angstrom), charge = 0, multiplicity = 1:

    O            3.114641594745    -1.289634992314    -0.587717909676
    C            2.460803653454    -0.410762282144    -1.048505473298
    C            0.982216704922    -0.208880040987    -0.817907161614
    O            2.943906903680     0.536282034261    -1.845185244426
    C            0.368281637182    -1.261586370185     0.102276880890
    H            0.855810536978     0.795666077366    -0.428029907207
    H            0.500142106228    -0.211744653609    -1.792170512559
    C           -1.150413625508    -1.131828031911     0.261373928815
    H            0.845940864114    -1.209454791464     1.076033272073
    H            0.601131331835    -2.244423469505    -0.292939170230
    C           -1.617582354415     0.131688908915     0.989688097898
    H           -1.506969649663    -2.000610076233     0.809854159196
    H           -1.623102786948    -1.179349735211    -0.718596992727
    C           -3.129354398633     0.158871275195     1.223831037965
    H           -1.104184132273     0.202968496985     1.947372584750
    H           -1.333952798967     1.016540319341     0.424423050063
    C           -3.608275907949     1.419364322541     1.946262995487
    H           -3.419841754614    -0.717347734624     1.800973237443
    H           -3.643387465703     0.076784407305     0.267416801105
    C           -5.118663142031     1.437246389332     2.178917658584
    H           -3.095250454780     1.503213595599     2.901990376422
    H           -3.322213086982     2.296102439678     1.368960241968
    H           -5.427310872099     2.342658585019     2.692324147078
    H           -5.432183723093     0.590982271280     2.783678575825
    H           -5.660810997630     1.389076258583     1.238687768728
    C            4.316824335055     0.515629541283    -2.197679478515
    H            4.375388157488     0.614129186903    -3.272101020093
    H            4.780787064427    -0.403494685392    -1.881686215997
    H            4.805147519680     1.358174579517    -1.727543644552

  Mulliken Charges: (a.u.)
   Center  Symbol    Alpha    Beta     Spin     Total
       1     O     4.28537  4.28537  0.00000 -0.57074
       2     C     2.60451  2.60451  0.00000  0.79098
       3     C     3.21016  3.21016  0.00000 -0.42032
       4     O     4.30961  4.30961  0.00000 -0.61922
       5     C     3.15378  3.15378  0.00000 -0.30755
       6     H     0.39886  0.39886  0.00000  0.20228
       7     H     0.40143  0.40143  0.00000  0.19715
       8     C     3.15661  3.15661  0.00000 -0.31323
       9     H     0.41314  0.41314  0.00000  0.17372
      10     H     0.40886  0.40886  0.00000  0.18228
      11     C     3.15498  3.15498  0.00000 -0.30996
      12     H     0.41833  0.41833  0.00000  0.16334
      13     H     0.42394  0.42394  0.00000  0.15212
      14     C     3.15030  3.15030  0.00000 -0.30059
      15     H     0.42263  0.42263  0.00000  0.15474
      16     H     0.42362  0.42362  0.00000  0.15277
      17     C     3.15145  3.15145  0.00000 -0.30289
      18     H     0.42335  0.42335  0.00000  0.15331
      19     H     0.42401  0.42401  0.00000  0.15199
      20     C     3.23934  3.23934  0.00000 -0.47868
      21     H     0.42281  0.42281  0.00000  0.15438
      22     H     0.42344  0.42344  0.00000  0.15311
      23     H     0.41926  0.41926  0.00000  0.16149
      24     H     0.42156  0.42156  0.00000  0.15688
      25     H     0.42185  0.42185  0.00000  0.15631
      26     C     3.09834  3.09834  0.00000 -0.19668
      27     H     0.41163  0.41163  0.00000  0.17674
      28     H     0.39397  0.39397  0.00000  0.21207
      29     H     0.41289  0.41289  0.00000  0.17422

   Total alpha = 44.00000, Total beta = 44.00000, Total charge =  0.00000
