  ==> Input File <==

--------------------------------------------------------------------------
set {
	reference rhf
	basis 6-31G*
}

set_num_threads( 4 )
memory 2 gb

molecule MOL {
0 1

H	 -3.135461	 -1.215070	 0.001379
O	 -2.310168	 -0.871793	 -0.309793
C	 -2.026376	 0.340750	 0.341611
C	 -0.673256	 0.843270	 -0.132153
H	 -2.792215	 1.080697	 0.115987
H	 -2.013526	 0.200402	 1.421792
C	 0.486613	 -0.083066	 0.235839
H	 -0.715586	 0.970948	 -1.210718
H	 -0.508072	 1.829858	 0.297090
C	 0.359256	 -1.474052	 -0.387662
H	 0.542422	 -0.171196	 1.315946
H	 1.423344	 0.369936	 -0.086907
C	 1.521324	 -2.397910	 -0.024681
H	 -0.575548	 -1.927985	 -0.065478
H	 0.296342	 -1.382594	 -1.470307
H	 1.589012	 -2.537091	 1.050464
H	 1.403162	 -3.377197	 -0.478532
H	 2.468696	 -1.988273	 -0.364084

	symmetry c1
}
set optking {
	frozen_dihedral = ("
		10 7 4 8
	")
}

ee = optimize('scf')
oeprop('DIPOLE', 'QUADRUPOLE', 'MULLIKEN_CHARGES')
f=open( 'psi4out.xyz', 'w' )
f.write( "18  " )
f.write( str(ee) + "\n" )
f.write( MOL.save_string_xyz() )
f.close()
--------------------------------------------------------------------------

    Molecular point group: c1
  Charge       = 0
  Multiplicity = 1
  Basis Set: 6-31G*
  Basis Set:
  @DF-RHF Final Energy:  -271.17117491902536
    Total Energy =                       -271.1711749190254181
    Molecular point group: c1
  Basis Set: 6-31G*
  Basis Set:
  Basis Set: 6-31G*
  Basis Set:
  @DF-RHF Final Energy:  -271.17612471107736
    Total Energy =                       -271.1761247110774775
  Basis Set: 6-31G*
  Basis Set:
  Basis Set: 6-31G*
  Basis Set:
  @DF-RHF Final Energy:  -271.17680904116236
    Total Energy =                       -271.1768090411623007
  Basis Set: 6-31G*
  Basis Set:
  Basis Set: 6-31G*
  Basis Set:
  @DF-RHF Final Energy:  -271.17695066453888
    Total Energy =                       -271.1769506645389356
  Basis Set: 6-31G*
  Basis Set:
  Basis Set: 6-31G*
  Basis Set:
  @DF-RHF Final Energy:  -271.17697651849699
    Total Energy =                       -271.1769765184970993
  Basis Set: 6-31G*
  Basis Set:
  Basis Set: 6-31G*
  Basis Set:
  @DF-RHF Final Energy:  -271.17699045203210
    Total Energy =                       -271.1769904520319869
  Basis Set: 6-31G*
  Basis Set:
  Basis Set: 6-31G*
  Basis Set:
  @DF-RHF Final Energy:  -271.17699171474555
    Total Energy =                       -271.1769917147454407
  Basis Set: 6-31G*
  Basis Set:
  Charge       = 0
  Multiplicity = 1
  Basis Set: 6-31G*
  Basis Set:

    Orbital Energies (a.u.)
    -----------------------

    Doubly Occupied:

       1A    -20.554007     2A    -11.269147     3A    -11.213492
       4A    -11.209871     5A    -11.201442     6A    -11.200394
       7A     -1.360705     8A     -1.071632     9A     -1.005923
      10A     -0.912442    11A     -0.825445    12A     -0.773041
      13A     -0.702144    14A     -0.649874    15A     -0.615910
      16A     -0.573685    17A     -0.571652    18A     -0.554927
      19A     -0.527322    20A     -0.505976    21A     -0.485784
      22A     -0.461181    23A     -0.453181    24A     -0.446973
      25A     -0.425485

  @DF-RHF Final Energy:  -271.17699189262572

   => Energetics <=

    Nuclear Repulsion Energy =            254.2519804927746350
    One-Electron Energy =                -871.7146780525193890
    Two-Electron Energy =                 346.2857056671189184
    DFT Exchange-Correlation Energy =       0.0000000000000000
    Empirical Dispersion Energy =           0.0000000000000000
    PCM Polarization Energy =               0.0000000000000000
    EFP Energy =                            0.0000000000000000
    Total Energy =                       -271.1769918926258924
    Molecular point group: c1
  Basis Set: 6-31G*
  Basis Set:

  -Total Gradient:
     Atom            X                  Y                   Z
    ------   -----------------  -----------------  -----------------
       1        0.000005519509     0.000008983137     0.000004704500
       2        0.000022633683     0.000013240850    -0.000009169177
       3       -0.000004065415    -0.000013169672     0.000026433430
       4       -0.001069016195    -0.001245002439     0.000189330338
       5        0.000006853427     0.000003584428    -0.000007772480
       6        0.000001781295     0.000003413072     0.000004810870
       7        0.000775987954     0.000603787776    -0.000957969457
       8        0.000706044160     0.000887440907     0.000069524536
       9       -0.000012481678    -0.000003481537     0.000005841838
      10       -0.000430427132    -0.000249593703     0.000666954912
      11       -0.000001876409    -0.000002908079    -0.000004559205
      12       -0.000001181228     0.000003200098     0.000000396378
      13       -0.000000535806     0.000005908579    -0.000005066368
      14       -0.000013479255    -0.000009740341     0.000006954203
      15        0.000007374409     0.000006695408     0.000007201370
      16        0.000002672197     0.000002050144     0.000000248333
      17        0.000000724160    -0.000011134093    -0.000000656751
      18        0.000003472324    -0.000003274535     0.000002792731

  **** Optimization is complete! (in 8 steps) ****
    Final optimized geometry and variables:
    Molecular point group: c1

    Geometry (in Angstrom), charge = 0, multiplicity = 1:

    H           -2.899328181343    -0.325909831407    -0.045560973082
    O           -2.043717689349    -0.071727459282    -0.360994361470
    C           -1.555861693072     0.995984605973     0.412146693892
    C           -0.175372754232     1.401850007989    -0.082120778148
    H           -2.227330761088     1.848851563056     0.331721298696
    H           -1.507086934636     0.717573683483     1.464416762457
    C            0.982465041642     0.467680898792     0.290795586367
    H           -0.220690298521     1.532849044722    -1.160079342308
    H            0.039282739094     2.383306842747     0.336397923248
    C            0.923154550470    -0.946410637697    -0.293368845782
    H            1.045333193500     0.401795818044     1.376699182777
    H            1.907471532017     0.941249677274    -0.032918812637
    C            2.173792561444    -1.760023606272     0.040231939985
    H            0.043300110343    -1.461028033339     0.072526668643
    H            0.807238756858    -0.884794945145    -1.372735861208
    H            2.304075818663    -1.859308043385     1.114818203836
    H            2.114078274034    -2.760611524991    -0.377367877847
    H            3.069588903208    -1.289760835133    -0.356632186840

  Mulliken Charges: (a.u.)
   Center  Symbol    Alpha    Beta     Spin     Total
       1     H     0.28097  0.28097  0.00000  0.43806
       2     O     4.36809  4.36809  0.00000 -0.73618
       3     C     2.99705  2.99705  0.00000  0.00591
       4     C     3.16133  3.16133  0.00000 -0.32266
       5     H     0.42925  0.42925  0.00000  0.14150
       6     H     0.43255  0.43255  0.00000  0.13490
       7     C     3.15369  3.15369  0.00000 -0.30739
       8     H     0.41335  0.41335  0.00000  0.17330
       9     H     0.42235  0.42235  0.00000  0.15531
      10     C     3.14817  3.14817  0.00000 -0.29634
      11     H     0.42715  0.42715  0.00000  0.14569
      12     H     0.42307  0.42307  0.00000  0.15385
      13     C     3.24090  3.24090  0.00000 -0.48180
      14     H     0.41109  0.41109  0.00000  0.17782
      15     H     0.42200  0.42200  0.00000  0.15600
      16     H     0.42458  0.42458  0.00000  0.15085
      17     H     0.42021  0.42021  0.00000  0.15958
      18     H     0.42420  0.42420  0.00000  0.15161

   Total alpha = 25.00000, Total beta = 25.00000, Total charge = -0.00000
