  ==> Input File <==

--------------------------------------------------------------------------
set {
	reference rhf
	basis cc-pvtz
}

set_num_threads( 4 )
memory 2 gb

molecule MOL {
0 1

H	 0.010765	 -0.305595	 0.666595
N	 -0.625934	 -0.663929	 -0.000707
C	 -1.978635	 -0.158664	 0.001017
C	 -0.178572	 -1.600336	 -0.866496
H	 -2.519057	 -0.493535	 -0.876362
H	 -1.938890	 0.917202	 -0.004137
H	 -2.514266	 -0.485137	 0.884506
C	 1.275584	 -1.978466	 -0.689663
O	 -0.864932	 -2.093004	 -1.712229
H	 1.443902	 -2.380047	 0.302809
H	 1.535992	 -2.720682	 -1.426121
H	 1.910966	 -1.109110	 -0.812666

	symmetry c1
}
set optking {
	frozen_dihedral = ("
		4 2 3 5
	")
}

ee = optimize('scf')
oeprop('DIPOLE', 'QUADRUPOLE', 'MULLIKEN_CHARGES')
f=open( 'psi4out.xyz', 'w' )
f.write( "12  " )
f.write( str(ee) + "\n" )
f.write( MOL.save_string_xyz() )
f.close()
--------------------------------------------------------------------------

    Molecular point group: c1
  Charge       = 0
  Multiplicity = 1
  Basis Set: CC-PVTZ
  Basis Set:
  @DF-RHF Final Energy:  -247.10056603897058
    Total Energy =                       -247.1005660389705554
    Molecular point group: c1
  Basis Set: CC-PVTZ
  Basis Set:
  Basis Set: CC-PVTZ
  Basis Set:
  @DF-RHF Final Energy:  -247.10091716547700
    Total Energy =                       -247.1009171654771421
  Basis Set: CC-PVTZ
  Basis Set:
  Basis Set: CC-PVTZ
  Basis Set:
  @DF-RHF Final Energy:  -247.10083806813293
    Total Energy =                       -247.1008380681329868
  Basis Set: CC-PVTZ
  Basis Set:
  Basis Set: CC-PVTZ
  Basis Set:
  @DF-RHF Final Energy:  -247.10100192299612
    Total Energy =                       -247.1010019229962609
  Basis Set: CC-PVTZ
  Basis Set:
  Basis Set: CC-PVTZ
  Basis Set:
  @DF-RHF Final Energy:  -247.10100499571254
    Total Energy =                       -247.1010049957126853
  Basis Set: CC-PVTZ
  Basis Set:
  Basis Set: CC-PVTZ
  Basis Set:
  @DF-RHF Final Energy:  -247.10100840197083
    Total Energy =                       -247.1010084019707733
  Basis Set: CC-PVTZ
  Basis Set:
  Charge       = 0
  Multiplicity = 1
  Basis Set: CC-PVTZ
  Basis Set:

    Orbital Energies (a.u.)
    -----------------------

    Doubly Occupied:

       1A    -20.506712     2A    -15.574872     3A    -11.336842
       4A    -11.252463     5A    -11.228077     6A     -1.388532
       7A     -1.231024     8A     -1.016696     9A     -0.932857
      10A     -0.788203    11A     -0.690970    12A     -0.651704
      13A     -0.635380    14A     -0.586770    15A     -0.582988
      16A     -0.555665    17A     -0.545001    18A     -0.511215
      19A     -0.417315    20A     -0.389367

  @DF-RHF Final Energy:  -247.10100896018196

   => Energetics <=

    Nuclear Repulsion Energy =            181.6487254497204731
    One-Electron Energy =                -695.8541692064793551
    Two-Electron Energy =                 267.1044347965769816
    DFT Exchange-Correlation Energy =       0.0000000000000000
    Empirical Dispersion Energy =           0.0000000000000000
    PCM Polarization Energy =               0.0000000000000000
    EFP Energy =                            0.0000000000000000
    Total Energy =                       -247.1010089601819004
    Molecular point group: c1
  Basis Set: CC-PVTZ
  Basis Set:

  -Total Gradient:
     Atom            X                  Y                   Z
    ------   -----------------  -----------------  -----------------
       1        0.000028845981    -0.000035585684    -0.000019649260
       2       -0.000108681879    -0.000039648674     0.000232946860
       3        0.000054483869     0.000074456668    -0.000206768061
       4        0.000012077409     0.000058578271    -0.000107656210
       5       -0.000028235725    -0.000090526852     0.000064365489
       6        0.000007546402     0.000018413621     0.000019373024
       7        0.000019493325     0.000015516682     0.000019053340
       8       -0.000009969610    -0.000031322418     0.000022156821
       9        0.000015732126     0.000008890964    -0.000007333249
      10        0.000014374200     0.000013433899     0.000000074777
      11        0.000001587600     0.000000269634     0.000000830764
      12       -0.000007253698     0.000007523888    -0.000017394296

  **** Optimization is complete! (in 7 steps) ****
    Final optimized geometry and variables:
    Molecular point group: c1

    Geometry (in Angstrom), charge = 0, multiplicity = 1:

    H            0.495543379651     0.971994103407     1.324625822059
    N           -0.135448951141     0.637107040662     0.639863202855
    C           -1.491702221556     1.132248535710     0.654572778725
    C            0.303850257697    -0.308324772883    -0.220573786686
    H           -1.999985608846     0.760285616430    -0.218772182775
    H           -1.500450389132     2.214959160597     0.633188442349
    H           -2.026456470576     0.797928596194     1.536411694291
    C            1.755002298656    -0.698019397350    -0.042272914817
    O           -0.388508167161    -0.801360470921    -1.060985600549
    H            1.916916555304    -1.107807687577     0.948050027172
    H            2.012084316846    -1.437785742000    -0.782460598472
    H            2.397268059340     0.167288067792    -0.157130542340

  Mulliken Charges: (a.u.)
   Center  Symbol    Alpha    Beta     Spin     Total
       1     H     0.41041  0.41041  0.00000  0.17918
       2     N     3.62172  3.62172  0.00000 -0.24343
       3     C     3.08553  3.08553  0.00000 -0.17105
       4     C     2.83662  2.83662  0.00000  0.32675
       5     H     0.43148  0.43148  0.00000  0.13703
       6     H     0.45523  0.45523  0.00000  0.08955
       7     H     0.45630  0.45630  0.00000  0.08741
       8     C     3.15358  3.15358  0.00000 -0.30716
       9     O     4.21551  4.21551  0.00000 -0.43102
      10     H     0.45008  0.45008  0.00000  0.09983
      11     H     0.43353  0.43353  0.00000  0.13293
      12     H     0.45001  0.45001  0.00000  0.09997

   Total alpha = 20.00000, Total beta = 20.00000, Total charge = -0.00000
