                              Psi4 1.0.54 Driver

  ==> Input File <==

--------------------------------------------------------------------------
set {
	reference rhf
	basis cc-pvtz
}

set_num_threads( 4 )
memory 2 gb

molecule MOL {
0 1

O	 -1.278239	 1.034789	 -0.784693
C	 -1.204115	 0.062668	 -0.112312
C	 -2.386398	 -0.667698	 0.460323
O	 -0.068058	 -0.518372	 0.226882
H	 -2.382952	 -1.693172	 0.114333
H	 -3.296656	 -0.175702	 0.158400
H	 -2.312537	 -0.685191	 1.540100
C	 0.697513	 -1.200488	 -0.771828
C	 1.498798	 -2.259831	 -0.041862
C	 1.568650	 -0.208126	 -1.520790
H	 0.006817	 -1.665697	 -1.458565
H	 0.842377	 -2.942391	 0.482516
H	 2.091350	 -2.829011	 -0.747998
H	 2.167653	 -1.806184	 0.679785
H	 2.158110	 -0.724720	 -2.269233
H	 0.962315	 0.533731	 -2.021444
H	 2.246039	 0.293120	 -0.838749

	symmetry c1
}
set optking {
	frozen_dihedral = ("
		8 4 2 1
	")
}

ee,wfn = optimize('scf', return_wfn=True)
oeprop( wfn, 'DIPOLE', 'QUADRUPOLE', 'MULLIKEN_CHARGES')
f=open( 'psi4out.xyz', 'w' )
f.write( "17  " )
f.write( str(ee) + "\n" )
f.write( MOL.save_string_xyz() )
f.close()
--------------------------------------------------------------------------

    Molecular point group: c1
  Charge       = 0
  Multiplicity = 1
  Basis Set: CC-PVTZ
  Basis Set:
  @DF-RHF Final Energy:  -345.02603139465765
    Total Energy =                       -345.0260313946575934
    Molecular point group: c1
  Basis Set: CC-PVTZ
  Basis Set:
  Basis Set: CC-PVTZ
  Basis Set:
  @DF-RHF Final Energy:  -344.97653054110043
    Total Energy =                       -344.9765305411006011
  Basis Set: CC-PVTZ
  Basis Set:
  Basis Set: CC-PVTZ
  Basis Set:
  @DF-RHF Final Energy:  -344.97590958482851
    Total Energy =                       -344.9759095848285142
  Basis Set: CC-PVTZ
  Basis Set:
  Basis Set: CC-PVTZ
  Basis Set:
  @DF-RHF Final Energy:  -344.97997887744322
    Total Energy =                       -344.9799788774433864
  Basis Set: CC-PVTZ
  Basis Set:
  @DF-RHF Final Energy:  -345.00011733138723
    Total Energy =                       -345.0001173313870595
  @DF-RHF Final Energy:  -345.02537804706515
    Total Energy =                       -345.0253780470649758
  @DF-RHF Final Energy:  -345.02508661864516
    Total Energy =                       -345.0250866186447638
  @DF-RHF Final Energy:  -345.02704922124656
    Total Energy =                       -345.0270492212465001
  @DF-RHF Final Energy:  -345.02726207979811
    Total Energy =                       -345.0272620797981631
  Basis Set: CC-PVTZ
  Basis Set:
  @DF-RHF Final Energy:  -345.02727290976605
    Total Energy =                       -345.0272729097659976
  Basis Set: CC-PVTZ
  Basis Set:
  Basis Set: CC-PVTZ
  Basis Set:
  @DF-RHF Final Energy:  -345.02727547480015
    Total Energy =                       -345.0272754748006037
  Basis Set: CC-PVTZ
  Basis Set:
  Basis Set: CC-PVTZ
  Basis Set:
  @DF-RHF Final Energy:  -345.02727651327302
    Total Energy =                       -345.0272765132729091
  Basis Set: CC-PVTZ
  Basis Set:
  Charge       = 0
  Multiplicity = 1
  Basis Set: CC-PVTZ
  Basis Set:

    Orbital Energies (a.u.)
    -----------------------

    Doubly Occupied:

       1A    -20.574157     2A    -20.541985     3A    -11.369120
       4A    -11.297741     5A    -11.233450     6A    -11.220239
       7A    -11.211051     8A     -1.459650     9A     -1.366607
      10A     -1.075332    11A     -1.009349    12A     -0.948485
      13A     -0.845450    14A     -0.772165    15A     -0.694566
      16A     -0.676541    17A     -0.652862    18A     -0.612041
      19A     -0.592977    20A     -0.585483    21A     -0.559404
      22A     -0.551248    23A     -0.549003    24A     -0.516113
      25A     -0.500441    26A     -0.488651    27A     -0.447051
      28A     -0.437752

  @DF-RHF Final Energy:  -345.02727579822260

   => Energetics <=

    Nuclear Repulsion Energy =            322.5234903404822262
    One-Electron Energy =               -1109.5237054115725641
    Two-Electron Energy =                 441.9729392728675634
    DFT Exchange-Correlation Energy =       0.0000000000000000
    Empirical Dispersion Energy =           0.0000000000000000
    PCM Polarization Energy =               0.0000000000000000
    EFP Energy =                            0.0000000000000000
    Total Energy =                       -345.0272757982227745
    Molecular point group: c1
  Basis Set: CC-PVTZ
  Basis Set:

  -Total Gradient:
     Atom            X                  Y                   Z
    ------   -----------------  -----------------  -----------------
       1       -0.001066041547     0.006546100641    -0.000219387426
       2        0.001116632768    -0.010368878792     0.003036358677
       3        0.000062451145     0.000019832446     0.000017944737
       4        0.000511500591     0.005622779702    -0.007540634382
       5       -0.000069058803     0.000186493231    -0.000131453881
       6        0.000053469316    -0.000013579501     0.000029304741
       7       -0.000039150309    -0.000220859066    -0.000088720537
       8       -0.000577800440    -0.001827268692     0.004894411037
       9       -0.000043024736     0.000073972461     0.000037297454
      10        0.000070691566     0.000030119260     0.000003937648
      11        0.000095567087     0.000034851294    -0.000027577785
      12        0.000034057855     0.000008990180    -0.000004876764
      13       -0.000036377974     0.000034933558    -0.000022125131
      14       -0.000033700886    -0.000083130195     0.000007954096
      15       -0.000017065412     0.000048193123     0.000011130206
      16       -0.000023403943    -0.000003178731    -0.000025909163
      17       -0.000038746279    -0.000089370919     0.000022346472

  **** Optimization is complete! (in 13 steps) ****
    Final optimized geometry and variables:
    Molecular point group: c1

    Geometry (in Angstrom), charge = 0, multiplicity = 1:

    O           -1.619208542359     0.241545786865    -1.100381466422
    C           -1.186304612237     0.339835936393    -0.008461024640
    C           -2.028646697093     0.364598288790     1.234991904606
    O            0.117248773189     0.528934193135     0.245230922892
    H           -1.740799504811    -0.455362771932     1.882205466128
    H           -3.073466552108     0.286894557851     0.981311584110
    H           -1.838607294082     1.283230832574     1.774575374603
    C            1.025648986697    -0.550465416657    -0.007262933749
    C            2.103255617784    -0.467600931718     1.054750513927
    C            1.575827130955    -0.460121529788    -1.419299753559
    H            0.480226721006    -1.481973619550     0.105148704654
    H            1.675618731449    -0.550797625306     2.045567667448
    H            2.822558569317    -1.266650812021     0.920653043968
    H            2.624675872796     0.479218886541     0.986583521608
    H            2.259793173233    -1.280617776837    -1.605744674457
    H            0.776138931405    -0.500942967331    -2.144260267409
    H            2.112492523900     0.471877079294    -1.551169939416

  Mulliken Charges: (a.u.)
   Center  Symbol    Alpha    Beta     Spin     Total
       1     O     4.17802  4.17802  0.00000 -0.35605
       2     C     2.81279  2.81279  0.00000  0.37442
       3     C     3.13527  3.13527  0.00000 -0.27053
       4     O     4.17982  4.17982  0.00000 -0.35964
       5     H     0.45105  0.45105  0.00000  0.09790
       6     H     0.43729  0.43729  0.00000  0.12542
       7     H     0.44284  0.44284  0.00000  0.11432
       8     C     2.92928  2.92928  0.00000  0.14144
       9     C     3.13654  3.13654  0.00000 -0.27307
      10     C     3.14179  3.14179  0.00000 -0.28358
      11     H     0.45976  0.45976  0.00000  0.08049
      12     H     0.44847  0.44847  0.00000  0.10305
      13     H     0.45402  0.45402  0.00000  0.09195
      14     H     0.44936  0.44936  0.00000  0.10127
      15     H     0.45355  0.45355  0.00000  0.09290
      16     H     0.43669  0.43669  0.00000  0.12662
      17     H     0.45346  0.45346  0.00000  0.09308

   Total alpha = 28.00000, Total beta = 28.00000, Total charge = -0.00000

*** Psi4 exiting successfully. Buy a developer a beer!
