  ==> Input File <==

--------------------------------------------------------------------------
set {
	reference rhf
	basis 6-31G*
}

set_num_threads( 1 )
memory 2 gb

molecule MOL {
0 1

O	 2.862325	 1.357334	 0.000267
C	 2.843464	 0.164689	 -0.000222
C	 1.546494	 -0.624492	 -0.000609
C	 4.124123	 -0.644674	 -0.000428
C	 0.291004	 0.242674	 0.000989
H	 1.557904	 -1.283758	 -0.867573
H	 1.558622	 -1.285963	 0.864672
C	 -0.994322	 -0.586602	 0.000262
H	 0.309117	 0.896430	 -0.865270
H	 0.309661	 0.894078	 0.869017
C	 -2.259874	 0.272531	 0.000494
H	 -1.004862	 -1.240012	 -0.870939
H	 -1.005220	 -1.241071	 0.870675
C	 -3.310941	 -0.197642	 -1.006586
H	 -1.992981	 1.305680	 -0.214891
H	 -2.693890	 0.272837	 0.998806
C	 -4.572054	 0.665632	 -1.000600
H	 -2.878619	 -0.197231	 -2.005045
H	 -3.579648	 -1.229795	 -0.791377
H	 -4.341226	 1.698424	 -1.245973
H	 -5.297555	 0.307991	 -1.724784
H	 -5.047881	 0.657630	 -0.024040
H	 4.165367	 -1.288615	 -0.874074
H	 4.976217	 0.020734	 -0.001915
H	 4.166763	 -1.286207	 0.874930

	symmetry c1
}
set optking {
	frozen_dihedral = ("
		9 5 8 12,
		15 11 14 18,
		1 2 3 6,
		9 5 3 6
	")
}

ee = energy('scf')
oeprop('DIPOLE', 'QUADRUPOLE', 'MULLIKEN_CHARGES')
f=open( 'psi4out.xyz', 'w' )
f.write( "25  " )
f.write( str(ee) + "\n" )
f.write( MOL.save_string_xyz() )
f.close()
--------------------------------------------------------------------------

    Molecular point group: c1

    Geometry (in Angstrom), charge = 0, multiplicity = 1:

       Center              X                  Y                   Z               Mass
    ------------   -----------------  -----------------  -----------------  -----------------
           O          2.808354985398     1.277771791147     0.227577882250    15.994914619560
           C          2.789493985398     0.085126791147     0.227088882250    12.000000000000
           C          1.492523985398    -0.704054208853     0.226701882250    12.000000000000
           C          4.070152985398    -0.724236208853     0.226882882250    12.000000000000
           C          0.237033985398     0.163111791147     0.228299882250    12.000000000000
           H          1.503933985398    -1.363320208853    -0.640262117750     1.007825032070
           H          1.504651985398    -1.365525208853     1.091982882250     1.007825032070
           C         -1.048292014602    -0.666164208853     0.227572882250    12.000000000000
           H          0.255146985398     0.816867791147    -0.637959117750     1.007825032070
           H          0.255690985398     0.814515791147     1.096327882250     1.007825032070
           C         -2.313844014602     0.192968791147     0.227804882250    12.000000000000
           H         -1.058832014602    -1.319574208853    -0.643628117750     1.007825032070
           H         -1.059190014602    -1.320633208853     1.097985882250     1.007825032070
           C         -3.364911014602    -0.277204208853    -0.779275117750    12.000000000000
           H         -2.046951014602     1.226117791147     0.012419882250     1.007825032070
           H         -2.747860014602     0.193274791147     1.226116882250     1.007825032070
           C         -4.626024014602     0.586069791147    -0.773289117750    12.000000000000
           H         -2.932589014602    -0.276793208853    -1.777734117750     1.007825032070
           H         -3.633618014602    -1.309357208853    -0.564066117750     1.007825032070
           H         -4.395196014602     1.618861791147    -1.018662117750     1.007825032070
           H         -5.351525014602     0.228428791147    -1.497473117750     1.007825032070
           H         -5.101851014602     0.578067791147     0.203270882250     1.007825032070
           H          4.111396985398    -1.368177208853    -0.646763117750     1.007825032070
           H          4.922246985398    -0.058828208853     0.225395882250     1.007825032070
           H          4.112792985398    -1.365769208853     1.102240882250     1.007825032070

  Charge       = 0
  Multiplicity = 1
  Basis Set: 6-31G*
  Basis Set:

    Orbital Energies (a.u.)
    -----------------------

    Doubly Occupied:

       1A    -20.550404     2A    -11.326230     3A    -11.231475
       4A    -11.228279     5A    -11.217164     6A    -11.215529
       7A    -11.215348     8A    -11.212074     9A    -11.207713
      10A     -1.395721    11A     -1.093692    12A     -1.055942
      13A     -1.014213    14A     -0.969026    15A     -0.890157
      16A     -0.816303    17A     -0.789884    18A     -0.730099
      19A     -0.656855    20A     -0.651891    21A     -0.633749
      22A     -0.621616    23A     -0.599612    24A     -0.582585
      25A     -0.565994    26A     -0.562918    27A     -0.539066
      28A     -0.529218    29A     -0.509141    30A     -0.489065
      31A     -0.486948    32A     -0.478333    33A     -0.464550
      34A     -0.455684    35A     -0.448773    36A     -0.399293

  @DF-RHF Final Energy:  -387.13170931558420

   => Energetics <=

    Nuclear Repulsion Energy =            439.7186897912998802
    One-Electron Energy =               -1396.0313196531985795
    Two-Electron Energy =                 569.1809205463122225
    DFT Exchange-Correlation Energy =       0.0000000000000000
    Empirical Dispersion Energy =           0.0000000000000000
    PCM Polarization Energy =               0.0000000000000000
    EFP Energy =                            0.0000000000000000
    Total Energy =                       -387.1317093155864768

  Mulliken Charges: (a.u.)
   Center  Symbol    Alpha    Beta     Spin     Total
       1     O     4.26128  4.26128  0.00000 -0.52256
       2     C     2.73570  2.73570  0.00000  0.52860
       3     C     3.21126  3.21126  0.00000 -0.42253
       4     C     3.28666  3.28666  0.00000 -0.57332
       5     C     3.15061  3.15061  0.00000 -0.30122
       6     H     0.40993  0.40993  0.00000  0.18014
       7     H     0.41005  0.41005  0.00000  0.17991
       8     C     3.15587  3.15587  0.00000 -0.31174
       9     H     0.41197  0.41197  0.00000  0.17605
      10     H     0.41160  0.41160  0.00000  0.17680
      11     C     3.15326  3.15326  0.00000 -0.30652
      12     H     0.42271  0.42271  0.00000  0.15458
      13     H     0.42270  0.42270  0.00000  0.15459
      14     C     3.15368  3.15368  0.00000 -0.30736
      15     H     0.41883  0.41883  0.00000  0.16235
      16     H     0.42142  0.42142  0.00000  0.15715
      17     C     3.23998  3.23998  0.00000 -0.47996
      18     H     0.42300  0.42300  0.00000  0.15400
      19     H     0.42321  0.42321  0.00000  0.15358
      20     H     0.42089  0.42089  0.00000  0.15823
      21     H     0.41965  0.41965  0.00000  0.16069
      22     H     0.42177  0.42177  0.00000  0.15646
      23     H     0.40875  0.40875  0.00000  0.18249
      24     H     0.39650  0.39650  0.00000  0.20700
      25     H     0.40871  0.40871  0.00000  0.18259

   Total alpha = 36.00000, Total beta = 36.00000, Total charge = -0.00000
