                              Psi4 1.0.54 Driver

  ==> Input File <==

--------------------------------------------------------------------------
set {
	reference rhf
	basis cc-pvtz
}

set_num_threads( 4 )
memory 2 gb

molecule MOL {
0 1

O	 -1.909352	 0.671475	 0.794476
C	 -1.081510	 0.147522	 0.122720
C	 0.327029	 -0.064006	 0.641890
C	 -1.379250	 -0.316700	 -1.283025
C	 1.349460	 -0.017068	 -0.500215
H	 0.399029	 -1.014606	 1.159950
H	 0.538021	 0.726928	 1.350471
C	 2.779782	 -0.209014	 -0.009215
H	 1.115007	 -0.782959	 -1.233891
H	 1.259071	 0.936707	 -1.006644
H	 3.481860	 -0.160270	 -0.833072
H	 2.903471	 -1.171535	 0.475559
H	 3.052569	 0.559584	 0.705428
H	 -0.629964	 0.052130	 -1.974610
H	 -2.359281	 0.018660	 -1.585627
H	 -1.340457	 -1.400767	 -1.316892

	symmetry c1
}
set optking {
	frozen_dihedral = ("
		4 2 3 5
	")
}

ee,wfn = optimize('scf', return_wfn=True)
oeprop( wfn, 'DIPOLE', 'QUADRUPOLE', 'MULLIKEN_CHARGES')
f=open( 'psi4out.xyz', 'w' )
f.write( "16  " )
f.write( str(ee) + "\n" )
f.write( MOL.save_string_xyz() )
f.close()
--------------------------------------------------------------------------

    Molecular point group: c1
  Charge       = 0
  Multiplicity = 1
  Basis Set: CC-PVTZ
  Basis Set:
  @DF-RHF Final Energy:  -270.12374282670453
    Total Energy =                       -270.1237428267044152
    Molecular point group: c1
  Basis Set: CC-PVTZ
  Basis Set:
  Basis Set: CC-PVTZ
  Basis Set:
  @DF-RHF Final Energy:  -269.93707181845105
    Total Energy =                       -269.9370718184512157
  Basis Set: CC-PVTZ
  Basis Set:
  Basis Set: CC-PVTZ
  Basis Set:
  @DF-RHF Final Energy:  -270.05641218939024
    Total Energy =                       -270.0564121893901870
  Basis Set: CC-PVTZ
  Basis Set:
  Basis Set: CC-PVTZ
  Basis Set:
  @DF-RHF Final Energy:  -270.12032668470158
    Total Energy =                       -270.1203266847016948
  Basis Set: CC-PVTZ
  Basis Set:
  @DF-RHF Final Energy:  -270.12640992732270
    Total Energy =                       -270.1264099273226975
  @DF-RHF Final Energy:  -270.12754999030108
    Total Energy =                       -270.1275499903011337
  @DF-RHF Final Energy:  -270.12700379561278
    Total Energy =                       -270.1270037956129499
  @DF-RHF Final Energy:  -270.12780093958241
    Total Energy =                       -270.1278009395823574
  Basis Set: CC-PVTZ
  Basis Set:
  @DF-RHF Final Energy:  -270.12783538740791
    Total Energy =                       -270.1278353874081404
  Basis Set: CC-PVTZ
  Basis Set:
  Basis Set: CC-PVTZ
  Basis Set:
  @DF-RHF Final Energy:  -270.12785627815089
    Total Energy =                       -270.1278562781507162
  Basis Set: CC-PVTZ
  Basis Set:
  Basis Set: CC-PVTZ
  Basis Set:
  @DF-RHF Final Energy:  -270.12789136063896
    Total Energy =                       -270.1278913606390120
  Basis Set: CC-PVTZ
  Basis Set:
  Charge       = 0
  Multiplicity = 1
  Basis Set: CC-PVTZ
  Basis Set:

    Orbital Energies (a.u.)
    -----------------------

    Doubly Occupied:

       1A    -20.536139     2A    -11.320689     3A    -11.232496
       4A    -11.229731     5A    -11.226872     6A    -11.219428
       7A     -1.396919     8A     -1.086522     9A     -1.010651
      10A     -0.953053    11A     -0.835370    12A     -0.734823
      13A     -0.658455    14A     -0.654266    15A     -0.625933
      16A     -0.602053    17A     -0.578415    18A     -0.552472
      19A     -0.539579    20A     -0.522141    21A     -0.506212
      22A     -0.490002    23A     -0.474212    24A     -0.400603

  @DF-RHF Final Energy:  -270.12789229244430

   => Energetics <=

    Nuclear Repulsion Energy =            237.2329387983887727
    One-Electron Energy =                -835.9475990889337709
    Two-Electron Energy =                 328.5867679981007541
    DFT Exchange-Correlation Energy =       0.0000000000000000
    Empirical Dispersion Energy =           0.0000000000000000
    PCM Polarization Energy =               0.0000000000000000
    EFP Energy =                            0.0000000000000000
    Total Energy =                       -270.1278922924442440
    Molecular point group: c1
  Basis Set: CC-PVTZ
  Basis Set:

  -Total Gradient:
     Atom            X                  Y                   Z
    ------   -----------------  -----------------  -----------------
       1       -0.000002283046    -0.000014588307     0.000001322522
       2       -0.001081773555    -0.002215034043    -0.000134415144
       3        0.000619486523     0.002289936652     0.000616575877
       4        0.000668234155     0.001103499156    -0.000100246190
       5       -0.000178701552    -0.001180975158    -0.000433447409
       6       -0.000007000536    -0.000010621485     0.000011942272
       7        0.000004913422    -0.000002295010     0.000006378668
       8       -0.000005745555    -0.000018776603     0.000003399841
       9        0.000001626635     0.000015234217     0.000012978347
      10       -0.000000518096    -0.000003739420    -0.000008303406
      11       -0.000006252422     0.000000166455    -0.000003447095
      12        0.000002770639     0.000011217203     0.000009462840
      13        0.000002704006    -0.000006719086    -0.000007076986
      14       -0.000047802951    -0.000033730661     0.000011809893
      15        0.000047741854    -0.000017718224     0.000010771290
      16       -0.000017399529     0.000084144317     0.000002294677

  **** Optimization is complete! (in 12 steps) ****
    Final optimized geometry and variables:
    Molecular point group: c1

    Geometry (in Angstrom), charge = 0, multiplicity = 1:

    O           -1.995821935289     0.905432492749    -0.004265498227
    C           -1.019872761316     0.333582329356    -0.367900649076
    C           -0.030125815395    -0.208241213168     0.649712597642
    C           -0.752695410248     0.113433318760    -1.838801324256
    C            1.432999801254    -0.301558891645     0.220386764468
    H           -0.389322278713    -1.202160011087     0.911484124993
    H           -0.135495159495     0.398606737234     1.539492280991
    C            2.323876773067    -0.826690862928     1.341491381139
    H            1.529228196053    -0.949736151618    -0.643378059453
    H            1.787460713553     0.677834425882    -0.087382551561
    H            3.357385779476    -0.885720969924     1.021853363404
    H            2.015548540713    -1.818813614081     1.653390577764
    H            2.281301422380    -0.179534319044     2.210444154629
    H            0.133591331055     0.658356586909    -2.142226510020
    H           -1.600525446042     0.457919101199    -2.410086315153
    H           -0.572147938041    -0.935792252423    -2.044104259216

  Mulliken Charges: (a.u.)
   Center  Symbol    Alpha    Beta     Spin     Total
       1     O     4.17370  4.17370  0.00000 -0.34740
       2     C     2.86008  2.86008  0.00000  0.27984
       3     C     3.09588  3.09588  0.00000 -0.19176
       4     C     3.16407  3.16407  0.00000 -0.32814
       5     C     3.09655  3.09655  0.00000 -0.19310
       6     H     0.44533  0.44533  0.00000  0.10933
       7     H     0.43720  0.43720  0.00000  0.12561
       8     C     3.14963  3.14963  0.00000 -0.29927
       9     H     0.45064  0.45064  0.00000  0.09872
      10     H     0.44806  0.44806  0.00000  0.10388
      11     H     0.44607  0.44607  0.00000  0.10786
      12     H     0.45397  0.45397  0.00000  0.09205
      13     H     0.45140  0.45140  0.00000  0.09719
      14     H     0.44717  0.44717  0.00000  0.10566
      15     H     0.43202  0.43202  0.00000  0.13596
      16     H     0.44822  0.44822  0.00000  0.10357

   Total alpha = 24.00000, Total beta = 24.00000, Total charge =  0.00000

*** Psi4 exiting successfully. Buy a developer a beer!
