  ==> Input File <==

--------------------------------------------------------------------------
set {
	reference rhf
	basis 6-31G*
}

set_num_threads( 1 )
memory 2 gb

molecule MOL {
0 1

O	 2.200284	 -0.326412	 0.222469
C	 1.122059	 0.121804	 -0.000188
C	 -0.170150	 -0.657997	 -0.000612
O	 0.911685	 1.400730	 -0.284909
C	 -1.412532	 0.227344	 -0.000452
H	 -0.153702	 -1.313099	 -0.867402
H	 -0.153924	 -1.313811	 0.865644
C	 -2.706999	 -0.587347	 -0.000541
H	 -1.388000	 0.879466	 -0.868000
H	 -1.387972	 0.879138	 0.867341
C	 -3.956778	 0.291888	 0.000910
H	 -2.726114	 -1.239230	 -0.871609
H	 -2.725217	 -1.240844	 0.869333
H	 -3.985213	 0.933254	 -0.875158
H	 -4.860123	 -0.309979	 0.000519
H	 -3.984618	 0.931166	 0.878514
C	 2.046525	 2.247040	 -0.317118
H	 2.537384	 2.261298	 0.645348
H	 1.674883	 3.229837	 -0.561947
H	 2.747816	 1.913898	 -1.068593

	symmetry c1
}
set optking {
	frozen_dihedral = ("
		9 5 8 12,
		9 5 3 6,
		1 2 4 17
	")
}

ee = energy('scf')
oeprop('DIPOLE', 'QUADRUPOLE', 'MULLIKEN_CHARGES')
f=open( 'psi4out.xyz', 'w' )
f.write( "20  " )
f.write( str(ee) + "\n" )
f.write( MOL.save_string_xyz() )
f.close()
--------------------------------------------------------------------------

    Molecular point group: c1

    Geometry (in Angstrom), charge = 0, multiplicity = 1:

       Center              X                  Y                   Z               Mass
    ------------   -----------------  -----------------  -----------------  -----------------
           O          2.421472099757    -0.692969913091     0.272505814354    15.994914619560
           C          1.343247099757    -0.244753913091     0.049848814354    12.000000000000
           C          0.051038099757    -1.024554913091     0.049424814354    12.000000000000
           O          1.132873099757     1.034172086909    -0.234872185646    15.994914619560
           C         -1.191343900243    -0.139213913091     0.049584814354    12.000000000000
           H          0.067486099757    -1.679656913091    -0.817365185646     1.007825032070
           H          0.067264099757    -1.680368913091     0.915680814354     1.007825032070
           C         -2.485810900243    -0.953904913091     0.049495814354    12.000000000000
           H         -1.166811900243     0.512908086909    -0.817963185646     1.007825032070
           H         -1.166783900243     0.512580086909     0.917377814354     1.007825032070
           C         -3.735589900243    -0.074669913091     0.050946814354    12.000000000000
           H         -2.504925900243    -1.605787913091    -0.821572185646     1.007825032070
           H         -2.504028900243    -1.607401913091     0.919369814354     1.007825032070
           H         -3.764024900243     0.566696086909    -0.825121185646     1.007825032070
           H         -4.638934900243    -0.676536913091     0.050555814354     1.007825032070
           H         -3.763429900243     0.564608086909     0.928550814354     1.007825032070
           C          2.267713099757     1.880482086909    -0.267081185646    12.000000000000
           H          2.758572099757     1.894740086909     0.695384814354     1.007825032070
           H          1.896071099757     2.863279086909    -0.511910185646     1.007825032070
           H          2.969004099757     1.547340086909    -1.018556185646     1.007825032070

  Charge       = 0
  Multiplicity = 1
  Basis Set: 6-31G*
  Basis Set:

    Orbital Energies (a.u.)
    -----------------------

    Doubly Occupied:

       1A    -20.605433     2A    -20.542630     3A    -11.372733
       4A    -11.281372     5A    -11.235653     6A    -11.221655
       7A    -11.221024     8A    -11.212622     9A     -1.470136
      10A     -1.362037    11A     -1.092423    12A     -1.024980
      13A     -0.964955    14A     -0.891389    15A     -0.805502
      16A     -0.774594    17A     -0.694739    18A     -0.684875
      19A     -0.671214    20A     -0.645891    21A     -0.593660
      22A     -0.591652    23A     -0.579652    24A     -0.541648
      25A     -0.532361    26A     -0.524907    27A     -0.503174
      28A     -0.493314    29A     -0.478808    30A     -0.473480
      31A     -0.451831    32A     -0.427510

  @DF-RHF Final Energy:  -383.93774473672181

   => Energetics <=

    Nuclear Repulsion Energy =            385.8843449141152178
    One-Electron Energy =               -1287.7084884467358279
    Two-Electron Energy =                 517.8863987958990265
    DFT Exchange-Correlation Energy =       0.0000000000000000
    Empirical Dispersion Energy =           0.0000000000000000
    PCM Polarization Energy =               0.0000000000000000
    EFP Energy =                            0.0000000000000000
    Total Energy =                       -383.9377447367215836

  Mulliken Charges: (a.u.)
   Center  Symbol    Alpha    Beta     Spin     Total
       1     O     4.28831  4.28831  0.00000 -0.57661
       2     C     2.60170  2.60170  0.00000  0.79660
       3     C     3.21482  3.21482  0.00000 -0.42963
       4     O     4.30507  4.30507  0.00000 -0.61014
       5     C     3.15033  3.15033  0.00000 -0.30066
       6     H     0.39867  0.39867  0.00000  0.20266
       7     H     0.39806  0.39806  0.00000  0.20389
       8     C     3.15424  3.15424  0.00000 -0.30847
       9     H     0.41053  0.41053  0.00000  0.17893
      10     H     0.41638  0.41638  0.00000  0.16725
      11     C     3.23925  3.23925  0.00000 -0.47850
      12     H     0.42252  0.42252  0.00000  0.15496
      13     H     0.42233  0.42233  0.00000  0.15534
      14     H     0.42073  0.42073  0.00000  0.15855
      15     H     0.41815  0.41815  0.00000  0.16370
      16     H     0.42078  0.42078  0.00000  0.15845
      17     C     3.09211  3.09211  0.00000 -0.18421
      18     H     0.40855  0.40855  0.00000  0.18290
      19     H     0.40882  0.40882  0.00000  0.18235
      20     H     0.40867  0.40867  0.00000  0.18266

   Total alpha = 32.00000, Total beta = 32.00000, Total charge =  0.00000
