  ==> Input File <==

--------------------------------------------------------------------------
set {
	reference rhf
	basis cc-pvtz
}

set_num_threads( 4 )
memory 2 gb

molecule MOL {
0 1

H	 -1.804195	 -0.779131	 0.660645
O	 -2.041679	 -0.058866	 0.103463
C	 -0.959304	 0.780994	 -0.094939
C	 0.354905	 0.037902	 -0.006215
H	 -0.985899	 1.279578	 -1.057596
H	 -0.969809	 1.529522	 0.682889
F	 0.412060	 -0.931028	 -0.902708
F	 1.359641	 0.856111	 -0.239961
F	 0.545380	 -0.506387	 1.171682

	symmetry c1
}
set optking {
	frozen_dihedral = ("
		1 2 3 5
	")
}

ee = optimize('scf')
oeprop('DIPOLE', 'QUADRUPOLE', 'MULLIKEN_CHARGES')
f=open( 'psi4out.xyz', 'w' )
f.write( "9  " )
f.write( str(ee) + "\n" )
f.write( MOL.save_string_xyz() )
f.close()
--------------------------------------------------------------------------

    Molecular point group: c1
  Charge       = 0
  Multiplicity = 1
  Basis Set: CC-PVTZ
  Basis Set:
  @DF-RHF Final Energy:  -450.84338476071139
    Total Energy =                       -450.8433847607115013
    Molecular point group: c1
  Basis Set: CC-PVTZ
  Basis Set:
  Basis Set: CC-PVTZ
  Basis Set:
  @DF-RHF Final Energy:  -450.84490470796044
    Total Energy =                       -450.8449047079606089
  Basis Set: CC-PVTZ
  Basis Set:
  Basis Set: CC-PVTZ
  Basis Set:
  @DF-RHF Final Energy:  -450.84516875147585
    Total Energy =                       -450.8451687514759669
  Basis Set: CC-PVTZ
  Basis Set:
  Basis Set: CC-PVTZ
  Basis Set:
  @DF-RHF Final Energy:  -450.84521748129970
    Total Energy =                       -450.8452174812994144
  Basis Set: CC-PVTZ
  Basis Set:
  Basis Set: CC-PVTZ
  Basis Set:
  @DF-RHF Final Energy:  -450.84522213433831
    Total Energy =                       -450.8452221343382007
  Basis Set: CC-PVTZ
  Basis Set:
  Charge       = 0
  Multiplicity = 1
  Basis Set: CC-PVTZ
  Basis Set:

    Orbital Energies (a.u.)
    -----------------------

    Doubly Occupied:

       1A    -26.345527     2A    -26.344637     3A    -26.341062
       4A    -20.581645     5A    -11.499706     6A    -11.310110
       7A     -1.753405     8A     -1.650893     9A     -1.647820
      10A     -1.405004    11A     -1.053009    12A     -0.933780
      13A     -0.842913    14A     -0.841712    15A     -0.819963
      16A     -0.728368    17A     -0.724329    18A     -0.694007
      19A     -0.676521    20A     -0.673168    21A     -0.654744
      22A     -0.641884    23A     -0.625900    24A     -0.529190
      25A     -0.483373

  @DF-RHF Final Energy:  -450.84522241517971

   => Energetics <=

    Nuclear Repulsion Energy =            278.0295979880070263
    One-Electron Energy =               -1178.1443002120729489
    Two-Electron Energy =                 449.2694798088861035
    DFT Exchange-Correlation Energy =       0.0000000000000000
    Empirical Dispersion Energy =           0.0000000000000000
    PCM Polarization Energy =               0.0000000000000000
    EFP Energy =                            0.0000000000000000
    Total Energy =                       -450.8452224151798191
    Molecular point group: c1
  Basis Set: CC-PVTZ
  Basis Set:

  -Total Gradient:
     Atom            X                  Y                   Z
    ------   -----------------  -----------------  -----------------
       1        0.000921178285    -0.001849807549    -0.002496246939
       2       -0.000795175351     0.001769376923     0.002871648556
       3       -0.001595927080     0.002208928342     0.000600381523
       4        0.000020793318    -0.000017025822     0.000027349300
       5        0.001444143266    -0.002130636653    -0.000999861321
       6        0.000013947031    -0.000003583025    -0.000003863483
       7       -0.000016547350     0.000014686115     0.000009144277
       8        0.000020276946     0.000035057266    -0.000023191971
       9       -0.000012689068    -0.000026995595     0.000014640064

  **** Optimization is complete! (in 6 steps) ****
    Final optimized geometry and variables:
    Molecular point group: c1

    Geometry (in Angstrom), charge = 0, multiplicity = 1:

    H           -1.834297179805    -0.755991680114     0.707790185672
    O           -2.050540543328    -0.059169959683     0.113379299181
    C           -0.965093078002     0.776789586067    -0.101315180060
    C            0.353292029432     0.040235423197    -0.036216466742
    H           -1.040992009867     1.188159976537    -1.097447315449
    H           -0.922117470228     1.583650237560     0.621063546601
    F            0.463126825218    -0.870309478422    -0.976916164850
    F            1.356243560928     0.878793592584    -0.166183988184
    F            0.494874367359    -0.581662497011     1.122238945744

  Mulliken Charges: (a.u.)
   Center  Symbol    Alpha    Beta     Spin     Total
       1     H     0.38647  0.38647  0.00000  0.22707
       2     O     4.19474  4.19474  0.00000 -0.38948
       3     C     2.97486  2.97486  0.00000  0.05029
       4     C     2.68839  2.68839  0.00000  0.62323
       5     H     0.45493  0.45493  0.00000  0.09013
       6     H     0.46502  0.46502  0.00000  0.06996
       7     F     4.60892  4.60892  0.00000 -0.21783
       8     F     4.60877  4.60877  0.00000 -0.21755
       9     F     4.61791  4.61791  0.00000 -0.23582

   Total alpha = 25.00000, Total beta = 25.00000, Total charge =  0.00000
