                              Psi4 1.0.54 Driver

  ==> Input File <==

--------------------------------------------------------------------------
set {
	reference rhf
	basis cc-pvtz
}

set_num_threads( 4 )
memory 2 gb

molecule MOL {
0 1

H	 -2.048862	 -0.743928	 -1.962382
C	 -1.441888	 -0.457058	 -1.129782
C	 -1.947529	 0.372767	 -0.078652
C	 -0.174359	 -0.866976	 -1.038288
H	 -2.962988	 0.719295	 -0.122458
C	 -1.167438	 0.716599	 0.950820
H	 0.275436	 -1.490115	 -1.785631
N	 0.640204	 -0.530428	 -0.000115
H	 -1.511601	 1.335101	 1.753919
C	 0.214013	 0.267704	 1.047347
C	 2.006991	 -1.033007	 -0.000020
O	 0.945449	 0.554998	 1.955481
H	 2.182444	 -1.636914	 -0.880881
H	 2.678769	 -0.195442	 -0.002236
H	 2.183828	 -1.633244	 0.883082

	symmetry c1
}
set optking {
	frozen_dihedral = ("
		10 8 11 13
	")
}

ee,wfn = optimize('scf', return_wfn=True)
oeprop( wfn, 'DIPOLE', 'QUADRUPOLE', 'MULLIKEN_CHARGES')
f=open( 'psi4out.xyz', 'w' )
f.write( "15  " )
f.write( str(ee) + "\n" )
f.write( MOL.save_string_xyz() )
f.close()
--------------------------------------------------------------------------

    Molecular point group: c1
  Charge       = 0
  Multiplicity = 1
  Basis Set: CC-PVTZ
  Basis Set:
  @DF-RHF Final Energy:  -360.72276725766585
    Total Energy =                       -360.7227672576658506
    Molecular point group: c1
  Basis Set: CC-PVTZ
  Basis Set:
  Basis Set: CC-PVTZ
  Basis Set:
  @DF-RHF Final Energy:  -360.72356697775604
    Total Energy =                       -360.7235669777564340
  Basis Set: CC-PVTZ
  Basis Set:
  Basis Set: CC-PVTZ
  Basis Set:
  @DF-RHF Final Energy:  -360.72365624668993
    Total Energy =                       -360.7236562466896430
  Basis Set: CC-PVTZ
  Basis Set:
  Basis Set: CC-PVTZ
  Basis Set:
  @DF-RHF Final Energy:  -360.72364548645049
    Total Energy =                       -360.7236454864506641
  Basis Set: CC-PVTZ
  Basis Set:
  Charge       = 0
  Multiplicity = 1
  Basis Set: CC-PVTZ
  Basis Set:

    Orbital Energies (a.u.)
    -----------------------

    Doubly Occupied:

       1A    -20.502016     2A    -15.617941     3A    -11.337450
       4A    -11.294771     5A    -11.266213     6A    -11.258178
       7A    -11.229370     8A    -11.227728     9A     -1.391429
      10A     -1.285940    11A     -1.118844    12A     -1.029398
      13A     -0.972665    14A     -0.876704    15A     -0.839029
      16A     -0.719737    17A     -0.701920    18A     -0.664092
      19A     -0.653468    20A     -0.626428    21A     -0.611940
      22A     -0.575249    23A     -0.551570    24A     -0.551320
      25A     -0.531608    26A     -0.485041    27A     -0.420398
      28A     -0.410821    29A     -0.309949

  @DF-RHF Final Energy:  -360.72366087871563

   => Energetics <=

    Nuclear Repulsion Energy =            358.9297842191993482
    One-Electron Energy =               -1201.1844581125587865
    Two-Electron Energy =                 481.5310130146435199
    DFT Exchange-Correlation Energy =       0.0000000000000000
    Empirical Dispersion Energy =           0.0000000000000000
    PCM Polarization Energy =               0.0000000000000000
    EFP Energy =                            0.0000000000000000
    Total Energy =                       -360.7236608787159753
    Molecular point group: c1
  Basis Set: CC-PVTZ
  Basis Set:

  -Total Gradient:
     Atom            X                  Y                   Z
    ------   -----------------  -----------------  -----------------
       1       -0.000023534354     0.000017663684    -0.000014981400
       2        0.000173977801    -0.000031735827    -0.000012807371
       3       -0.000021209792     0.000067003703     0.000132079008
       4       -0.000257816419    -0.000038209760    -0.000028925825
       5       -0.000004709253    -0.000020685967    -0.000036126381
       6       -0.000161669845     0.000067260173    -0.000040967883
       7        0.000058289056     0.000016920737     0.000016184610
       8        0.000130004709     0.000150383837     0.000201113401
       9        0.000016367331    -0.000003166130    -0.000002537308
      10        0.000002974246    -0.000246459248    -0.000249727204
      11       -0.000048060086    -0.000040568629    -0.000047575892
      12        0.000081805603     0.000059249708     0.000092251034
      13        0.000043213922    -0.000017852104    -0.000027121483
      14       -0.000000702866    -0.000006398944     0.000014116817
      15        0.000011069947     0.000026594766     0.000005025877

  **** Optimization is complete! (in 5 steps) ****
    Final optimized geometry and variables:
    Molecular point group: c1

    Geometry (in Angstrom), charge = 0, multiplicity = 1:

    H           -2.122523615610    -0.522791919269    -2.116737865640
    C           -1.467522522984    -0.264877605548    -1.311520014749
    C           -1.890325721548     0.582513519978    -0.239661965830
    C           -0.215014205846    -0.731652752137    -1.278870955129
    H           -2.891247240357     0.971599266745    -0.240332980306
    C           -1.053125742294     0.891881551564     0.756932265960
    H            0.170794085993    -1.370707681683    -2.046911249590
    N            0.653479905407    -0.430809534510    -0.277083629408
    H           -1.335574913231     1.522794288192     1.574431074079
    C            0.307285467054     0.381539907240     0.786615852404
    C            2.008190314912    -0.960352459763    -0.281734593440
    O            1.106547378558     0.621618686266     1.650677103177
    H            2.143532872000    -1.572578969825    -1.159991968489
    H            2.724440641098    -0.152650312494    -0.289037371679
    H            2.180065017521    -1.553417127888     0.603791867203

  Mulliken Charges: (a.u.)
   Center  Symbol    Alpha    Beta     Spin     Total
       1     H     0.41405  0.41405  0.00000  0.17190
       2     C     3.10727  3.10727  0.00000 -0.21454
       3     C     3.05898  3.05898  0.00000 -0.11797
       4     C     3.03974  3.03974  0.00000 -0.07949
       5     H     0.41844  0.41844  0.00000  0.16313
       6     C     3.11842  3.11842  0.00000 -0.23684
       7     H     0.41842  0.41842  0.00000  0.16316
       8     N     3.50816  3.50816  0.00000 -0.01632
       9     H     0.40941  0.40941  0.00000  0.18118
      10     C     2.84579  2.84579  0.00000  0.30842
      11     C     3.09125  3.09125  0.00000 -0.18250
      12     O     4.23547  4.23547  0.00000 -0.47094
      13     H     0.45543  0.45543  0.00000  0.08915
      14     H     0.43959  0.43959  0.00000  0.12082
      15     H     0.43958  0.43958  0.00000  0.12084

   Total alpha = 29.00000, Total beta = 29.00000, Total charge =  0.00000

*** Psi4 exiting successfully. Buy a developer a beer!
