  ==> Input File <==

--------------------------------------------------------------------------
set {
	reference rhf
	basis 6-31G*
}

set_num_threads( 1 )
memory 2 gb

molecule MOL {
0 1

H	 -1.540162	 -1.174296	 -0.769531
O	 -2.310168	 -0.871793	 -0.309793
C	 -2.026376	 0.340750	 0.341611
C	 -0.673256	 0.843270	 -0.132153
H	 -2.792215	 1.080697	 0.115987
H	 -2.013526	 0.200402	 1.421792
C	 0.486613	 -0.083066	 0.235839
H	 -0.715586	 0.970948	 -1.210718
H	 -0.508072	 1.829858	 0.297090
C	 1.840406	 0.433480	 -0.254303
H	 0.300215	 -1.068318	 -0.178947
H	 0.519509	 -0.203625	 1.318070
C	 3.000220	 -0.489290	 0.118523
H	 1.809207	 0.553576	 -1.335192
H	 2.021860	 1.424500	 0.157276
H	 2.864959	 -1.479103	 -0.307933
H	 3.946603	 -0.099227	 -0.243630
H	 3.080049	 -0.602997	 1.196117

	symmetry c1
}
set optking {
	frozen_dihedral = ("
		14 10 7 11,
		10 7 4 8,
		2 3 4 8
	")
}

ee = energy('scf')
oeprop('DIPOLE', 'QUADRUPOLE', 'MULLIKEN_CHARGES')
f=open( 'psi4out.xyz', 'w' )
f.write( "18  " )
f.write( str(ee) + "\n" )
f.write( MOL.save_string_xyz() )
f.close()
--------------------------------------------------------------------------

    Molecular point group: c1

    Geometry (in Angstrom), charge = 0, multiplicity = 1:

       Center              X                  Y                   Z               Mass
    ------------   -----------------  -----------------  -----------------  -----------------
           H         -1.558413440748    -1.174762541551    -0.760711207287     1.007825032070
           O         -2.328419440748    -0.872259541551    -0.300973207287    15.994914619560
           C         -2.044627440748     0.340283458449     0.350430792713    12.000000000000
           C         -0.691507440748     0.842803458449    -0.123333207287    12.000000000000
           H         -2.810466440748     1.080230458449     0.124806792713     1.007825032070
           H         -2.031777440748     0.199935458449     1.430611792713     1.007825032070
           C          0.468361559252    -0.083532541551     0.244658792713    12.000000000000
           H         -0.733837440748     0.970481458449    -1.201898207287     1.007825032070
           H         -0.526323440748     1.829391458449     0.305909792713     1.007825032070
           C          1.822154559252     0.433013458449    -0.245483207287    12.000000000000
           H          0.281963559252    -1.068784541551    -0.170127207287     1.007825032070
           H          0.501257559252    -0.204091541551     1.326889792713     1.007825032070
           C          2.981968559252    -0.489756541551     0.127342792713    12.000000000000
           H          1.790955559252     0.553109458449    -1.326372207287     1.007825032070
           H          2.003608559252     1.424033458449     0.166095792713     1.007825032070
           H          2.846707559252    -1.479569541551    -0.299113207287     1.007825032070
           H          3.928351559252    -0.099693541551    -0.234810207287     1.007825032070
           H          3.061797559252    -0.603463541551     1.204936792713     1.007825032070

  Charge       = 0
  Multiplicity = 1
  Basis Set: 6-31G*
  Basis Set:

    Orbital Energies (a.u.)
    -----------------------

    Doubly Occupied:

       1A    -20.547599     2A    -11.267450     3A    -11.226473
       4A    -11.223997     5A    -11.222747     6A    -11.214731
       7A     -1.358048     8A     -1.088035     9A     -1.015616
      10A     -0.924769    11A     -0.835637    12A     -0.799336
      13A     -0.666672    14A     -0.662820    15A     -0.631270
      16A     -0.615924    17A     -0.577548    18A     -0.564289
      19A     -0.539660    20A     -0.503515    21A     -0.493626
      22A     -0.480945    23A     -0.474346    24A     -0.449645
      25A     -0.430571

  @DF-RHF Final Energy:  -271.17399892375568

   => Energetics <=

    Nuclear Repulsion Energy =            250.6162088993931718
    One-Electron Energy =                -863.9496817374921420
    Two-Electron Energy =                 342.1594739143436072
    DFT Exchange-Correlation Energy =       0.0000000000000000
    Empirical Dispersion Energy =           0.0000000000000000
    PCM Polarization Energy =               0.0000000000000000
    EFP Energy =                            0.0000000000000000
    Total Energy =                       -271.1739989237553345

  Mulliken Charges: (a.u.)
   Center  Symbol    Alpha    Beta     Spin     Total
       1     H     0.27530  0.27530  0.00000  0.44941
       2     O     4.37939  4.37939  0.00000 -0.75878
       3     C     2.97432  2.97432  0.00000  0.05136
       4     C     3.19037  3.19037  0.00000 -0.38075
       5     H     0.42110  0.42110  0.00000  0.15781
       6     H     0.42790  0.42790  0.00000  0.14421
       7     C     3.15605  3.15605  0.00000 -0.31210
       8     H     0.41753  0.41753  0.00000  0.16493
       9     H     0.41843  0.41843  0.00000  0.16315
      10     C     3.15090  3.15090  0.00000 -0.30179
      11     H     0.42924  0.42924  0.00000  0.14152
      12     H     0.41778  0.41778  0.00000  0.16445
      13     C     3.23977  3.23977  0.00000 -0.47955
      14     H     0.42206  0.42206  0.00000  0.15588
      15     H     0.42061  0.42061  0.00000  0.15878
      16     H     0.42111  0.42111  0.00000  0.15779
      17     H     0.41773  0.41773  0.00000  0.16453
      18     H     0.42042  0.42042  0.00000  0.15916

   Total alpha = 25.00000, Total beta = 25.00000, Total charge =  0.00000
