  ==> Input File <==

--------------------------------------------------------------------------
set {
	reference rhf
	basis 6-31G*
}

set_num_threads( 4 )
memory 2 gb

molecule MOL {
0 1

O	 -2.332238	 -0.072306	 -1.152330
C	 -1.921153	 0.064240	 -0.045697
C	 -2.778219	 0.163372	 1.187168
O	 -0.632575	 0.154573	 0.251549
H	 -2.594877	 1.108279	 1.685651
H	 -3.819459	 0.086197	 0.912034
H	 -2.517139	 -0.628882	 1.879214
C	 0.160891	 -1.019931	 0.106212
C	 1.589627	 -0.672828	 0.480843
H	 0.089836	 -1.367806	 -0.916050
H	 -0.238459	 -1.792301	 0.749618
C	 2.246377	 0.346236	 -0.452210
H	 2.163194	 -1.597435	 0.473358
H	 1.604769	 -0.303424	 1.502885
C	 3.691736	 0.652107	 -0.061850
H	 2.219579	 -0.032311	 -1.472055
H	 1.666466	 1.263317	 -0.447249
H	 4.134505	 1.377213	 -0.737283
H	 4.305508	 -0.243868	 -0.089969
H	 3.748266	 1.059562	 0.943567

	symmetry c1
}
set optking {
	frozen_dihedral = ("
		1 2 4 8
	")
}

ee = optimize('scf')
oeprop('DIPOLE', 'QUADRUPOLE', 'MULLIKEN_CHARGES')
f=open( 'psi4out.xyz', 'w' )
f.write( "20  " )
f.write( str(ee) + "\n" )
f.write( MOL.save_string_xyz() )
f.close()
--------------------------------------------------------------------------

    Molecular point group: c1
  Charge       = 0
  Multiplicity = 1
  Basis Set: 6-31G*
  Basis Set:
  @DF-RHF Final Energy:  -383.92842388762045
    Total Energy =                       -383.9284238876205109
    Molecular point group: c1
  Basis Set: 6-31G*
  Basis Set:
  Basis Set: 6-31G*
  Basis Set:
  @DF-RHF Final Energy:  -383.92653046581063
    Total Energy =                       -383.9265304658106288
  Basis Set: 6-31G*
  Basis Set:
  Basis Set: 6-31G*
  Basis Set:
  @DF-RHF Final Energy:  -383.92933245781694
    Total Energy =                       -383.9293324578170541
  Basis Set: 6-31G*
  Basis Set:
  Basis Set: 6-31G*
  Basis Set:
  @DF-RHF Final Energy:  -383.92947810266043
    Total Energy =                       -383.9294781026601413
  Basis Set: 6-31G*
  Basis Set:
  Basis Set: 6-31G*
  Basis Set:
  @DF-RHF Final Energy:  -383.92948609502798
    Total Energy =                       -383.9294860950277553
  Basis Set: 6-31G*
  Basis Set:
  Basis Set: 6-31G*
  Basis Set:
  @DF-RHF Final Energy:  -383.92948971219846
    Total Energy =                       -383.9294897121986878
  Basis Set: 6-31G*
  Basis Set:
  Charge       = 0
  Multiplicity = 1
  Basis Set: 6-31G*
  Basis Set:

    Orbital Energies (a.u.)
    -----------------------

    Doubly Occupied:

       1A    -20.585130     2A    -20.554483     3A    -11.376939
       4A    -11.290427     5A    -11.235838     6A    -11.226551
       7A    -11.217716     8A    -11.211541     9A     -1.458698
      10A     -1.365308    11A     -1.083568    12A     -1.023298
      13A     -0.985336    14A     -0.880164    15A     -0.808141
      16A     -0.775947    17A     -0.695364    18A     -0.681281
      19A     -0.653837    20A     -0.631604    21A     -0.611438
      22A     -0.591627    23A     -0.577576    24A     -0.559543
      25A     -0.542377    26A     -0.529601    27A     -0.496819
      28A     -0.484083    29A     -0.479719    30A     -0.472930
      31A     -0.446237    32A     -0.436017

  @DF-RHF Final Energy:  -383.92948988222781

   => Energetics <=

    Nuclear Repulsion Energy =            384.1890592708795111
    One-Electron Energy =               -1284.2988271328763403
    Two-Electron Energy =                 516.1802779797689027
    DFT Exchange-Correlation Energy =       0.0000000000000000
    Empirical Dispersion Energy =           0.0000000000000000
    PCM Polarization Energy =               0.0000000000000000
    EFP Energy =                            0.0000000000000000
    Total Energy =                       -383.9294898822279265
    Molecular point group: c1
  Basis Set: 6-31G*
  Basis Set:

  -Total Gradient:
     Atom            X                  Y                   Z
    ------   -----------------  -----------------  -----------------
       1       -0.000285184013     0.006767086852    -0.000158103482
       2       -0.000162989403    -0.010767620169     0.002649141353
       3       -0.000048783606    -0.000029393270    -0.000024202904
       4        0.001880138886     0.005792737017    -0.007355836462
       5        0.000003753006    -0.000008696395    -0.000017002621
       6       -0.000035591725     0.000005586396     0.000025257617
       7        0.000005565151     0.000008744844    -0.000004952731
       8       -0.001333411520    -0.001784082450     0.004867793190
       9       -0.000002530913     0.000013570764     0.000013145141
      10       -0.000015141204     0.000000898115    -0.000006227783
      11        0.000025357436    -0.000013624779    -0.000004659839
      12       -0.000016969726     0.000021125369     0.000013571136
      13       -0.000005618345     0.000002850112     0.000007192108
      14       -0.000008635502     0.000008573698     0.000001594299
      15        0.000006535052    -0.000020434939    -0.000014936751
      16       -0.000004782449     0.000000663087    -0.000000891934
      17        0.000000346886     0.000008915552     0.000014995480
      18        0.000001070964    -0.000007719268    -0.000005375574
      19        0.000005515437    -0.000002500899     0.000007102938
      20       -0.000008644406     0.000003320363    -0.000007603180

  **** Optimization is complete! (in 7 steps) ****
    Final optimized geometry and variables:
    Molecular point group: c1

    Geometry (in Angstrom), charge = 0, multiplicity = 1:

    O           -2.245218945538     0.058502262388    -1.204431239814
    C           -1.913474612481     0.105207311266    -0.070137621774
    C           -2.859003282696     0.205312776064     1.095418858022
    O           -0.619996309650     0.169870119526     0.304830613808
    H           -2.658123548623     1.120840249888     1.640522120585
    H           -3.882112984886     0.195853369413     0.749614789803
    H           -2.689433550346    -0.620557992073     1.778398043435
    C            0.175128169913    -0.993227200993     0.105011981709
    C            1.617107915650    -0.653708854779     0.431799607655
    H            0.072878136700    -1.321974099586    -0.922018876520
    H           -0.187357882701    -1.781541516846     0.758471768478
    C            2.230565120776     0.386660719229    -0.506451077364
    H            2.191525206275    -1.576851508250     0.385139022270
    H            1.667375081513    -0.303551585107     1.459288867153
    C            3.686330484446     0.698209199790    -0.161769433324
    H            2.169829575005     0.024938046004    -1.530511718419
    H            1.641654656547     1.296401654816    -0.465443548852
    H            4.099168317637     1.435951732742    -0.842329585647
    H            4.306459286008    -0.191909893072    -0.223422168744
    H            3.774949394549     1.093081831883     0.846421526357

  Mulliken Charges: (a.u.)
   Center  Symbol    Alpha    Beta     Spin     Total
       1     O     4.25654  4.25654  0.00000 -0.51309
       2     C     2.62321  2.62321  0.00000  0.75358
       3     C     3.28488  3.28488  0.00000 -0.56976
       4     O     4.31909  4.31909  0.00000 -0.63817
       5     H     0.39796  0.39796  0.00000  0.20408
       6     H     0.39767  0.39767  0.00000  0.20466
       7     H     0.40618  0.40618  0.00000  0.18763
       8     C     3.00342  3.00342  0.00000 -0.00684
       9     C     3.16348  3.16348  0.00000 -0.32696
      10     H     0.40792  0.40792  0.00000  0.18416
      11     H     0.42130  0.42130  0.00000  0.15740
      12     C     3.15494  3.15494  0.00000 -0.30987
      13     H     0.41936  0.41936  0.00000  0.16128
      14     H     0.41421  0.41421  0.00000  0.17157
      15     C     3.24081  3.24081  0.00000 -0.48162
      16     H     0.42100  0.42100  0.00000  0.15799
      17     H     0.40748  0.40748  0.00000  0.18503
      18     H     0.41684  0.41684  0.00000  0.16632
      19     H     0.42264  0.42264  0.00000  0.15472
      20     H     0.42105  0.42105  0.00000  0.15789

   Total alpha = 32.00000, Total beta = 32.00000, Total charge = -0.00000
