  ==> Input File <==

--------------------------------------------------------------------------
set {
	reference rhf
	basis cc-pvtz
}

set_num_threads( 4 )
memory 2 gb

molecule MOL {
0 1

H	 0.281150	 -2.363513	 -0.694345
C	 -0.548990	 -1.674944	 -0.862238
N	 -0.537714	 -0.645117	 0.000000
O	 -1.349618	 -1.856602	 -1.724046
C	 -1.522613	 0.412524	 0.000000
H	 0.191526	 -0.619797	 0.668994
H	 -2.150256	 0.356137	 -0.880771
H	 -1.005621	 1.357208	 0.000000
H	 -2.150256	 0.356137	 0.880771

	symmetry c1
}
set optking {
	frozen_dihedral = ("
		6 3 5 7
	")
}

ee = optimize('scf')
oeprop('DIPOLE', 'QUADRUPOLE', 'MULLIKEN_CHARGES')
f=open( 'psi4out.xyz', 'w' )
f.write( "9  " )
f.write( str(ee) + "\n" )
f.write( MOL.save_string_xyz() )
f.close()
--------------------------------------------------------------------------

    Molecular point group: c1
  Charge       = 0
  Multiplicity = 1
  Basis Set: CC-PVTZ
  Basis Set:
  @DF-RHF Final Energy:  -208.04316643085014
    Total Energy =                       -208.0431664308501922
    Molecular point group: c1
  Basis Set: CC-PVTZ
  Basis Set:
  Basis Set: CC-PVTZ
  Basis Set:
  @DF-RHF Final Energy:  -208.04351052896970
    Total Energy =                       -208.0435105289696764
  Basis Set: CC-PVTZ
  Basis Set:
  Basis Set: CC-PVTZ
  Basis Set:
  @DF-RHF Final Energy:  -208.04354307642672
    Total Energy =                       -208.0435430764266869
  Basis Set: CC-PVTZ
  Basis Set:
  Basis Set: CC-PVTZ
  Basis Set:
  @DF-RHF Final Energy:  -208.04356443987410
    Total Energy =                       -208.0435644398741033
  Basis Set: CC-PVTZ
  Basis Set:
  Basis Set: CC-PVTZ
  Basis Set:
  @DF-RHF Final Energy:  -208.04358108226933
    Total Energy =                       -208.0435810822692702
  Basis Set: CC-PVTZ
  Basis Set:
  Basis Set: CC-PVTZ
  Basis Set:
  @DF-RHF Final Energy:  -208.04358450111874
    Total Energy =                       -208.0435845011188007
  Basis Set: CC-PVTZ
  Basis Set:
  Basis Set: CC-PVTZ
  Basis Set:
  @DF-RHF Final Energy:  -208.04359082878111
    Total Energy =                       -208.0435908287810491
  Basis Set: CC-PVTZ
  Basis Set:
  Charge       = 0
  Multiplicity = 1
  Basis Set: CC-PVTZ
  Basis Set:

    Orbital Energies (a.u.)
    -----------------------

    Doubly Occupied:

       1A    -20.516150     2A    -15.585054     3A    -11.337517
       4A    -11.259269     5A     -1.393666     6A     -1.239883
       7A     -0.970390     8A     -0.808274     9A     -0.748801
      10A     -0.646371    11A     -0.629341    12A     -0.596845
      13A     -0.555398    14A     -0.542061    15A     -0.428265
      16A     -0.395980

  @DF-RHF Final Energy:  -208.04359085426231

   => Energetics <=

    Nuclear Repulsion Energy =            122.7148476113789286
    One-Electron Energy =                -526.2103493223771693
    Two-Electron Energy =                 195.4519108567359922
    DFT Exchange-Correlation Energy =       0.0000000000000000
    Empirical Dispersion Energy =           0.0000000000000000
    PCM Polarization Energy =               0.0000000000000000
    EFP Energy =                            0.0000000000000000
    Total Energy =                       -208.0435908542622769
    Molecular point group: c1
  Basis Set: CC-PVTZ
  Basis Set:

  -Total Gradient:
     Atom            X                  Y                   Z
    ------   -----------------  -----------------  -----------------
       1        0.000000461652    -0.000006778314    -0.000004531923
       2        0.000001743120     0.000013926270     0.000010326672
       3        0.000095019732     0.000093280709    -0.000110203705
       4       -0.000003276720    -0.000010702722    -0.000010541259
       5        0.000073480991     0.000072658687    -0.000040691940
       6       -0.000085037140    -0.000081040989     0.000093510698
       7       -0.000080652033    -0.000081014076     0.000060163184
       8        0.000001886221    -0.000002260419     0.000000761382
       9       -0.000003625820     0.000001930855     0.000001206891

  **** Optimization is complete! (in 8 steps) ****
    Final optimized geometry and variables:
    Molecular point group: c1

    Geometry (in Angstrom), charge = 0, multiplicity = 1:

    H            1.270619009034    -1.443146186483    -0.059423802927
    C            0.440816425546    -0.751648551074    -0.217797594416
    N            0.489908621150     0.302979492827     0.613039415572
    O           -0.387498738861    -0.944554615071    -1.050320656260
    C           -0.510506071633     1.345749927815     0.638330528080
    H            1.206659178272     0.311113423639     1.295973133374
    H           -1.094195479099     1.282151235697    -0.264801753747
    H           -0.035706392627     2.316991076137     0.684298921101
    H           -1.174669433694     1.240091127528     1.488306550731

  Mulliken Charges: (a.u.)
   Center  Symbol    Alpha    Beta     Spin     Total
       1     H     0.46294  0.46294  0.00000  0.07413
       2     C     2.88099  2.88099  0.00000  0.23802
       3     N     3.60784  3.60784  0.00000 -0.21568
       4     O     4.21487  4.21487  0.00000 -0.42975
       5     C     3.08069  3.08069  0.00000 -0.16139
       6     H     0.40972  0.40972  0.00000  0.18055
       7     H     0.43357  0.43357  0.00000  0.13285
       8     H     0.45402  0.45402  0.00000  0.09196
       9     H     0.45534  0.45534  0.00000  0.08931

   Total alpha = 16.00000, Total beta = 16.00000, Total charge =  0.00000
