                              Psi4 1.0.54 Driver

  ==> Input File <==

--------------------------------------------------------------------------
set {
	reference rhf
	basis cc-pvtz
}

set_num_threads( 4 )
memory 2 gb

molecule MOL {
0 1

H	 -3.436473	 1.252944	 -1.023892
O	 -3.458596	 0.315260	 -0.960865
C	 -3.176635	 -0.080824	 0.355601
C	 -1.763371	 0.265266	 0.799691
H	 -3.321825	 -1.153438	 0.379502
H	 -3.895468	 0.357385	 1.043382
C	 -0.673390	 -0.426948	 -0.013392
H	 -1.631049	 1.344913	 0.747560
H	 -1.664587	 -0.001624	 1.849167
C	 0.737842	 -0.043159	 0.423759
H	 -0.806103	 -0.190518	 -1.063345
H	 -0.797221	 -1.503753	 0.074146
C	 1.824000	 -0.743224	 -0.390623
H	 0.850588	 1.033777	 0.343840
H	 0.868587	 -0.286314	 1.476203
C	 3.249750	 -0.268668	 -0.104474
H	 1.612380	 -0.620667	 -1.450362
H	 1.770976	 -1.810523	 -0.193945
C	 3.537236	 1.173292	 -0.515868
H	 3.940343	 -0.923012	 -0.627629
H	 3.462172	 -0.390085	 0.954561
H	 3.327937	 1.326259	 -1.569847
H	 4.579344	 1.420420	 -0.348002
H	 2.940960	 1.882247	 0.045776

	symmetry c1
}
set optking {
	frozen_dihedral = ("
		17 13 10 7
	")
}

ee,wfn = optimize('scf', return_wfn=True)
oeprop( wfn, 'DIPOLE', 'QUADRUPOLE', 'MULLIKEN_CHARGES')
f=open( 'psi4out.xyz', 'w' )
f.write( "24  " )
f.write( str(ee) + "\n" )
f.write( MOL.save_string_xyz() )
f.close()
--------------------------------------------------------------------------

    Molecular point group: c1
  Charge       = 0
  Multiplicity = 1
  Basis Set: CC-PVTZ
  Basis Set:
  @DF-RHF Final Energy:  -349.38005422282396
    Total Energy =                       -349.3800542228241852
    Molecular point group: c1
  Basis Set: CC-PVTZ
  Basis Set:
  Basis Set: CC-PVTZ
  Basis Set:
  @DF-RHF Final Energy:  -349.37984277631591
    Total Energy =                       -349.3798427763155701
  Basis Set: CC-PVTZ
  Basis Set:
  Basis Set: CC-PVTZ
  Basis Set:
  @DF-RHF Final Energy:  -349.38012496296699
    Total Energy =                       -349.3801249629673293
  Basis Set: CC-PVTZ
  Basis Set:
  Basis Set: CC-PVTZ
  Basis Set:
  @DF-RHF Final Energy:  -349.38013191534850
    Total Energy =                       -349.3801319153486702
  Basis Set: CC-PVTZ
  Basis Set:
  Basis Set: CC-PVTZ
  Basis Set:
  @DF-RHF Final Energy:  -349.38013326293503
    Total Energy =                       -349.3801332629350327
  Basis Set: CC-PVTZ
  Basis Set:
  Charge       = 0
  Multiplicity = 1
  Basis Set: CC-PVTZ
  Basis Set:

    Orbital Energies (a.u.)
    -----------------------

    Doubly Occupied:

       1A    -20.546293     2A    -11.265510     3A    -11.215162
       4A    -11.212256     5A    -11.210138     6A    -11.209386
       7A    -11.208948     8A    -11.205302     9A     -1.364141
      10A     -1.089712    11A     -1.049374    12A     -0.986891
      13A     -0.916124    14A     -0.850852    15A     -0.801211
      16A     -0.777489    17A     -0.681776    18A     -0.654936
      19A     -0.625523    20A     -0.621409    21A     -0.599238
      22A     -0.583615    23A     -0.561387    24A     -0.539701
      25A     -0.515512    26A     -0.512037    27A     -0.498437
      28A     -0.473394    29A     -0.467974    30A     -0.460966
      31A     -0.457247    32A     -0.450510    33A     -0.421252

  @DF-RHF Final Energy:  -349.38013358743819

   => Energetics <=

    Nuclear Repulsion Energy =            385.0218219756701501
    One-Electron Energy =               -1236.7365041781322361
    Two-Electron Energy =                 502.3345486150235502
    DFT Exchange-Correlation Energy =       0.0000000000000000
    Empirical Dispersion Energy =           0.0000000000000000
    PCM Polarization Energy =               0.0000000000000000
    EFP Energy =                            0.0000000000000000
    Total Energy =                       -349.3801335874385359
    Molecular point group: c1
  Basis Set: CC-PVTZ
  Basis Set:

  -Total Gradient:
     Atom            X                  Y                   Z
    ------   -----------------  -----------------  -----------------
       1        0.000000339155    -0.000001624610     0.000002873515
       2        0.000002213077    -0.000005394315    -0.000000438564
       3       -0.000002472949     0.000003609823     0.000006082105
       4        0.000002150601    -0.000008887500     0.000006536923
       5       -0.000002057580     0.000000971999    -0.000004817021
       6       -0.000001186305    -0.000000889724    -0.000000560764
       7        0.000000172114     0.000943171614    -0.000814095861
       8       -0.000000391419    -0.000004343870    -0.000005142183
       9       -0.000000192746     0.000003063273     0.000005092504
      10       -0.000205414619    -0.001623669716     0.001105951863
      11        0.000000740176     0.000006458297    -0.000002138808
      12       -0.000002324026     0.000003389146     0.000000983176
      13        0.001122087582     0.002112182063    -0.000300702082
      14        0.000002625808     0.000010233606     0.000001886145
      15       -0.000000267235    -0.000003649985    -0.000005117111
      16        0.000010260077     0.000002024046    -0.000013877571
      17       -0.000899247378    -0.001421701077     0.000015834980
      18        0.000002880833    -0.000014119274     0.000001607057
      19       -0.000007028604    -0.000004855001     0.000011514744
      20       -0.000007851541     0.000007982267     0.000005512327
      21       -0.000011559674    -0.000000517637    -0.000017123315
      22       -0.000003816286    -0.000003521219    -0.000000079344
      23        0.000002890769     0.000000309116     0.000000572005
      24       -0.000002549840    -0.000000221325    -0.000000354724

  **** Optimization is complete! (in 6 steps) ****
    Final optimized geometry and variables:
    Molecular point group: c1

    Geometry (in Angstrom), charge = 0, multiplicity = 1:

    H           -3.430272981092     1.223512567543    -0.916524660935
    O           -3.444824989134     0.284282197451    -0.880290338705
    C           -3.160291517925    -0.146681689489     0.424539026020
    C           -1.749683496541     0.197261082231     0.878737290962
    H           -3.297471363353    -1.220595293690     0.417664810959
    H           -3.882653916303     0.266326177710     1.124120874828
    C           -0.654506391557    -0.461789379405     0.045381807439
    H           -1.625857953650     1.279030429960     0.858413161213
    H           -1.648560686659    -0.099596936827     1.919858407982
    C            0.753810889729    -0.074979640202     0.489139005411
    H           -0.790431554004    -0.197579332738    -0.997271099653
    H           -0.768743928930    -1.541939682885     0.103217563968
    C            1.846345312986    -0.771787129617    -0.320432599941
    H            0.859280069840     1.002496598643     0.405225776237
    H            0.885048186649    -0.311985275825     1.542504957667
    C            3.272107076094    -0.310062283606    -0.015063816076
    H            1.642135948080    -0.650716593407    -1.381696880008
    H            1.782506761373    -1.840078718095    -0.130501000683
    C            3.595402233814     1.110070069935    -0.473467263239
    H            3.964937258629    -0.993981944506    -0.495491528622
    H            3.455788296126    -0.395537750317     1.052880371159
    H            3.426447234525     1.221630703271    -1.539682451301
    H            4.634480872011     1.349716632320    -0.278016964457
    H            2.990695703992     1.850491716823     0.036001507793

  Mulliken Charges: (a.u.)
   Center  Symbol    Alpha    Beta     Spin     Total
       1     H     0.39530  0.39530  0.00000  0.20940
       2     O     4.20368  4.20368  0.00000 -0.40736
       3     C     2.97769  2.97769  0.00000  0.04462
       4     C     3.10174  3.10174  0.00000 -0.20347
       5     H     0.45888  0.45888  0.00000  0.08225
       6     H     0.46025  0.46025  0.00000  0.07949
       7     C     3.08744  3.08744  0.00000 -0.17487
       8     H     0.45933  0.45933  0.00000  0.08133
       9     H     0.45329  0.45329  0.00000  0.09343
      10     C     3.09076  3.09076  0.00000 -0.18151
      11     H     0.44623  0.44623  0.00000  0.10755
      12     H     0.45518  0.45518  0.00000  0.08963
      13     C     3.09513  3.09513  0.00000 -0.19027
      14     H     0.45420  0.45420  0.00000  0.09159
      15     H     0.45552  0.45552  0.00000  0.08895
      16     C     3.09023  3.09023  0.00000 -0.18045
      17     H     0.45385  0.45385  0.00000  0.09229
      18     H     0.44967  0.44967  0.00000  0.10066
      19     C     3.15140  3.15140  0.00000 -0.30280
      20     H     0.44835  0.44835  0.00000  0.10329
      21     H     0.45547  0.45547  0.00000  0.08906
      22     H     0.45470  0.45470  0.00000  0.09061
      23     H     0.44692  0.44692  0.00000  0.10616
      24     H     0.45479  0.45479  0.00000  0.09042

   Total alpha = 33.00000, Total beta = 33.00000, Total charge =  0.00000

*** Psi4 exiting successfully. Buy a developer a beer!
