  ==> Input File <==

--------------------------------------------------------------------------
set {
	reference rhf
	basis 6-31G*
}

set_num_threads( 1 )
memory 2 gb

molecule MOL {
0 1

O	 3.225979	 0.970355	 -0.599647
C	 2.701189	 0.057885	 -0.047330
C	 1.245376	 -0.013843	 0.345420
O	 3.347903	 -1.046386	 0.304773
C	 0.455112	 1.231400	 -0.050772
H	 0.838542	 -0.913825	 -0.103701
H	 1.208210	 -0.175333	 1.419774
C	 -0.998893	 1.219485	 0.433193
H	 0.482531	 1.345121	 -1.130325
H	 0.957290	 2.103070	 0.354729
C	 -1.883438	 0.145884	 -0.207175
H	 -1.431207	 2.195402	 0.224832
H	 -1.019646	 1.105716	 1.516076
C	 -3.347647	 0.245583	 0.225435
H	 -1.822183	 0.231698	 -1.291012
H	 -1.510341	 -0.844814	 0.042401
C	 -3.798037	 1.678668	 0.514480
H	 -3.502798	 -0.364949	 1.113362
H	 -3.982157	 -0.179895	 -0.550494
C	 -5.260308	 1.769092	 0.949551
H	 -3.164386	 2.105695	 1.288932
H	 -3.647785	 2.289484	 -0.373275
H	 -5.549578	 2.796691	 1.146963
H	 -5.435805	 1.196279	 1.855796
H	 -5.922789	 1.380899	 0.180981
C	 4.728119	 -1.109107	 -0.004993
H	 4.882018	 -1.033965	 -1.071845
H	 5.068212	 -2.067527	 0.355250
H	 5.265056	 -0.311663	 0.488280

	symmetry c1
}
set optking {
	frozen_dihedral = ("
		21 17 14 11,
		15 11 8 5,
		6 3 5 9,
		11 8 5 9,
		2 4 26 27,
		1 2 4 26,
		6 3 2 1
	")
}

ee = energy('scf')
oeprop('DIPOLE', 'QUADRUPOLE', 'MULLIKEN_CHARGES')
f=open( 'psi4out.xyz', 'w' )
f.write( "29  " )
f.write( str(ee) + "\n" )
f.write( MOL.save_string_xyz() )
f.close()
--------------------------------------------------------------------------

    Molecular point group: c1

    Geometry (in Angstrom), charge = 0, multiplicity = 1:

       Center              X                  Y                   Z               Mass
    ------------   -----------------  -----------------  -----------------  -----------------
           O          3.144929285914     0.512331904253    -0.768410739384    15.994914619560
           C          2.620139285914    -0.400138095747    -0.216093739384    12.000000000000
           C          1.164326285914    -0.471866095747     0.176656260616    12.000000000000
           O          3.266853285914    -1.504409095747     0.136009260616    15.994914619560
           C          0.374062285914     0.773376904253    -0.219535739384    12.000000000000
           H          0.757492285914    -1.371848095747    -0.272464739384     1.007825032070
           H          1.127160285914    -0.633356095747     1.251010260616     1.007825032070
           C         -1.079942714086     0.761461904253     0.264429260616    12.000000000000
           H          0.401481285914     0.887097904253    -1.299088739384     1.007825032070
           H          0.876240285914     1.645046904253     0.185965260616     1.007825032070
           C         -1.964487714086    -0.312139095747    -0.375938739384    12.000000000000
           H         -1.512256714086     1.737378904253     0.056068260616     1.007825032070
           H         -1.100695714086     0.647692904253     1.347312260616     1.007825032070
           C         -3.428696714086    -0.212440095747     0.056671260616    12.000000000000
           H         -1.903232714086    -0.226325095747    -1.459775739384     1.007825032070
           H         -1.591390714086    -1.302837095747    -0.126362739384     1.007825032070
           C         -3.879086714086     1.220644904253     0.345716260616    12.000000000000
           H         -3.583847714086    -0.822972095747     0.944598260616     1.007825032070
           H         -4.063206714086    -0.637918095747    -0.719257739384     1.007825032070
           C         -5.341357714086     1.311068904253     0.780787260616    12.000000000000
           H         -3.245435714086     1.647671904253     1.120168260616     1.007825032070
           H         -3.728834714086     1.831460904253    -0.542038739384     1.007825032070
           H         -5.630627714086     2.338667904253     0.978199260616     1.007825032070
           H         -5.516854714086     0.738255904253     1.687032260616     1.007825032070
           H         -6.003838714086     0.922875904253     0.012217260616     1.007825032070
           C          4.647069285914    -1.567130095747    -0.173756739384    12.000000000000
           H          4.800968285914    -1.491988095747    -1.240608739384     1.007825032070
           H          4.987162285914    -2.525550095747     0.186486260616     1.007825032070
           H          5.184006285914    -0.769686095747     0.319516260616     1.007825032070

  Charge       = 0
  Multiplicity = 1
  Basis Set: 6-31G*
  Basis Set:

    Orbital Energies (a.u.)
    -----------------------

    Doubly Occupied:

       1A    -20.603101     2A    -20.544880     3A    -11.371647
       4A    -11.280478     5A    -11.234237     6A    -11.218243
       7A    -11.216066     8A    -11.215323     9A    -11.214484
      10A    -11.213818    11A    -11.208093    12A     -1.468791
      13A     -1.362222    14A     -1.100347    15A     -1.066006
      16A     -1.015689    17A     -0.976873    18A     -0.928664
      19A     -0.861762    20A     -0.823004    21A     -0.772273
      22A     -0.757254    23A     -0.700623    24A     -0.681812
      25A     -0.671897    26A     -0.643970    27A     -0.628405
      28A     -0.613025    29A     -0.591926    30A     -0.582086
      31A     -0.567124    32A     -0.553980    33A     -0.545049
      34A     -0.524361    35A     -0.521880    36A     -0.497887
      37A     -0.491872    38A     -0.485880    39A     -0.476346
      40A     -0.456752    41A     -0.451556    42A     -0.449851
      43A     -0.439951    44A     -0.436668

  @DF-RHF Final Energy:  -501.03526798527992

   => Energetics <=

    Nuclear Repulsion Energy =            617.4413983997510513
    One-Electron Energy =               -1906.0210537238915549
    Two-Electron Energy =                 787.5443873388610427
    DFT Exchange-Correlation Energy =       0.0000000000000000
    Empirical Dispersion Energy =           0.0000000000000000
    PCM Polarization Energy =               0.0000000000000000
    EFP Energy =                            0.0000000000000000
    Total Energy =                       -501.0352679852794608

  Mulliken Charges: (a.u.)
   Center  Symbol    Alpha    Beta     Spin     Total
       1     O     4.28611  4.28611  0.00000 -0.57221
       2     C     2.60472  2.60472  0.00000  0.79056
       3     C     3.21001  3.21001  0.00000 -0.42001
       4     O     4.30752  4.30752  0.00000 -0.61504
       5     C     3.15154  3.15154  0.00000 -0.30308
       6     H     0.39897  0.39897  0.00000  0.20207
       7     H     0.40146  0.40146  0.00000  0.19709
       8     C     3.16532  3.16532  0.00000 -0.33065
       9     H     0.41340  0.41340  0.00000  0.17320
      10     H     0.40921  0.40921  0.00000  0.18157
      11     C     3.15614  3.15614  0.00000 -0.31228
      12     H     0.41211  0.41211  0.00000  0.17579
      13     H     0.42407  0.42407  0.00000  0.15186
      14     C     3.15059  3.15059  0.00000 -0.30119
      15     H     0.42200  0.42200  0.00000  0.15601
      16     H     0.42103  0.42103  0.00000  0.15795
      17     C     3.16082  3.16082  0.00000 -0.32165
      18     H     0.42334  0.42334  0.00000  0.15331
      19     H     0.42087  0.42087  0.00000  0.15827
      20     C     3.23749  3.23749  0.00000 -0.47498
      21     H     0.41773  0.41773  0.00000  0.16454
      22     H     0.42240  0.42240  0.00000  0.15520
      23     H     0.41955  0.41955  0.00000  0.16090
      24     H     0.42216  0.42216  0.00000  0.15567
      25     H     0.42222  0.42222  0.00000  0.15557
      26     C     3.09238  3.09238  0.00000 -0.18477
      27     H     0.40911  0.40911  0.00000  0.18178
      28     H     0.40857  0.40857  0.00000  0.18287
      29     H     0.40917  0.40917  0.00000  0.18166

   Total alpha = 44.00000, Total beta = 44.00000, Total charge =  0.00000
