  ==> Input File <==

--------------------------------------------------------------------------
set {
	reference rhf
	basis cc-pvtz
}

set_num_threads( 4 )
memory 2 gb

molecule MOL {
0 1

H	 3.721907	 -0.933076	 -0.066039
O	 2.824271	 -1.154299	 0.131461
C	 2.076458	 -0.067370	 -0.038225
C	 0.626018	 -0.337582	 0.258241
O	 2.538288	 0.965419	 -0.381593
C	 -0.267326	 0.883135	 0.076490
H	 0.325620	 -1.161483	 -0.378003
H	 0.574537	 -0.713685	 1.275261
C	 -1.726822	 0.642622	 0.463839
H	 -0.210803	 1.217591	 -0.953497
H	 0.129920	 1.693110	 0.675679
C	 -2.480891	 -0.340606	 -0.429852
H	 -2.243098	 1.597649	 0.438609
H	 -1.776542	 0.301208	 1.495542
C	 -3.567688	 0.333433	 -1.261127
H	 -1.774612	 -0.833642	 -1.092513
H	 -2.933163	 -1.122743	 0.171537
H	 -4.085209	 -0.384416	 -1.886864
H	 -3.148234	 1.095783	 -1.908876
H	 -4.306154	 0.811073	 -0.625767

	symmetry c1
}
set optking {
	frozen_dihedral = ("
		16 12 9 6
	")
}

ee = optimize('scf')
oeprop('DIPOLE', 'QUADRUPOLE', 'MULLIKEN_CHARGES')
f=open( 'psi4out.xyz', 'w' )
f.write( "20  " )
f.write( str(ee) + "\n" )
f.write( MOL.save_string_xyz() )
f.close()
--------------------------------------------------------------------------

    Molecular point group: c1
  Charge       = 0
  Multiplicity = 1
  Basis Set: CC-PVTZ
  Basis Set:
  @DF-RHF Final Energy:  -384.08933857749560
    Total Energy =                       -384.0893385774951412
    Molecular point group: c1
  Basis Set: CC-PVTZ
  Basis Set:
  Basis Set: CC-PVTZ
  Basis Set:
  @DF-RHF Final Energy:  -384.08958338111347
    Total Energy =                       -384.0895833811132434
  Basis Set: CC-PVTZ
  Basis Set:
  Basis Set: CC-PVTZ
  Basis Set:
  @DF-RHF Final Energy:  -384.08983473100477
    Total Energy =                       -384.0898347310051690
  Basis Set: CC-PVTZ
  Basis Set:
  Basis Set: CC-PVTZ
  Basis Set:
  @DF-RHF Final Energy:  -384.08984559071922
    Total Energy =                       -384.0898455907186531
  Basis Set: CC-PVTZ
  Basis Set:
  @DF-RHF Final Energy:  -384.08985153279821
    Total Energy =                       -384.0898515327981499
  @DF-RHF Final Energy:  -384.08985504966557
    Total Energy =                       -384.0898550496657435
  @DF-RHF Final Energy:  -384.08985760970029
    Total Energy =                       -384.0898576097001182
  Basis Set: CC-PVTZ
  Basis Set:
  @DF-RHF Final Energy:  -384.08986314434009
    Total Energy =                       -384.0898631443401428
  Basis Set: CC-PVTZ
  Basis Set:
  Basis Set: CC-PVTZ
  Basis Set:
  @DF-RHF Final Energy:  -384.08986652322130
    Total Energy =                       -384.0898665232214171
  Basis Set: CC-PVTZ
  Basis Set:
  Basis Set: CC-PVTZ
  Basis Set:
  @DF-RHF Final Energy:  -384.08986796283813
    Total Energy =                       -384.0898679628386958
  Basis Set: CC-PVTZ
  Basis Set:
  Charge       = 0
  Multiplicity = 1
  Basis Set: CC-PVTZ
  Basis Set:

    Orbital Energies (a.u.)
    -----------------------

    Doubly Occupied:

       1A    -20.603925     2A    -20.540543     3A    -11.373474
       4A    -11.238677     5A    -11.221489     6A    -11.218603
       7A    -11.217976     8A    -11.210293     9A     -1.477507
      10A     -1.369011    11A     -1.096601    12A     -1.040445
      13A     -0.961339    14A     -0.871865    15A     -0.818155
      16A     -0.776496    17A     -0.703715    18A     -0.692691
      19A     -0.668963    20A     -0.631282    21A     -0.609863
      22A     -0.592958    23A     -0.576609    24A     -0.566944
      25A     -0.525309    26A     -0.514311    27A     -0.506052
      28A     -0.484512    29A     -0.469686    30A     -0.462149
      31A     -0.458405    32A     -0.446112

  @DF-RHF Final Energy:  -384.08986804505696

   => Energetics <=

    Nuclear Repulsion Energy =            377.7546171429182778
    One-Electron Energy =               -1271.7970508314162998
    Two-Electron Energy =                 509.9525656434407210
    DFT Exchange-Correlation Energy =       0.0000000000000000
    Empirical Dispersion Energy =           0.0000000000000000
    PCM Polarization Energy =               0.0000000000000000
    EFP Energy =                            0.0000000000000000
    Total Energy =                       -384.0898680450573011
    Molecular point group: c1
  Basis Set: CC-PVTZ
  Basis Set:

  -Total Gradient:
     Atom            X                  Y                   Z
    ------   -----------------  -----------------  -----------------
       1        0.000001313053    -0.000000009152     0.000001844785
       2        0.000001734578     0.000003120581     0.000000368590
       3       -0.000004851997    -0.000008058954    -0.000020803337
       4       -0.000002369486    -0.000002725449    -0.000011856514
       5        0.000006212266     0.000005232922     0.000017327213
       6        0.000209203280    -0.000581081489     0.000391612934
       7       -0.000004606908    -0.000000548739     0.000011678918
       8        0.000006685824     0.000007330442     0.000005302628
       9       -0.000335984901     0.000986184213    -0.000731410055
      10        0.000006001378     0.000007119208    -0.000003935804
      11       -0.000004970120    -0.000008132828     0.000002587245
      12        0.000272747121    -0.001177065105     0.000977882011
      13       -0.000006311240    -0.000001465937    -0.000007266420
      14       -0.000008637357    -0.000005954778     0.000000872255
      15       -0.000000923708     0.000013214731     0.000005507635
      16       -0.000136319543     0.000757515787    -0.000646529525
      17        0.000001094702     0.000003824505     0.000007143440
      18        0.000004170945    -0.000000967098     0.000003159054
      19       -0.000001244224     0.000001166818    -0.000001824303
      20       -0.000002943650     0.000001300326    -0.000001660750

  **** Optimization is complete! (in 11 steps) ****
    Final optimized geometry and variables:
    Molecular point group: c1

    Geometry (in Angstrom), charge = 0, multiplicity = 1:

    H            3.669997812521    -1.037566031226     0.071675577930
    O            2.785209091992    -1.239247948370     0.336642410604
    C            2.022484184812    -0.175615338674     0.099400255627
    C            0.591139967894    -0.416648301632     0.496091752139
    O            2.458669339096     0.818947011476    -0.368188023069
    C           -0.317440260781     0.782892965320     0.259770187376
    H            0.257166362092    -1.293729119993    -0.046541235068
    H            0.594614159547    -0.701920998075     1.543229018644
    C           -1.773104028953     0.517899038733     0.649434785000
    H           -0.261024812617     1.078639421886    -0.781979243087
    H            0.062746094504     1.621673604120     0.830403048101
    C           -2.528774096763    -0.440501021961    -0.295842594451
    H           -2.294361926640     1.468222401844     0.680641668772
    H           -1.799012018335     0.134187407934     1.664991222832
    C           -3.617801640852     0.256416323680    -1.107949347911
    H           -1.833016895469    -0.903228883346    -0.987954975342
    H           -2.975002726826    -1.250215215771     0.270481103558
    H           -4.111708465543    -0.436325279852    -1.779869981213
    H           -3.203045108523     1.060560774891    -1.706952409798
    H           -4.373506582072     0.685721912023    -0.458931031583

  Mulliken Charges: (a.u.)
   Center  Symbol    Alpha    Beta     Spin     Total
       1     H     0.38242  0.38242  0.00000  0.23516
       2     O     4.16044  4.16044  0.00000 -0.32088
       3     C     2.80342  2.80342  0.00000  0.39316
       4     C     3.11212  3.11212  0.00000 -0.22423
       5     O     4.19111  4.19111  0.00000 -0.38223
       6     C     3.09198  3.09198  0.00000 -0.18395
       7     H     0.43670  0.43670  0.00000  0.12661
       8     H     0.43724  0.43724  0.00000  0.12551
       9     C     3.10722  3.10722  0.00000 -0.21444
      10     H     0.44470  0.44470  0.00000  0.11060
      11     H     0.44085  0.44085  0.00000  0.11830
      12     C     3.09114  3.09114  0.00000 -0.18228
      13     H     0.44548  0.44548  0.00000  0.10905
      14     H     0.44857  0.44857  0.00000  0.10286
      15     C     3.14682  3.14682  0.00000 -0.29364
      16     H     0.45546  0.45546  0.00000  0.08907
      17     H     0.44742  0.44742  0.00000  0.10515
      18     H     0.44933  0.44933  0.00000  0.10134
      19     H     0.45376  0.45376  0.00000  0.09249
      20     H     0.45382  0.45382  0.00000  0.09236

   Total alpha = 32.00000, Total beta = 32.00000, Total charge = -0.00000
