  ==> Input File <==

--------------------------------------------------------------------------
set {
	reference rhf
	basis 6-31G*
}

set_num_threads( 1 )
memory 2 gb

molecule MOL {
0 1

H	 -2.564913	 -0.481154	 -0.352149
N	 -1.852125	 0.165761	 -0.074816
C	 -0.563778	 -0.502042	 0.037919
H	 -2.131440	 0.542187	 0.811210
C	 0.575259	 0.508231	 -0.048326
H	 -0.482092	 -1.204004	 -0.786564
H	 -0.460411	 -1.085169	 0.956626
C	 1.954651	 -0.143624	 0.035137
H	 0.475158	 1.060484	 -0.977307
H	 0.469181	 1.234488	 0.755973
H	 2.103292	 -0.853109	 -0.774172
H	 2.742821	 0.599562	 -0.030094
H	 2.083613	 -0.679371	 0.971560

	symmetry c1
}
set optking {
	frozen_dihedral = ("
		6 3 5 9
	")
}

ee = energy('scf')
oeprop('DIPOLE', 'QUADRUPOLE', 'MULLIKEN_CHARGES')
f=open( 'psi4out.xyz', 'w' )
f.write( "13  " )
f.write( str(ee) + "\n" )
f.write( MOL.save_string_xyz() )
f.close()
--------------------------------------------------------------------------

    Molecular point group: c1

    Geometry (in Angstrom), charge = 0, multiplicity = 1:

       Center              X                  Y                   Z               Mass
    ------------   -----------------  -----------------  -----------------  -----------------
           H         -2.563403696166    -0.477752820063    -0.349249037345     1.007825032070
           N         -1.850615696166     0.169162179937    -0.071916037345    14.003074004780
           C         -0.562268696166    -0.498640820063     0.040818962655    12.000000000000
           H         -2.129930696166     0.545588179937     0.814109962655     1.007825032070
           C          0.576768303834     0.511632179937    -0.045426037345    12.000000000000
           H         -0.480582696166    -1.200602820063    -0.783664037345     1.007825032070
           H         -0.458901696166    -1.081767820063     0.959525962655     1.007825032070
           C          1.956160303834    -0.140222820063     0.038036962655    12.000000000000
           H          0.476667303834     1.063885179937    -0.974407037345     1.007825032070
           H          0.470690303834     1.237889179937     0.758872962655     1.007825032070
           H          2.104801303834    -0.849707820063    -0.771272037345     1.007825032070
           H          2.744330303834     0.602963179937    -0.027194037345     1.007825032070
           H          2.085122303834    -0.675969820063     0.974459962655     1.007825032070

  Charge       = 0
  Multiplicity = 1
  Basis Set: 6-31G*
  Basis Set:

    Orbital Energies (a.u.)
    -----------------------

    Doubly Occupied:

       1A    -15.533077     2A    -11.240324     3A    -11.208648
       4A    -11.207261     5A     -1.176876     6A     -1.033576
       7A     -0.897970     8A     -0.796632     9A     -0.668580
      10A     -0.622045    11A     -0.601784    12A     -0.569281
      13A     -0.524356    14A     -0.489387    15A     -0.480061
      16A     -0.466055    17A     -0.381351

  @DF-RHF Final Energy:  -173.28172884408787

   => Energetics <=

    Nuclear Repulsion Energy =            131.7010030616992253
    One-Electron Energy =                -494.1709337370735398
    Two-Electron Energy =                 189.1882018312864773
    DFT Exchange-Correlation Energy =       0.0000000000000000
    Empirical Dispersion Energy =           0.0000000000000000
    PCM Polarization Energy =               0.0000000000000000
    EFP Energy =                            0.0000000000000000
    Total Energy =                       -173.2817288440878372

  Mulliken Charges: (a.u.)
   Center  Symbol    Alpha    Beta     Spin     Total
       1     H     0.33187  0.33187  0.00000  0.33625
       2     N     3.92176  3.92176  0.00000 -0.84351
       3     C     3.06373  3.06373  0.00000 -0.12745
       4     H     0.33431  0.33431  0.00000  0.33138
       5     C     3.14506  3.14506  0.00000 -0.29011
       6     H     0.42235  0.42235  0.00000  0.15530
       7     H     0.43336  0.43336  0.00000  0.13329
       8     C     3.24473  3.24473  0.00000 -0.48946
       9     H     0.41388  0.41388  0.00000  0.17223
      10     H     0.42598  0.42598  0.00000  0.14803
      11     H     0.42208  0.42208  0.00000  0.15584
      12     H     0.41789  0.41789  0.00000  0.16423
      13     H     0.42301  0.42301  0.00000  0.15399

   Total alpha = 17.00000, Total beta = 17.00000, Total charge =  0.00000
