  ==> Input File <==

--------------------------------------------------------------------------
set {
	reference rhf
	basis cc-pvtz
}

set_num_threads( 4 )
memory 2 gb

molecule MOL {
0 1

H	 -2.698799	 -0.000846	 0.036018
C	 -1.694291	 -0.000483	 0.434279
O	 -0.828718	 -0.000608	 -0.655022
H	 -1.576855	 0.881100	 1.056504
H	 -1.576401	 -0.881658	 1.057001
C	 0.428839	 -0.616144	 -0.522576
C	 1.314101	 0.076091	 0.507664
C	 0.323335	 -2.117532	 -0.279772
H	 0.879567	 -0.470180	 -1.496310
H	 1.336404	 1.144055	 0.328739
H	 2.327170	 -0.302300	 0.435163
H	 0.973587	 -0.095484	 1.522156
H	 -0.341382	 -2.570854	 -1.004819
H	 1.300409	 -2.575678	 -0.380785
H	 -0.043566	 -2.347299	 0.713773

	symmetry c1
}
set optking {
	frozen_dihedral = ("
		6 3 2 1
	")
}

ee = optimize('scf')
oeprop('DIPOLE', 'QUADRUPOLE', 'MULLIKEN_CHARGES')
f=open( 'psi4out.xyz', 'w' )
f.write( "15  " )
f.write( str(ee) + "\n" )
f.write( MOL.save_string_xyz() )
f.close()
--------------------------------------------------------------------------

    Molecular point group: c1
  Charge       = 0
  Multiplicity = 1
  Basis Set: CC-PVTZ
  Basis Set:
  @DF-RHF Final Energy:  -232.22479715462751
    Total Energy =                       -232.2247971546271401
    Molecular point group: c1
  Basis Set: CC-PVTZ
  Basis Set:
  Basis Set: CC-PVTZ
  Basis Set:
  @DF-RHF Final Energy:  -232.22458079924937
    Total Energy =                       -232.2245807992493951
  Basis Set: CC-PVTZ
  Basis Set:
  Basis Set: CC-PVTZ
  Basis Set:
  @DF-RHF Final Energy:  -232.22515044065705
    Total Energy =                       -232.2251504406571598
  Basis Set: CC-PVTZ
  Basis Set:
  Basis Set: CC-PVTZ
  Basis Set:
  @DF-RHF Final Energy:  -232.22516901616348
    Total Energy =                       -232.2251690161633064
  Basis Set: CC-PVTZ
  Basis Set:
  Basis Set: CC-PVTZ
  Basis Set:
  @DF-RHF Final Energy:  -232.22517014563294
    Total Energy =                       -232.2251701456329442
  Basis Set: CC-PVTZ
  Basis Set:
  Charge       = 0
  Multiplicity = 1
  Basis Set: CC-PVTZ
  Basis Set:

    Orbital Energies (a.u.)
    -----------------------

    Doubly Occupied:

       1A    -20.540650     2A    -11.272921     3A    -11.258891
       4A    -11.209317     5A    -11.208026     6A     -1.372472
       7A     -1.051184     8A     -0.940654     9A     -0.931374
      10A     -0.781679    11A     -0.676568    12A     -0.641971
      13A     -0.634152    14A     -0.571456    15A     -0.564358
      16A     -0.552550    17A     -0.536328    18A     -0.500172
      19A     -0.498192    20A     -0.444130    21A     -0.407752

  @DF-RHF Final Energy:  -232.22517031846101

   => Energetics <=

    Nuclear Repulsion Energy =            199.0290538638802502
    One-Electron Energy =                -709.3188592684891773
    Two-Electron Energy =                 278.0646350861479732
    DFT Exchange-Correlation Energy =       0.0000000000000000
    Empirical Dispersion Energy =           0.0000000000000000
    PCM Polarization Energy =               0.0000000000000000
    EFP Energy =                            0.0000000000000000
    Total Energy =                       -232.2251703184609823
    Molecular point group: c1
  Basis Set: CC-PVTZ
  Basis Set:

  -Total Gradient:
     Atom            X                  Y                   Z
    ------   -----------------  -----------------  -----------------
       1        0.000035337599    -0.001892239641     0.000179648851
       2       -0.000348641929     0.001670861241    -0.000400953290
       3        0.000936358830     0.001668877002     0.000577179547
       4       -0.000011014331    -0.000014654256    -0.000002371795
       5        0.000022182479    -0.000025039675     0.000013812832
       6       -0.000623761781    -0.001397645094    -0.000397031888
       7       -0.000000669333    -0.000012199865     0.000013954631
       8        0.000000830546     0.000011012448     0.000011138069
       9        0.000017054992    -0.000016010036    -0.000008567433
      10        0.000000355446    -0.000004619478    -0.000009089853
      11       -0.000012750686     0.000000040909     0.000000261233
      12       -0.000000371436     0.000002637097     0.000017409709
      13       -0.000001318789     0.000000217717    -0.000001307106
      14       -0.000004440531     0.000005146420     0.000001457174
      15       -0.000009151078     0.000003615214     0.000004459317

  **** Optimization is complete! (in 6 steps) ****
    Final optimized geometry and variables:
    Molecular point group: c1

    Geometry (in Angstrom), charge = 0, multiplicity = 1:

    H           -2.585559224763     0.523800611223     0.201688490427
    C           -1.561012498392     0.574332701579     0.544337501060
    O           -0.735365235220     0.489246670290    -0.575026380208
    H           -1.413341905445     1.508181750179     1.077761308444
    H           -1.409669413399    -0.242915736951     1.240466364167
    C            0.537686221630    -0.092025467651    -0.438382365893
    C            1.391095101559     0.609437709991     0.611735961355
    C            0.462852594102    -1.599295997682    -0.221227444528
    H            0.995876696112     0.077219915171    -1.404914341456
    H            1.419450563967     1.675897411002     0.424066981339
    H            2.406242579199     0.231360248623     0.578627318791
    H            1.012990797189     0.448743575392     1.615098928538
    H           -0.167413787905    -2.053708521880    -0.975414241005
    H            1.453479528298    -2.033101552142    -0.297388358509
    H            0.068657155260    -1.856853950296     0.754785837556

  Mulliken Charges: (a.u.)
   Center  Symbol    Alpha    Beta     Spin     Total
       1     H     0.44495  0.44495  0.00000  0.11009
       2     C     3.03986  3.03986  0.00000 -0.07971
       3     O     4.18546  4.18546  0.00000 -0.37092
       4     H     0.46272  0.46272  0.00000  0.07455
       5     H     0.47050  0.47050  0.00000  0.05901
       6     C     2.93787  2.93787  0.00000  0.12426
       7     C     3.15840  3.15840  0.00000 -0.31680
       8     C     3.15369  3.15369  0.00000 -0.30738
       9     H     0.44657  0.44657  0.00000  0.10687
      10     H     0.44438  0.44438  0.00000  0.11125
      11     H     0.44856  0.44856  0.00000  0.10287
      12     H     0.45518  0.45518  0.00000  0.08964
      13     H     0.44477  0.44477  0.00000  0.11047
      14     H     0.45127  0.45127  0.00000  0.09745
      15     H     0.45583  0.45583  0.00000  0.08835

   Total alpha = 21.00000, Total beta = 21.00000, Total charge =  0.00000
