  ==> Input File <==

--------------------------------------------------------------------------
set {
	reference rhf
	basis 6-31G*
}

set_num_threads( 4 )
memory 2 gb

molecule MOL {
0 1

H	 2.609545	 -0.684462	 1.227826
O	 1.869426	 -1.027640	 0.736664
C	 0.899392	 -0.114291	 0.758069
C	 -0.318135	 -0.576402	 0.000164
O	 1.022168	 0.925493	 1.319113
C	 -1.454360	 0.441875	 -0.000474
H	 0.000216	 -0.812646	 -1.011688
H	 -0.634071	 -1.519386	 0.438309
C	 -2.826123	 -0.230780	 0.000056
H	 -1.357605	 1.085198	 -0.868380
H	 -1.357504	 1.086451	 0.866496
H	 -2.959731	 -0.858053	 -0.876869
H	 -3.619374	 0.509403	 -0.000080
H	 -2.959371	 -0.857318	 0.877556

	symmetry c1
}
set optking {
	frozen_dihedral = ("
		7 4 6 10
	")
}

ee = optimize('scf')
oeprop('DIPOLE', 'QUADRUPOLE', 'MULLIKEN_CHARGES')
f=open( 'psi4out.xyz', 'w' )
f.write( "14  " )
f.write( str(ee) + "\n" )
f.write( MOL.save_string_xyz() )
f.close()
--------------------------------------------------------------------------

    Molecular point group: c1
  Charge       = 0
  Multiplicity = 1
  Basis Set: 6-31G*
  Basis Set:
  @DF-RHF Final Energy:  -305.87781164251783
    Total Energy =                       -305.8778116425175995
    Molecular point group: c1
  Basis Set: 6-31G*
  Basis Set:
  Basis Set: 6-31G*
  Basis Set:
  @DF-RHF Final Energy:  -305.87807880748397
    Total Energy =                       -305.8780788074839165
  Basis Set: 6-31G*
  Basis Set:
  Basis Set: 6-31G*
  Basis Set:
  @DF-RHF Final Energy:  -305.87804565509452
    Total Energy =                       -305.8780456550947520
  Basis Set: 6-31G*
  Basis Set:
  Basis Set: 6-31G*
  Basis Set:
  @DF-RHF Final Energy:  -305.87812859085648
    Total Energy =                       -305.8781285908564200
  Basis Set: 6-31G*
  Basis Set:
  Basis Set: 6-31G*
  Basis Set:
  @DF-RHF Final Energy:  -305.87814375140510
    Total Energy =                       -305.8781437514051049
  Basis Set: 6-31G*
  Basis Set:
  Basis Set: 6-31G*
  Basis Set:
  @DF-RHF Final Energy:  -305.87814476934756
    Total Energy =                       -305.8781447693472160
  Basis Set: 6-31G*
  Basis Set:
  Charge       = 0
  Multiplicity = 1
  Basis Set: 6-31G*
  Basis Set:

    Orbital Energies (a.u.)
    -----------------------

    Doubly Occupied:

       1A    -20.613043     2A    -20.552438     3A    -11.381923
       4A    -11.241485     5A    -11.224714     6A    -11.216483
       7A     -1.475305     8A     -1.366281     9A     -1.081283
      10A     -0.979653    11A     -0.856938    12A     -0.790395
      13A     -0.700392    14A     -0.689835    15A     -0.664658
      16A     -0.615281    17A     -0.594767    18A     -0.570715
      19A     -0.549927    20A     -0.500087    21A     -0.491198
      22A     -0.481444    23A     -0.479419    24A     -0.445023

  @DF-RHF Final Energy:  -305.87814516010803

   => Energetics <=

    Nuclear Repulsion Energy =            239.9757079385541374
    One-Electron Energy =                -892.5823358033460408
    Two-Electron Energy =                 346.7284827046838132
    DFT Exchange-Correlation Energy =       0.0000000000000000
    Empirical Dispersion Energy =           0.0000000000000000
    PCM Polarization Energy =               0.0000000000000000
    EFP Energy =                            0.0000000000000000
    Total Energy =                       -305.8781451601080903
    Molecular point group: c1
  Basis Set: 6-31G*
  Basis Set:

  -Total Gradient:
     Atom            X                  Y                   Z
    ------   -----------------  -----------------  -----------------
       1       -0.000021214202     0.000012796289    -0.000006985074
       2       -0.000013868626    -0.000022655270    -0.000019480196
       3        0.000030715108    -0.000020935557     0.000039277234
       4       -0.003666023557    -0.004110147366    -0.000611546171
       5       -0.000011691572     0.000021955163    -0.000022756674
       6        0.003245604962     0.003647239741     0.002496894196
       7        0.002543209124     0.002816937872     0.000134226236
       8        0.000014371613    -0.000003710037    -0.000009340322
       9        0.000004175927     0.000004151249    -0.000019760946
      10       -0.002126382034    -0.002348881228    -0.001975856852
      11       -0.000002781838     0.000003277725    -0.000004227226
      12       -0.000004593097    -0.000006073728    -0.000001048665
      13        0.000004940239    -0.000000386260    -0.000003137427
      14        0.000003537946     0.000006431405     0.000003741887

  **** Optimization is complete! (in 7 steps) ****
    Final optimized geometry and variables:
    Molecular point group: c1

    Geometry (in Angstrom), charge = 0, multiplicity = 1:

    H            2.728822421371    -0.575202204525     0.687783739924
    O            1.974236586816    -0.917809268365     0.218826576228
    C            1.003903801392    -0.005751890451     0.274289708201
    C           -0.234853270188    -0.476171120822    -0.448865068338
    O            1.146204341868     1.032273494555     0.833901717916
    C           -1.373588979853     0.549462679422    -0.453366178767
    H            0.085885040876    -0.717120601158    -1.457928402223
    H           -0.534304071453    -1.412527292168     0.012458732677
    C           -2.748592203368    -0.119240175394    -0.505323087460
    H           -1.272626963502     1.190106413354    -1.323695767386
    H           -1.300426598125     1.181411087332     0.421798277612
    H           -2.847197093223    -0.757301203597    -1.379266683937
    H           -3.538489582273     0.623454449370    -0.548956861580
    H           -2.920172912449    -0.733861900260     0.373832750153

  Mulliken Charges: (a.u.)
   Center  Symbol    Alpha    Beta     Spin     Total
       1     H     0.26768  0.26768  0.00000  0.46464
       2     O     4.35017  4.35017  0.00000 -0.70034
       3     C     2.62816  2.62816  0.00000  0.74368
       4     C     3.21007  3.21007  0.00000 -0.42013
       5     O     4.27852  4.27852  0.00000 -0.55705
       6     C     3.15665  3.15665  0.00000 -0.31330
       7     H     0.39681  0.39681  0.00000  0.20639
       8     H     0.39734  0.39734  0.00000  0.20532
       9     C     3.24357  3.24357  0.00000 -0.48713
      10     H     0.41552  0.41552  0.00000  0.16896
      11     H     0.39837  0.39837  0.00000  0.20327
      12     H     0.42136  0.42136  0.00000  0.15727
      13     H     0.41555  0.41555  0.00000  0.16889
      14     H     0.42023  0.42023  0.00000  0.15955

   Total alpha = 24.00000, Total beta = 24.00000, Total charge =  0.00000
