                              Psi4 1.0.54 Driver

  ==> Input File <==

--------------------------------------------------------------------------
set {
	reference rhf
	basis cc-pvtz
}

set_num_threads( 4 )
memory 2 gb

molecule MOL {
0 1

O	 0.623971	 1.347241	 -0.000777
C	 0.485107	 0.171416	 -0.000134
C	 1.606966	 -0.836201	 0.000174
O	 -0.695554	 -0.422406	 0.000602
C	 2.988788	 -0.202529	 -0.000115
H	 1.465110	 -1.474645	 -0.864821
H	 1.465209	 -1.474077	 0.865596
H	 3.131767	 0.419673	 -0.873407
H	 3.750876	 -0.972315	 0.000098
H	 3.131883	 0.420264	 0.872742
C	 -1.480530	 -0.335590	 1.181518
C	 -2.770159	 -1.082849	 0.934639
H	 -1.662296	 0.705390	 1.408826
H	 -0.926434	 -0.761759	 2.005946
H	 -3.315672	 -0.647921	 0.106613
H	 -3.394742	 -1.036167	 1.818917
H	 -2.575649	 -2.123429	 0.707199

	symmetry c1
}
set optking {
	frozen_dihedral = ("
		11 4 2 3
	")
}

ee,wfn = optimize('scf', return_wfn=True)
oeprop( wfn, 'DIPOLE', 'QUADRUPOLE', 'MULLIKEN_CHARGES')
f=open( 'psi4out.xyz', 'w' )
f.write( "17  " )
f.write( str(ee) + "\n" )
f.write( MOL.save_string_xyz() )
f.close()
--------------------------------------------------------------------------

    Molecular point group: c1
  Charge       = 0
  Multiplicity = 1
  Basis Set: CC-PVTZ
  Basis Set:
  @DF-RHF Final Energy:  -345.02407104449554
    Total Energy =                       -345.0240710444949173
    Molecular point group: c1
  Basis Set: CC-PVTZ
  Basis Set:
  Basis Set: CC-PVTZ
  Basis Set:
  @DF-RHF Final Energy:  -345.02400772954064
    Total Energy =                       -345.0240077295409833
  Basis Set: CC-PVTZ
  Basis Set:
  Basis Set: CC-PVTZ
  Basis Set:
  @DF-RHF Final Energy:  -345.02415675713007
    Total Energy =                       -345.0241567571303563
  Basis Set: CC-PVTZ
  Basis Set:
  Basis Set: CC-PVTZ
  Basis Set:
  @DF-RHF Final Energy:  -345.02492976721919
    Total Energy =                       -345.0249297672194189
  Basis Set: CC-PVTZ
  Basis Set:
  Basis Set: CC-PVTZ
  Basis Set:
  @DF-RHF Final Energy:  -345.02495475244342
    Total Energy =                       -345.0249547524435911
  Basis Set: CC-PVTZ
  Basis Set:
  Basis Set: CC-PVTZ
  Basis Set:
  @DF-RHF Final Energy:  -345.02495726009278
    Total Energy =                       -345.0249572600926058
  Basis Set: CC-PVTZ
  Basis Set:
  Charge       = 0
  Multiplicity = 1
  Basis Set: CC-PVTZ
  Basis Set:

    Orbital Energies (a.u.)
    -----------------------

    Doubly Occupied:

       1A    -20.576298     2A    -20.543116     3A    -11.366431
       4A    -11.290030     5A    -11.239481     6A    -11.221496
       7A    -11.216288     8A     -1.461433     9A     -1.367399
      10A     -1.067573    11A     -1.035273    12A     -0.907364
      13A     -0.858923    14A     -0.770819    15A     -0.702792
      16A     -0.685191    17A     -0.660414    18A     -0.635314
      19A     -0.602759    20A     -0.564055    21A     -0.557699
      22A     -0.529262    23A     -0.525066    24A     -0.520229
      25A     -0.505255    26A     -0.494647    27A     -0.452808
      28A     -0.436838

  @DF-RHF Final Energy:  -345.02495735190394

   => Energetics <=

    Nuclear Repulsion Energy =            314.8470028878687117
    One-Electron Energy =               -1094.1554045712446168
    Two-Electron Energy =                 434.2834443314718555
    DFT Exchange-Correlation Energy =       0.0000000000000000
    Empirical Dispersion Energy =           0.0000000000000000
    PCM Polarization Energy =               0.0000000000000000
    EFP Energy =                            0.0000000000000000
    Total Energy =                       -345.0249573519040496
    Molecular point group: c1
  Basis Set: CC-PVTZ
  Basis Set:

  -Total Gradient:
     Atom            X                  Y                   Z
    ------   -----------------  -----------------  -----------------
       1        0.000007053724    -0.000008984994    -0.000019420403
       2        0.001187156740    -0.001688722209    -0.006205089009
       3       -0.000034606022    -0.000337383390     0.004855755029
       4       -0.003418297156     0.006619645895    -0.000184340924
       5       -0.000005888491    -0.000005923025     0.000001130020
       6       -0.000002148837     0.000007917041     0.000004006511
       7       -0.000001716916     0.000001320236     0.000001119256
       8       -0.000003126313    -0.000000851160    -0.000000579967
       9       -0.000002193257    -0.000000313088     0.000000314310
      10       -0.000000470199     0.000000864316     0.000001351101
      11        0.002280370501    -0.004572708257     0.001537823924
      12       -0.000005916255    -0.000005441788     0.000012003765
      13       -0.000002990360    -0.000003621304     0.000002571078
      14       -0.000000832873    -0.000002612720    -0.000017517459
      15        0.000010994317     0.000000884368     0.000006692225
      16       -0.000008334201    -0.000004906965     0.000004655346
      17        0.000000945596     0.000000837047    -0.000000474804

  **** Optimization is complete! (in 7 steps) ****
    Final optimized geometry and variables:
    Molecular point group: c1

    Geometry (in Angstrom), charge = 0, multiplicity = 1:

    O            0.492630323020     1.540652865724    -0.154340182965
    C            0.394660868933     0.373135867092    -0.275940155979
    C            1.551373351968    -0.589440983368    -0.334631990198
    O           -0.798560062993    -0.245512355571    -0.331622214558
    C            2.914228327767     0.082463672395    -0.363737095014
    H            1.402605170494    -1.229807950038    -1.197029505079
    H            1.449295009920    -1.238006797902     0.530887002116
    H            3.014490506902     0.717645232895    -1.234027167118
    H            3.698727543551    -0.663808071291    -0.394115749668
    H            3.062578927907     0.700303694216     0.511576933180
    C           -1.578354063449    -0.242859598685     0.853977886675
    C           -2.890690883457    -0.929405784880     0.558803980466
    H           -1.735233379472     0.777942752278     1.175965875584
    H           -1.037043294193    -0.769378140896     1.634023560852
    H           -3.428235804365    -0.400354838462    -0.217318931583
    H           -3.504240151368    -0.950233662568     1.451917023742
    H           -2.725778510508    -1.947531737663     0.229878421192

  Mulliken Charges: (a.u.)
   Center  Symbol    Alpha    Beta     Spin     Total
       1     O     4.17613  4.17613  0.00000 -0.35225
       2     C     2.79890  2.79890  0.00000  0.40219
       3     C     3.10000  3.10000  0.00000 -0.20000
       4     O     4.17286  4.17286  0.00000 -0.34571
       5     C     3.13869  3.13869  0.00000 -0.27738
       6     H     0.43901  0.43901  0.00000  0.12197
       7     H     0.44622  0.44622  0.00000  0.10756
       8     H     0.44782  0.44782  0.00000  0.10436
       9     H     0.45066  0.45066  0.00000  0.09867
      10     H     0.44785  0.44785  0.00000  0.10430
      11     C     2.97601  2.97601  0.00000  0.04798
      12     C     3.13490  3.13490  0.00000 -0.26979
      13     H     0.44899  0.44899  0.00000  0.10202
      14     H     0.46727  0.46727  0.00000  0.06545
      15     H     0.44708  0.44708  0.00000  0.10584
      16     H     0.45648  0.45648  0.00000  0.08703
      17     H     0.45112  0.45112  0.00000  0.09775

   Total alpha = 28.00000, Total beta = 28.00000, Total charge = -0.00000

*** Psi4 exiting successfully. Buy a developer a beer!
