  ==> Input File <==

--------------------------------------------------------------------------
set {
	reference rhf
	basis 6-31G*
}

set_num_threads( 4 )
memory 2 gb

molecule MOL {
0 1

H	 -2.032404	 -1.131163	 -2.511978
N	 -1.120832	 -1.230772	 -2.109374
C	 -1.204232	 -1.320662	 -0.662285
H	 -0.591687	 -0.419375	 -2.363837
C	 0.185095	 -1.432180	 -0.070280
H	 -1.708647	 -0.472062	 -0.198123
H	 -1.763399	 -2.214123	 -0.401822
O	 0.874168	 -0.245412	 -0.342030
H	 0.124143	 -1.591602	 1.006060
H	 0.704161	 -2.279608	 -0.512628
C	 2.202317	 -0.244239	 0.074611
H	 2.711377	 -1.041390	 -0.449894
H	 2.692099	 0.699270	 -0.159667
H	 2.283185	 -0.418429	 1.145558

	symmetry c1
}
set optking {
	frozen_dihedral = ("
		5 8 11 13
	")
}

ee = optimize('scf')
oeprop('DIPOLE', 'QUADRUPOLE', 'MULLIKEN_CHARGES')
f=open( 'psi4out.xyz', 'w' )
f.write( "14  " )
f.write( str(ee) + "\n" )
f.write( MOL.save_string_xyz() )
f.close()
--------------------------------------------------------------------------

    Molecular point group: c1
  Charge       = 0
  Multiplicity = 1
  Basis Set: 6-31G*
  Basis Set:
  @DF-RHF Final Energy:  -248.12415603603785
    Total Energy =                       -248.1241560360379594
    Molecular point group: c1
  Basis Set: 6-31G*
  Basis Set:
  Basis Set: 6-31G*
  Basis Set:
  @DF-RHF Final Energy:  -248.12500801728947
    Total Energy =                       -248.1250080172893604
  Basis Set: 6-31G*
  Basis Set:
  Basis Set: 6-31G*
  Basis Set:
  @DF-RHF Final Energy:  -248.12526981132922
    Total Energy =                       -248.1252698113291331
  Basis Set: 6-31G*
  Basis Set:
  Charge       = 0
  Multiplicity = 1
  Basis Set: 6-31G*
  Basis Set:

    Orbital Energies (a.u.)
    -----------------------

    Doubly Occupied:

       1A    -20.557505     2A    -15.528449     3A    -11.266224
       4A    -11.265626     5A    -11.240791     6A     -1.381612
       7A     -1.173582     8A     -0.999075     9A     -0.907191
      10A     -0.815225    11A     -0.683866    12A     -0.674073
      13A     -0.645408    14A     -0.610119    15A     -0.605251
      16A     -0.540712    17A     -0.530093    18A     -0.496867
      19A     -0.472829    20A     -0.417675    21A     -0.380101

  @DF-RHF Final Energy:  -248.12527080375037

   => Energetics <=

    Nuclear Repulsion Energy =            194.6990661136159133
    One-Electron Energy =                -723.2641213732608776
    Two-Electron Energy =                 280.4397844558947099
    DFT Exchange-Correlation Energy =       0.0000000000000000
    Empirical Dispersion Energy =           0.0000000000000000
    PCM Polarization Energy =               0.0000000000000000
    EFP Energy =                            0.0000000000000000
    Total Energy =                       -248.1252708037502543
    Molecular point group: c1
  Basis Set: 6-31G*
  Basis Set:

  -Total Gradient:
     Atom            X                  Y                   Z
    ------   -----------------  -----------------  -----------------
       1        0.000002890104     0.000008808753    -0.000020079388
       2       -0.000015075905    -0.000001043429    -0.000030725740
       3        0.000089525382     0.000101715587    -0.000018049439
       4       -0.000000681501     0.000011744690    -0.000013250529
       5        0.000070471807    -0.000087471464     0.000142122105
       6       -0.000015388407     0.000008709580     0.000009294092
       7        0.000074379161     0.000005100266     0.000029077743
       8       -0.000033909758     0.000019685882    -0.000062149550
       9       -0.000006104964    -0.000009615204     0.000015914929
      10        0.000012031365     0.000028895767    -0.000023727840
      11       -0.000007136975    -0.000061525591     0.000045656928
      12       -0.000042676528    -0.000018392047    -0.000023805124
      13       -0.000071440064     0.000003286897    -0.000042506954
      14       -0.000056883721    -0.000009899691    -0.000007771231

  **** Optimization is complete! (in 4 steps) ****
    Final optimized geometry and variables:
    Molecular point group: c1

    Geometry (in Angstrom), charge = 0, multiplicity = 1:

    H           -2.233747179609    -0.236244203663    -1.879191366659
    N           -1.322345377795    -0.340915568161    -1.477555403703
    C           -1.404629058872    -0.434787918048    -0.030536944335
    H           -0.790004660311     0.468912759032    -1.730303903489
    C           -0.015538794900    -0.554488812270     0.560259682143
    H           -1.904974707366     0.414549013927     0.436674284915
    H           -1.967170509676    -1.326604169661     0.227977835960
    O            0.678183416516     0.629626439698     0.289643250659
    H           -0.076023431327    -0.715871615702     1.636367978555
    H            0.499174820588    -1.403212126136     0.115420203943
    C            2.006941838067     0.623259509270     0.704123635526
    H            2.573559732717    -0.163232399386     0.210005853175
    H            2.435864947909     1.581383339556     0.444106640077
    H            2.086570569149     0.482595557637     1.780568827260

  Mulliken Charges: (a.u.)
   Center  Symbol    Alpha    Beta     Spin     Total
       1     H     0.33282  0.33282  0.00000  0.33436
       2     N     3.92528  3.92528  0.00000 -0.85056
       3     C     3.06891  3.06891  0.00000 -0.13782
       4     H     0.32373  0.32373  0.00000  0.35254
       5     C     2.99018  2.99018  0.00000  0.01965
       6     H     0.42660  0.42660  0.00000  0.14679
       7     H     0.42046  0.42046  0.00000  0.15907
       8     O     4.30961  4.30961  0.00000 -0.61923
       9     H     0.43097  0.43097  0.00000  0.13805
      10     H     0.42255  0.42255  0.00000  0.15490
      11     C     3.07905  3.07905  0.00000 -0.15810
      12     H     0.42744  0.42744  0.00000  0.14513
      13     H     0.41250  0.41250  0.00000  0.17500
      14     H     0.42989  0.42989  0.00000  0.14021

   Total alpha = 21.00000, Total beta = 21.00000, Total charge = -0.00000
