                              Psi4 1.0.54 Driver

  ==> Input File <==

--------------------------------------------------------------------------
set {
	reference rhf
	basis cc-pvtz
}

set_num_threads( 4 )
memory 2 gb

molecule MOL {
0 1

H	 -1.208110	 -2.144060	 -0.982231
N	 -0.498863	 -1.447291	 -1.066221
C	 -0.561396	 -0.500007	 0.035200
H	 -0.640327	 -0.986726	 -1.940980
C	 0.575129	 0.507849	 -0.048832
H	 -0.473567	 -1.060000	 0.960356
H	 -1.511009	 0.035162	 0.082573
C	 1.951750	 -0.141983	 0.035101
H	 0.478254	 1.061643	 -0.975981
H	 0.467676	 1.231891	 0.755499
H	 2.101550	 -0.848142	 -0.774949
H	 2.738260	 0.600794	 -0.026526
H	 2.078939	 -0.679792	 0.968824

	symmetry c1
}
set optking {
	frozen_dihedral = ("
		6 3 5 9
	")
}

ee,wfn = optimize('scf', return_wfn=True)
oeprop( wfn, 'DIPOLE', 'QUADRUPOLE', 'MULLIKEN_CHARGES')
f=open( 'psi4out.xyz', 'w' )
f.write( "13  " )
f.write( str(ee) + "\n" )
f.write( MOL.save_string_xyz() )
f.close()
--------------------------------------------------------------------------

    Molecular point group: c1
  Charge       = 0
  Multiplicity = 1
  Basis Set: CC-PVTZ
  Basis Set:
  @DF-RHF Final Energy:  -173.35184983555143
    Total Energy =                       -173.3518498355513771
    Molecular point group: c1
  Basis Set: CC-PVTZ
  Basis Set:
  Basis Set: CC-PVTZ
  Basis Set:
  @DF-RHF Final Energy:  -173.35202412807121
    Total Energy =                       -173.3520241280712071
  Basis Set: CC-PVTZ
  Basis Set:
  Basis Set: CC-PVTZ
  Basis Set:
  @DF-RHF Final Energy:  -173.35205933452062
    Total Energy =                       -173.3520593345205896
  Basis Set: CC-PVTZ
  Basis Set:
  Basis Set: CC-PVTZ
  Basis Set:
  @DF-RHF Final Energy:  -173.35206131328263
    Total Energy =                       -173.3520613132824622
  Basis Set: CC-PVTZ
  Basis Set:
  Charge       = 0
  Multiplicity = 1
  Basis Set: CC-PVTZ
  Basis Set:

    Orbital Energies (a.u.)
    -----------------------

    Doubly Occupied:

       1A    -15.527317     2A    -11.238982     3A    -11.210980
       4A    -11.197512     5A     -1.179113     6A     -1.030225
       7A     -0.902853     8A     -0.791967     9A     -0.665386
      10A     -0.627164    11A     -0.604799    12A     -0.559294
      13A     -0.530197    14A     -0.491267    15A     -0.473661
      16A     -0.467080    17A     -0.383508

  @DF-RHF Final Energy:  -173.35206154454931

   => Energetics <=

    Nuclear Repulsion Energy =            133.8136265530970945
    One-Electron Energy =                -498.5687625776046730
    Two-Electron Energy =                 191.4030744799582067
    DFT Exchange-Correlation Energy =       0.0000000000000000
    Empirical Dispersion Energy =           0.0000000000000000
    PCM Polarization Energy =               0.0000000000000000
    EFP Energy =                            0.0000000000000000
    Total Energy =                       -173.3520615445493718
    Molecular point group: c1
  Basis Set: CC-PVTZ
  Basis Set:

  -Total Gradient:
     Atom            X                  Y                   Z
    ------   -----------------  -----------------  -----------------
       1       -0.000009489044    -0.000005759061    -0.000006173952
       2        0.000004079043     0.000004465435     0.000021137125
       3        0.000300635725    -0.000354457336    -0.000270247520
       4        0.000002527204    -0.000001051834    -0.000007244003
       5        0.000303576245    -0.000386693926    -0.000248850820
       6       -0.000303222108     0.000368685127     0.000259919349
       7       -0.000004864154    -0.000013891233    -0.000009369957
       8        0.000015813829     0.000018572602     0.000011733320
       9       -0.000311456044     0.000373716826     0.000254628099
      10        0.000008687819     0.000014942042     0.000004888848
      11       -0.000005472416    -0.000004402129    -0.000008410394
      12       -0.000009417997    -0.000010595239     0.000001365863
      13        0.000008601898    -0.000003531273    -0.000003375958

  **** Optimization is complete! (in 5 steps) ****
    Final optimized geometry and variables:
    Molecular point group: c1

    Geometry (in Angstrom), charge = 0, multiplicity = 1:

    H           -1.577974003947    -1.731352489728    -0.684215337635
    N           -0.880998620159    -1.026033085418    -0.793360022643
    C           -0.908300980720    -0.085171122865     0.316009815341
    H           -1.063972109495    -0.561227360308    -1.658302819175
    C            0.238779717048     0.915253408778     0.234505649664
    H           -0.822297673223    -0.652122018960     1.237286772923
    H           -1.847325865880     0.465160149975     0.376220099603
    C            1.623667371371     0.282881292391     0.319909113896
    H            0.148674935547     1.481202710316    -0.690194667131
    H            0.117014604735     1.635133224396     1.038724015280
    H            1.777272957714    -0.430256078864    -0.478177516791
    H            2.397790417766     1.039414133384     0.256388907909
    H            1.750865907596    -0.241755852587     1.261496245459

  Mulliken Charges: (a.u.)
   Center  Symbol    Alpha    Beta     Spin     Total
       1     H     0.42877  0.42877  0.00000  0.14246
       2     N     3.69074  3.69074  0.00000 -0.38148
       3     C     3.03273  3.03273  0.00000 -0.06546
       4     H     0.43045  0.43045  0.00000  0.13909
       5     C     3.08502  3.08502  0.00000 -0.17004
       6     H     0.45769  0.45769  0.00000  0.08462
       7     H     0.46105  0.46105  0.00000  0.07790
       8     C     3.14363  3.14363  0.00000 -0.28727
       9     H     0.45848  0.45848  0.00000  0.08304
      10     H     0.45291  0.45291  0.00000  0.09419
      11     H     0.44751  0.44751  0.00000  0.10498
      12     H     0.45223  0.45223  0.00000  0.09554
      13     H     0.45879  0.45879  0.00000  0.08242

   Total alpha = 17.00000, Total beta = 17.00000, Total charge =  0.00000

*** Psi4 exiting successfully. Buy a developer a beer!
