                              Psi4 1.0.54 Driver

  ==> Input File <==

--------------------------------------------------------------------------
set {
	reference rhf
	basis cc-pvtz
}

set_num_threads( 4 )
memory 2 gb

molecule MOL {
0 1

H	 -0.244514	 2.233298	 1.295632
C	 0.627348	 1.565850	 1.300363
C	 0.692262	 0.592428	 0.156232
O	 1.427201	 1.644061	 2.167400
C	 -0.554654	 -0.292621	 0.086567
H	 1.591234	 -0.000612	 0.261059
H	 0.774627	 1.172692	 -0.760495
C	 -1.846385	 0.513195	 -0.016346
H	 -0.473986	 -0.956115	 -0.769708
H	 -0.597929	 -0.929215	 0.966651
C	 -3.089953	 -0.365049	 -0.098564
H	 -1.798267	 1.154820	 -0.891143
H	 -1.925398	 1.173265	 0.842889
H	 -3.055079	 -1.012299	 -0.968245
H	 -3.988403	 0.236438	 -0.170014
H	 -3.183055	 -0.995885	 0.779079

	symmetry c1
}
set optking {
	frozen_dihedral = ("
		6 3 5 9
	")
}

ee,wfn = optimize('scf', return_wfn=True)
oeprop( wfn, 'DIPOLE', 'QUADRUPOLE', 'MULLIKEN_CHARGES')
f=open( 'psi4out.xyz', 'w' )
f.write( "16  " )
f.write( str(ee) + "\n" )
f.write( MOL.save_string_xyz() )
f.close()
--------------------------------------------------------------------------

    Molecular point group: c1
  Charge       = 0
  Multiplicity = 1
  Basis Set: CC-PVTZ
  Basis Set:
  @DF-RHF Final Energy:  -270.11487120775939
    Total Energy =                       -270.1148712077593927
    Molecular point group: c1
  Basis Set: CC-PVTZ
  Basis Set:
  Basis Set: CC-PVTZ
  Basis Set:
  @DF-RHF Final Energy:  -270.11527958901809
    Total Energy =                       -270.1152795890179732
  Basis Set: CC-PVTZ
  Basis Set:
  Basis Set: CC-PVTZ
  Basis Set:
  @DF-RHF Final Energy:  -270.11638855190847
    Total Energy =                       -270.1163885519083578
  Basis Set: CC-PVTZ
  Basis Set:
  Basis Set: CC-PVTZ
  Basis Set:
  @DF-RHF Final Energy:  -270.11657902036882
    Total Energy =                       -270.1165790203687038
  Basis Set: CC-PVTZ
  Basis Set:
  @DF-RHF Final Energy:  -270.11625178842485
    Total Energy =                       -270.1162517884247904
  @DF-RHF Final Energy:  -270.11670670179319
    Total Energy =                       -270.1167067017934187
  Basis Set: CC-PVTZ
  Basis Set:
  @DF-RHF Final Energy:  -270.11673594090075
    Total Energy =                       -270.1167359409008668
  Basis Set: CC-PVTZ
  Basis Set:
  Basis Set: CC-PVTZ
  Basis Set:
  @DF-RHF Final Energy:  -270.11676901084104
    Total Energy =                       -270.1167690108408124
  Basis Set: CC-PVTZ
  Basis Set:
  Basis Set: CC-PVTZ
  Basis Set:
  @DF-RHF Final Energy:  -270.11677147424973
    Total Energy =                       -270.1167714742496742
  Basis Set: CC-PVTZ
  Basis Set:
  Charge       = 0
  Multiplicity = 1
  Basis Set: CC-PVTZ
  Basis Set:

    Orbital Energies (a.u.)
    -----------------------

    Doubly Occupied:

       1A    -20.551686     2A    -11.320234     3A    -11.234188
       4A    -11.233502     5A    -11.228357     6A    -11.217009
       7A     -1.406089     8A     -1.096386     9A     -1.017703
      10A     -0.905673    11A     -0.830743    12A     -0.775812
      13A     -0.683959    14A     -0.652292    15A     -0.621550
      16A     -0.603079    17A     -0.584843    18A     -0.556749
      19A     -0.532286    20A     -0.517904    21A     -0.490199
      22A     -0.480481    23A     -0.471481    24A     -0.410374

  @DF-RHF Final Energy:  -270.11677190070014

   => Energetics <=

    Nuclear Repulsion Energy =            233.4134791100708526
    One-Electron Energy =                -828.2153443509824911
    Two-Electron Energy =                 324.6850933402115515
    DFT Exchange-Correlation Energy =       0.0000000000000000
    Empirical Dispersion Energy =           0.0000000000000000
    PCM Polarization Energy =               0.0000000000000000
    EFP Energy =                            0.0000000000000000
    Total Energy =                       -270.1167719007000869
    Molecular point group: c1
  Basis Set: CC-PVTZ
  Basis Set:

  -Total Gradient:
     Atom            X                  Y                   Z
    ------   -----------------  -----------------  -----------------
       1        0.000001420712     0.000012568627     0.000033615778
       2        0.000022197184    -0.000027609772    -0.000011038252
       3       -0.000004668192     0.000163311509    -0.001726155048
       4       -0.000044179215     0.000028219963    -0.000036671791
       5        0.000683019965    -0.001086725211     0.001135208826
       6       -0.000063835621     0.000003263267     0.001275893586
       7       -0.000005097975     0.000000607174     0.000016999519
       8        0.000004648562     0.000002350900    -0.000001226872
       9       -0.000591076059     0.000897069988    -0.000678574507
      10        0.000008651339     0.000004235661    -0.000005224274
      11       -0.000000842026    -0.000004110619    -0.000002621271
      12       -0.000007888980     0.000005228499    -0.000008990435
      13       -0.000000919344     0.000002709838     0.000003055585
      14       -0.000001359035    -0.000000451321    -0.000000766202
      15       -0.000002591865     0.000000718397     0.000001429321
      16        0.000002520553    -0.000001386898     0.000005066035

  **** Optimization is complete! (in 10 steps) ****
    Final optimized geometry and variables:
    Molecular point group: c1

    Geometry (in Angstrom), charge = 0, multiplicity = 1:

    H            0.554402916310     1.869530402920     0.641099285213
    C            1.196696512422     0.983051900841     0.687275192080
    C            1.156666147875     0.068902931315    -0.509689510729
    O            1.863886465956     0.790115287237     1.645172844903
    C           -0.103277506900    -0.809786377626    -0.549569537983
    H            2.037515613491    -0.557500082811    -0.463559758523
    H            1.205770775834     0.677533575283    -1.408309124722
    C           -1.425984808217    -0.044553376236    -0.589873417224
    H           -0.039760176504    -1.434827136576    -1.434242898908
    H           -0.094306011975    -1.476785065925     0.306418352250
    C           -2.628254599530    -0.970189893946    -0.743466377635
    H           -1.408462386702     0.663477215671    -1.414306300776
    H           -1.547339777169     0.541814686162     0.315440122265
    H           -2.565928577356    -1.542707225017    -1.662672272812
    H           -3.554306830598    -0.408052765891    -0.765285649806
    H           -2.687060723614    -1.673270609506     0.080327893248

  Mulliken Charges: (a.u.)
   Center  Symbol    Alpha    Beta     Spin     Total
       1     H     0.46088  0.46088  0.00000  0.07823
       2     C     2.90574  2.90574  0.00000  0.18851
       3     C     3.09101  3.09101  0.00000 -0.18203
       4     O     4.16654  4.16654  0.00000 -0.33307
       5     C     3.10009  3.10009  0.00000 -0.20018
       6     H     0.43773  0.43773  0.00000  0.12454
       7     H     0.44958  0.44958  0.00000  0.10085
       8     C     3.09194  3.09194  0.00000 -0.18387
       9     H     0.44752  0.44752  0.00000  0.10497
      10     H     0.44436  0.44436  0.00000  0.11129
      11     C     3.14841  3.14841  0.00000 -0.29682
      12     H     0.45251  0.45251  0.00000  0.09499
      13     H     0.45068  0.45068  0.00000  0.09865
      14     H     0.45376  0.45376  0.00000  0.09248
      15     H     0.44673  0.44673  0.00000  0.10654
      16     H     0.45253  0.45253  0.00000  0.09495

   Total alpha = 24.00000, Total beta = 24.00000, Total charge =  0.00000

*** Psi4 exiting successfully. Buy a developer a beer!
