  ==> Input File <==

--------------------------------------------------------------------------
set {
	reference rhf
	basis 6-31G*
}

set_num_threads( 1 )
memory 2 gb

molecule MOL {
0 1

H	 2.902476	 -0.417239	 0.014401
O	 2.211127	 0.151859	 -0.291956
C	 1.135793	 0.118896	 0.612333
C	 0.031547	 1.023609	 0.088541
H	 1.452017	 0.470212	 1.592877
H	 0.771868	 -0.898695	 0.735493
C	 -1.134819	 0.293262	 -0.585751
H	 0.474374	 1.714721	 -0.623187
H	 -0.338529	 1.620940	 0.920081
C	 -1.917817	 -0.639439	 0.339494
H	 -0.758119	 -0.268455	 -1.433105
H	 -1.813832	 1.041889	 -0.986690
H	 -2.777680	 -1.057197	 -0.174994
H	 -1.310268	 -1.471279	 0.680599
H	 -2.283753	 -0.111424	 1.216626

	symmetry c1
}
set optking {
	frozen_dihedral = ("
		8 4 7 11,
		1 2 3 4
	")
}

ee = energy('scf')
oeprop('DIPOLE', 'QUADRUPOLE', 'MULLIKEN_CHARGES')
f=open( 'psi4out.xyz', 'w' )
f.write( "15  " )
f.write( str(ee) + "\n" )
f.write( MOL.save_string_xyz() )
f.close()
--------------------------------------------------------------------------

    Molecular point group: c1

    Geometry (in Angstrom), charge = 0, multiplicity = 1:

       Center              X                  Y                   Z               Mass
    ------------   -----------------  -----------------  -----------------  -----------------
           H          2.780529244353    -0.587520092290    -0.022628479058     1.007825032070
           O          2.089180244353    -0.018422092290    -0.328985479058    15.994914619560
           C          1.013846244353    -0.051385092290     0.575303520942    12.000000000000
           C         -0.090399755647     0.853327907710     0.051511520942    12.000000000000
           H          1.330070244353     0.299930907710     1.555847520942     1.007825032070
           H          0.649921244353    -1.068976092290     0.698463520942     1.007825032070
           C         -1.256765755647     0.122980907710    -0.622780479058    12.000000000000
           H          0.352427244353     1.544439907710    -0.660216479058     1.007825032070
           H         -0.460475755647     1.450658907710     0.883051520942     1.007825032070
           C         -2.039763755647    -0.809720092290     0.302464520942    12.000000000000
           H         -0.880065755647    -0.438736092290    -1.470134479058     1.007825032070
           H         -1.935778755647     0.871607907710    -1.023719479058     1.007825032070
           H         -2.899626755647    -1.227478092290    -0.212023479058     1.007825032070
           H         -1.432214755647    -1.641560092290     0.643569520942     1.007825032070
           H         -2.405699755647    -0.281705092290     1.179596520942     1.007825032070

  Charge       = 0
  Multiplicity = 1
  Basis Set: 6-31G*
  Basis Set:

    Orbital Energies (a.u.)
    -----------------------

    Doubly Occupied:

       1A    -20.551351     2A    -11.265750     3A    -11.214216
       4A    -11.210455     5A    -11.209492     6A     -1.358096
       7A     -1.067802     8A     -0.970523     9A     -0.870365
      10A     -0.779016    11A     -0.703511    12A     -0.647755
      13A     -0.605937    14A     -0.583697    15A     -0.559254
      16A     -0.533656    17A     -0.512056    18A     -0.475876
      19A     -0.470856    20A     -0.453702    21A     -0.427549

  @DF-RHF Final Energy:  -232.13822754884379

   => Energetics <=

    Nuclear Repulsion Energy =            189.4229830986575678
    One-Electron Energy =                -690.1806537135582857
    Two-Electron Energy =                 268.6194430660565331
    DFT Exchange-Correlation Energy =       0.0000000000000000
    Empirical Dispersion Energy =           0.0000000000000000
    PCM Polarization Energy =               0.0000000000000000
    EFP Energy =                            0.0000000000000000
    Total Energy =                       -232.1382275488441564

  Mulliken Charges: (a.u.)
   Center  Symbol    Alpha    Beta     Spin     Total
       1     H     0.28194  0.28194  0.00000  0.43611
       2     O     4.37133  4.37133  0.00000 -0.74266
       3     C     2.99528  2.99528  0.00000  0.00944
       4     C     3.16499  3.16499  0.00000 -0.32999
       5     H     0.43050  0.43050  0.00000  0.13900
       6     H     0.42994  0.42994  0.00000  0.14012
       7     C     3.15700  3.15700  0.00000 -0.31400
       8     H     0.40376  0.40376  0.00000  0.19249
       9     H     0.42336  0.42336  0.00000  0.15328
      10     C     3.24289  3.24289  0.00000 -0.48578
      11     H     0.41630  0.41630  0.00000  0.16740
      12     H     0.42050  0.42050  0.00000  0.15901
      13     H     0.41787  0.41787  0.00000  0.16426
      14     H     0.42188  0.42188  0.00000  0.15624
      15     H     0.42246  0.42246  0.00000  0.15508

   Total alpha = 21.00000, Total beta = 21.00000, Total charge = -0.00000
