                              Psi4 1.0.54 Driver

  ==> Input File <==

--------------------------------------------------------------------------
set {
	reference rhf
	basis cc-pvtz
}

set_num_threads( 4 )
memory 2 gb

molecule MOL {
0 1

O	 -2.081319	 -0.951530	 -0.502732
N	 -1.613558	 0.006676	 0.014756
C	 -0.329345	 -0.171618	 0.743966
O	 -2.068523	 1.100482	 -0.024385
C	 0.835904	 0.041968	 -0.213982
H	 -0.346048	 -1.174374	 1.137184
H	 -0.333613	 0.555559	 1.538590
C	 2.177039	 -0.130175	 0.494460
H	 0.754456	 -0.665923	 -1.030569
H	 0.765464	 1.037260	 -0.637266
C	 2.686579	 1.172848	 1.100248
H	 2.910464	 -0.512857	 -0.209159
H	 2.079132	 -0.878042	 1.275815
H	 2.826261	 1.930258	 0.337020
H	 1.987618	 1.563500	 1.831385
H	 3.637320	 1.023031	 1.597045

	symmetry c1
}
set optking {
	frozen_dihedral = ("
		11 8 5 9
	")
}

ee,wfn = optimize('scf', return_wfn=True)
oeprop( wfn, 'DIPOLE', 'QUADRUPOLE', 'MULLIKEN_CHARGES')
f=open( 'psi4out.xyz', 'w' )
f.write( "16  " )
f.write( str(ee) + "\n" )
f.write( MOL.save_string_xyz() )
f.close()
--------------------------------------------------------------------------

    Molecular point group: c1
  Charge       = 0
  Multiplicity = 1
  Basis Set: CC-PVTZ
  Basis Set:
  @DF-RHF Final Energy:  -360.90617277562927
    Total Energy =                       -360.9061727756293294
    Molecular point group: c1
  Basis Set: CC-PVTZ
  Basis Set:
  Basis Set: CC-PVTZ
  Basis Set:
  @DF-RHF Final Energy:  -360.90649178853567
    Total Energy =                       -360.9064917885353907
  Basis Set: CC-PVTZ
  Basis Set:
  Basis Set: CC-PVTZ
  Basis Set:
  @DF-RHF Final Energy:  -360.90589091077214
    Total Energy =                       -360.9058909107719160
  Basis Set: CC-PVTZ
  Basis Set:
  Basis Set: CC-PVTZ
  Basis Set:
  @DF-RHF Final Energy:  -360.90648005233021
    Total Energy =                       -360.9064800523303802
  Basis Set: CC-PVTZ
  Basis Set:
  Basis Set: CC-PVTZ
  Basis Set:
  @DF-RHF Final Energy:  -360.90651932611610
    Total Energy =                       -360.9065193261161539
  Basis Set: CC-PVTZ
  Basis Set:
  Basis Set: CC-PVTZ
  Basis Set:
  @DF-RHF Final Energy:  -360.90653250827154
    Total Energy =                       -360.9065325082715390
  Basis Set: CC-PVTZ
  Basis Set:
  Charge       = 0
  Multiplicity = 1
  Basis Set: CC-PVTZ
  Basis Set:

    Orbital Energies (a.u.)
    -----------------------

    Doubly Occupied:

       1A    -20.589736     2A    -20.589525     3A    -15.836123
       4A    -11.296445     5A    -11.250601     6A    -11.241915
       7A    -11.226898     8A     -1.635157     9A     -1.419468
      10A     -1.136181    11A     -1.058290    12A     -0.949841
      13A     -0.849675    14A     -0.824344    15A     -0.760921
      16A     -0.737481    17A     -0.727141    18A     -0.666306
      19A     -0.631718    20A     -0.601883    21A     -0.567193
      22A     -0.551408    23A     -0.513693    24A     -0.502304
      25A     -0.495008    26A     -0.484920    27A     -0.470235
      28A     -0.451931

  @DF-RHF Final Energy:  -360.90653264049178

   => Energetics <=

    Nuclear Repulsion Energy =            315.4624591354395875
    One-Electron Energy =               -1116.6053054064707339
    Two-Electron Energy =                 440.2363136305395415
    DFT Exchange-Correlation Energy =       0.0000000000000000
    Empirical Dispersion Energy =           0.0000000000000000
    PCM Polarization Energy =               0.0000000000000000
    EFP Energy =                            0.0000000000000000
    Total Energy =                       -360.9065326404916618
    Molecular point group: c1
  Basis Set: CC-PVTZ
  Basis Set:

  -Total Gradient:
     Atom            X                  Y                   Z
    ------   -----------------  -----------------  -----------------
       1       -0.000009980982     0.000012884984    -0.000001934835
       2        0.000017276315    -0.000021513118     0.000008300017
       3        0.000001741644    -0.000000980244    -0.000000805483
       4       -0.000002894849     0.000002015348    -0.000008727606
       5       -0.001093340909    -0.002427143956     0.001716371998
       6        0.000000154051     0.000002152987    -0.000006300507
       7        0.000002909659     0.000003838874     0.000005874941
       8       -0.001185694268    -0.000175512046     0.002283009482
       9        0.001219498434     0.002111704370    -0.002001500277
      10       -0.000004950381    -0.000001808389     0.000002658292
      11        0.001053382405     0.000495513858    -0.001989012526
      12        0.000005007085     0.000008904776    -0.000003346420
      13       -0.000002940550    -0.000003684677     0.000001667908
      14        0.000005691737     0.000008004286    -0.000001216053
      15       -0.000002160946    -0.000010815375    -0.000005291538
      16       -0.000003698455    -0.000003561678     0.000000252605

  **** Optimization is complete! (in 7 steps) ****
    Final optimized geometry and variables:
    Molecular point group: c1

    Geometry (in Angstrom), charge = 0, multiplicity = 1:

    O           -2.011500893815    -1.092769710643    -0.712243133360
    N           -1.519769273382    -0.149290316359    -0.189894113352
    C           -0.229032814424    -0.359127244873     0.519362135414
    O           -1.956055965093     0.952725317843    -0.209316526888
    C            0.927109615532    -0.154528091212    -0.451882013170
    H           -0.256771820391    -1.366890186886     0.898315287376
    H           -0.212925939929     0.356390820528     1.324062273231
    C            2.289287153222    -0.277095340009     0.244268864818
    H            0.849085268967    -0.870706334502    -1.259652142183
    H            0.835066676705     0.827723451038    -0.901044671096
    C            2.793671334518     1.034801012393     0.839155661345
    H            3.013139128356    -0.626508257070    -0.482609201340
    H            2.244713055460    -1.043273637850     1.012552952429
    H            2.926051887465     1.781462941029     0.064778635186
    H            2.104130824314     1.439635964224     1.572267994249
    H            3.747927267718     0.893197783581     1.331980284614

  Mulliken Charges: (a.u.)
   Center  Symbol    Alpha    Beta     Spin     Total
       1     O     4.17398  4.17398  0.00000 -0.34797
       2     N     3.27568  3.27568  0.00000  0.44863
       3     C     3.04062  3.04062  0.00000 -0.08123
       4     O     4.17366  4.17366  0.00000 -0.34733
       5     C     3.10897  3.10897  0.00000 -0.21793
       6     H     0.43367  0.43367  0.00000  0.13265
       7     H     0.43427  0.43427  0.00000  0.13145
       8     C     3.09789  3.09789  0.00000 -0.19578
       9     H     0.43087  0.43087  0.00000  0.13827
      10     H     0.43911  0.43911  0.00000  0.12177
      11     C     3.14592  3.14592  0.00000 -0.29184
      12     H     0.44254  0.44254  0.00000  0.11493
      13     H     0.45238  0.45238  0.00000  0.09525
      14     H     0.45086  0.45086  0.00000  0.09827
      15     H     0.45469  0.45469  0.00000  0.09063
      16     H     0.44489  0.44489  0.00000  0.11023

   Total alpha = 28.00000, Total beta = 28.00000, Total charge = -0.00000

*** Psi4 exiting successfully. Buy a developer a beer!
