  ==> Input File <==

--------------------------------------------------------------------------
set {
	reference rhf
	basis 6-31G*
}

set_num_threads( 4 )
memory 2 gb

molecule MOL {
0 1

O	 -0.682937	 1.318834	 -0.186099
C	 -0.860635	 0.152188	 -0.042321
C	 -2.173363	 -0.477127	 0.338347
O	 0.083258	 -0.765189	 -0.202595
H	 -2.477673	 -1.180929	 -0.427595
H	 -2.923125	 0.290956	 0.455536
H	 -2.058825	 -1.029004	 1.264191
C	 1.391937	 -0.334737	 -0.569838
C	 1.818740	 0.886901	 0.222681
H	 1.417226	 -0.142112	 -1.631628
H	 2.027169	 -1.180595	 -0.349602
H	 2.844376	 1.144294	 -0.023391
H	 1.189720	 1.736926	 -0.010040
H	 1.763217	 0.689196	 1.287691

	symmetry c1
}
set optking {
	frozen_dihedral = ("
		10 8 4 2
	")
}

ee = optimize('scf')
oeprop('DIPOLE', 'QUADRUPOLE', 'MULLIKEN_CHARGES')
f=open( 'psi4out.xyz', 'w' )
f.write( "14  " )
f.write( str(ee) + "\n" )
f.write( MOL.save_string_xyz() )
f.close()
--------------------------------------------------------------------------

    Molecular point group: c1
  Charge       = 0
  Multiplicity = 1
  Basis Set: 6-31G*
  Basis Set:
  @DF-RHF Final Energy:  -305.86057879094517
    Total Energy =                       -305.8605787909451124
    Molecular point group: c1
  Basis Set: 6-31G*
  Basis Set:
  Basis Set: 6-31G*
  Basis Set:
  @DF-RHF Final Energy:  -305.86908860967344
    Total Energy =                       -305.8690886096735539
  Basis Set: 6-31G*
  Basis Set:
  Basis Set: 6-31G*
  Basis Set:
  @DF-RHF Final Energy:  -305.86993763491762
    Total Energy =                       -305.8699376349175054
  Basis Set: 6-31G*
  Basis Set:
  Basis Set: 6-31G*
  Basis Set:
  @DF-RHF Final Energy:  -305.86668840414683
    Total Energy =                       -305.8666884041468847
  Basis Set: 6-31G*
  Basis Set:
  Basis Set: 6-31G*
  Basis Set:
  @DF-RHF Final Energy:  -305.87035146153232
    Total Energy =                       -305.8703514615323229
  Basis Set: 6-31G*
  Basis Set:
  Basis Set: 6-31G*
  Basis Set:
  @DF-RHF Final Energy:  -305.87041354241296
    Total Energy =                       -305.8704135424130754
  Basis Set: 6-31G*
  Basis Set:
  Basis Set: 6-31G*
  Basis Set:
  @DF-RHF Final Energy:  -305.87041706419529
    Total Energy =                       -305.8704170641952373
  Basis Set: 6-31G*
  Basis Set:
  Charge       = 0
  Multiplicity = 1
  Basis Set: 6-31G*
  Basis Set:

    Orbital Energies (a.u.)
    -----------------------

    Doubly Occupied:

       1A    -20.600753     2A    -20.543312     3A    -11.375477
       4A    -11.289152     5A    -11.232171     6A    -11.216828
       7A     -1.464894     8A     -1.362600     9A     -1.054722
      10A     -0.997860    11A     -0.890075    12A     -0.753796
      13A     -0.695853    14A     -0.681118    15A     -0.662327
      16A     -0.612632    17A     -0.587840    18A     -0.570034
      19A     -0.551607    20A     -0.532462    21A     -0.513270
      22A     -0.494942    23A     -0.450659    24A     -0.433006

  @DF-RHF Final Energy:  -305.87041790142450

   => Energetics <=

    Nuclear Repulsion Energy =            249.5233446212670572
    One-Electron Energy =                -911.6527485413389513
    Two-Electron Energy =                 356.2589860186474198
    DFT Exchange-Correlation Energy =       0.0000000000000000
    Empirical Dispersion Energy =           0.0000000000000000
    PCM Polarization Energy =               0.0000000000000000
    EFP Energy =                            0.0000000000000000
    Total Energy =                       -305.8704179014245028
    Molecular point group: c1
  Basis Set: 6-31G*
  Basis Set:

  -Total Gradient:
     Atom            X                  Y                   Z
    ------   -----------------  -----------------  -----------------
       1       -0.000033508025    -0.000024503431    -0.000034891625
       2        0.001218131086     0.000456155021     0.005650287541
       3        0.000017700251     0.000004584096     0.000059058293
       4       -0.001291652931    -0.002010323172    -0.008618586495
       5       -0.000008579384     0.000002527145    -0.000025336989
       6       -0.000006486577    -0.000002542696    -0.000002438678
       7       -0.000007696121    -0.000012842887    -0.000027502424
       8       -0.001547813328     0.007564155552     0.004002914644
       9       -0.000042488305     0.000024482643     0.000018352733
      10        0.001691814243    -0.005987703280    -0.001025585288
      11        0.000004296224    -0.000006369393     0.000012953592
      12       -0.000004728158     0.000003274451    -0.000011534755
      13        0.000013637629    -0.000003315621     0.000003096118
      14       -0.000002626601    -0.000007578427    -0.000000786668

  **** Optimization is complete! (in 8 steps) ****
    Final optimized geometry and variables:
    Molecular point group: c1

    Geometry (in Angstrom), charge = 0, multiplicity = 1:

    O           -0.776059827496     1.171741498885    -0.276764851067
    C           -0.842511646304     0.014896833692    -0.013032288425
    C           -2.080426462399    -0.675636820758     0.494804213419
    O            0.154955750350    -0.845634157034    -0.152884826000
    H           -2.353919003584    -1.478897333481    -0.179450609675
    H           -2.888095551909     0.037156966015     0.569089778579
    H           -1.882325839460    -1.115596034804     1.465412550522
    C            1.479528248134    -0.409369847696    -0.459530161872
    C            2.019302614691     0.726168605734     0.392792219730
    H            1.539595451227    -0.210469641767    -1.522176816152
    H            2.068028390653    -1.298821489154    -0.280761681978
    H            3.087067570880     0.807731672241     0.212113967942
    H            1.553196074695     1.671622906938     0.166642018384
    H            1.876768972394     0.506962079858     1.446244424791

  Mulliken Charges: (a.u.)
   Center  Symbol    Alpha    Beta     Spin     Total
       1     O     4.28386  4.28386  0.00000 -0.56772
       2     C     2.61752  2.61752  0.00000  0.76496
       3     C     3.28132  3.28132  0.00000 -0.56264
       4     O     4.31192  4.31192  0.00000 -0.62384
       5     H     0.40011  0.40011  0.00000  0.19978
       6     H     0.39751  0.39751  0.00000  0.20497
       7     H     0.40165  0.40165  0.00000  0.19671
       8     C     2.99627  2.99627  0.00000  0.00746
       9     C     3.26356  3.26356  0.00000 -0.52712
      10     H     0.41200  0.41200  0.00000  0.17600
      11     H     0.41040  0.41040  0.00000  0.17921
      12     H     0.41801  0.41801  0.00000  0.16398
      13     H     0.38981  0.38981  0.00000  0.22037
      14     H     0.41606  0.41606  0.00000  0.16789

   Total alpha = 24.00000, Total beta = 24.00000, Total charge = -0.00000
