                              Psi4 1.0.54 Driver

  ==> Input File <==

--------------------------------------------------------------------------
set {
	reference rhf
	basis cc-pvtz
}

set_num_threads( 4 )
memory 2 gb

molecule MOL {
0 1

H	 -4.018126	 -0.508080	 0.312296
C	 -2.956008	 -0.353405	 0.324849
C	 -2.440747	 0.863915	 0.732624
C	 -2.107102	 -1.371321	 -0.066542
H	 -3.100266	 1.653552	 1.036280
C	 -1.075815	 1.061918	 0.748486
H	 -2.507687	 -2.314989	 -0.382604
C	 -0.740148	 -1.174595	 -0.051209
H	 -0.659953	 1.998014	 1.061283
C	 -0.220529	 0.043642	 0.356718
H	 -0.079957	 -1.960838	 -0.353699
C	 1.246453	 0.307570	 0.391738
O	 1.968286	 -0.725612	 -0.000027
O	 1.723216	 1.337162	 0.734981
C	 3.373556	 -0.568203	 0.000011
H	 3.695416	 -0.031588	 -0.879663
H	 3.782700	 -1.565294	 -0.000152
H	 3.695405	 -0.031851	 0.879862

	symmetry c1
}
set optking {
	frozen_dihedral = ("
		12 13 15 16
	")
}

ee,wfn = optimize('scf', return_wfn=True)
oeprop( wfn, 'DIPOLE', 'QUADRUPOLE', 'MULLIKEN_CHARGES')
f=open( 'psi4out.xyz', 'w' )
f.write( "18  " )
f.write( str(ee) + "\n" )
f.write( MOL.save_string_xyz() )
f.close()
--------------------------------------------------------------------------

    Molecular point group: c1
  Charge       = 0
  Multiplicity = 1
  Basis Set: CC-PVTZ
  Basis Set:
  @DF-RHF Final Energy:  -457.50960112849856
    Total Energy =                       -457.5096011284990709
    Molecular point group: c1
  Basis Set: CC-PVTZ
  Basis Set:
  Basis Set: CC-PVTZ
  Basis Set:
  @DF-RHF Final Energy:  -457.50964356585581
    Total Energy =                       -457.5096435658560949
  Basis Set: CC-PVTZ
  Basis Set:
  Basis Set: CC-PVTZ
  Basis Set:
  @DF-RHF Final Energy:  -457.50944115384311
    Total Energy =                       -457.5094411538435679
  Basis Set: CC-PVTZ
  Basis Set:
  Basis Set: CC-PVTZ
  Basis Set:
  @DF-RHF Final Energy:  -457.50968613980285
    Total Energy =                       -457.5096861398027386
  Basis Set: CC-PVTZ
  Basis Set:
  Charge       = 0
  Multiplicity = 1
  Basis Set: CC-PVTZ
  Basis Set:

    Orbital Energies (a.u.)
    -----------------------

    Doubly Occupied:

       1A    -20.600768     2A    -20.534253     3A    -11.372074
       4A    -11.280992     5A    -11.244899     6A    -11.243439
       7A    -11.242615     8A    -11.239965     9A    -11.235996
      10A    -11.235231    11A     -1.476409    12A     -1.368620
      13A     -1.170709    14A     -1.051799    15A     -1.028990
      16A     -0.980884    17A     -0.863151    18A     -0.838389
      19A     -0.781010    20A     -0.745029    21A     -0.687996
      22A     -0.681276    23A     -0.676334    24A     -0.634125
      25A     -0.630007    26A     -0.601235    27A     -0.587553
      28A     -0.566643    29A     -0.530456    30A     -0.520259
      31A     -0.509671    32A     -0.502097    33A     -0.463543
      34A     -0.449337    35A     -0.350177    36A     -0.346187

  @DF-RHF Final Energy:  -457.50969367103613

   => Energetics <=

    Nuclear Repulsion Energy =            493.9205403137058852
    One-Electron Energy =               -1602.3162312630759061
    Two-Electron Energy =                 650.8859972783338890
    DFT Exchange-Correlation Energy =       0.0000000000000000
    Empirical Dispersion Energy =           0.0000000000000000
    PCM Polarization Energy =               0.0000000000000000
    EFP Energy =                            0.0000000000000000
    Total Energy =                       -457.5096936710360751
    Molecular point group: c1
  Basis Set: CC-PVTZ
  Basis Set:

  -Total Gradient:
     Atom            X                  Y                   Z
    ------   -----------------  -----------------  -----------------
       1        0.000002407027    -0.000002028619    -0.000000670066
       2        0.000008593610     0.000013737077     0.000004448274
       3        0.000001772947    -0.000012466285    -0.000006024433
       4        0.000019212261    -0.000009773148    -0.000004318899
       5        0.000004968436     0.000001710245     0.000002210036
       6        0.000016007428    -0.000003849748     0.000003842575
       7       -0.000000557496     0.000000840798    -0.000001529731
       8       -0.000026955682    -0.000013826635    -0.000007191067
       9       -0.000000646780     0.000003072197    -0.000001894239
      10        0.000009551432     0.000001565826    -0.000006728697
      11       -0.000000130568     0.000001425015     0.000002353329
      12        0.000018821130    -0.000430462831     0.001273717659
      13       -0.000034572620     0.000279201754    -0.002001058693
      14        0.000033045549     0.000002485920    -0.000021240528
      15       -0.000036370547     0.001438649481     0.001515726119
      16        0.000069407265    -0.001292594256    -0.000761858224
      17       -0.000040874220     0.000022974655     0.000003303380
      18       -0.000043679179    -0.000000661446     0.000006913204

  **** Optimization is complete! (in 5 steps) ****
    Final optimized geometry and variables:
    Molecular point group: c1

    Geometry (in Angstrom), charge = 0, multiplicity = 1:

    H           -4.022488452474    -0.465151916431     0.020362093897
    C           -2.960799707560    -0.306942794178     0.026467297627
    C           -2.447392156418     0.914244870148     0.425161214907
    C           -2.110521165124    -1.323936309128    -0.364224547276
    H           -3.107905802216     1.703359566062     0.728208396539
    C           -1.083096529484     1.116901146194     0.432590603677
    H           -2.509430534988    -2.270625760212    -0.673403630587
    C           -0.744061842927    -1.122582968299    -0.357122931815
    H           -0.668884349263     2.056191420245     0.738050166409
    C           -0.226389786780     0.099384154169     0.041753860261
    H           -0.083035918995    -1.908292916585    -0.659252315225
    C            1.240254431714     0.369151417112     0.068167137470
    O            1.961518309636    -0.663191031491    -0.327114654331
    O            1.713251837980     1.402053202039     0.406197119032
    C            3.369169558779    -0.527939196428    -0.311623808630
    H            3.699800484475     0.015731624067    -1.185320533992
    H            3.764474820338    -1.530702620977    -0.340818913049
    H            3.697853094744    -0.018985908511     0.579434766243

  Mulliken Charges: (a.u.)
   Center  Symbol    Alpha    Beta     Spin     Total
       1     H     0.42030  0.42030  0.00000  0.15939
       2     C     3.06974  3.06974  0.00000 -0.13948
       3     C     3.07552  3.07552  0.00000 -0.15105
       4     C     3.07494  3.07494  0.00000 -0.14989
       5     H     0.42040  0.42040  0.00000  0.15919
       6     C     3.07587  3.07587  0.00000 -0.15173
       7     H     0.42190  0.42190  0.00000  0.15620
       8     C     3.08210  3.08210  0.00000 -0.16420
       9     H     0.40659  0.40659  0.00000  0.18682
      10     C     3.01428  3.01428  0.00000 -0.02856
      11     H     0.41107  0.41107  0.00000  0.17785
      12     C     2.78010  2.78010  0.00000  0.43980
      13     O     4.14884  4.14884  0.00000 -0.29767
      14     O     4.21146  4.21146  0.00000 -0.42293
      15     C     3.03725  3.03725  0.00000 -0.07449
      16     H     0.45519  0.45519  0.00000  0.08962
      17     H     0.44647  0.44647  0.00000  0.10705
      18     H     0.44796  0.44796  0.00000  0.10408

   Total alpha = 36.00000, Total beta = 36.00000, Total charge =  0.00000

*** Psi4 exiting successfully. Buy a developer a beer!
