  ==> Input File <==

--------------------------------------------------------------------------
set {
	reference rhf
	basis 6-31G*
}

set_num_threads( 1 )
memory 2 gb

molecule MOL {
0 1

O	 -0.646575	 -0.061975	 -0.276487
C	 0.486307	 0.169203	 0.000779
C	 1.608116	 -0.841643	 0.000302
O	 0.920657	 1.370333	 0.356076
C	 2.990107	 -0.200498	 -0.000684
H	 1.468623	 -1.481519	 -0.865924
H	 1.469683	 -1.481289	 0.866878
H	 3.129736	 0.423364	 -0.875135
H	 3.757882	 -0.966877	 -0.001197
H	 3.130964	 0.423383	 0.873533
C	 -0.032143	 2.427442	 0.401847
C	 0.700931	 3.680884	 0.830562
H	 -0.816552	 2.165075	 1.098590
H	 -0.480168	 2.540915	 -0.575900
H	 1.148468	 3.549184	 1.809094
H	 0.008846	 4.515348	 0.878883
H	 1.486689	 3.927209	 0.125463

	symmetry c1
}
set optking {
	frozen_dihedral = ("
		2 4 11 13,
		11 4 2 3
	")
}

ee = energy('scf')
oeprop('DIPOLE', 'QUADRUPOLE', 'MULLIKEN_CHARGES')
f=open( 'psi4out.xyz', 'w' )
f.write( "17  " )
f.write( str(ee) + "\n" )
f.write( MOL.save_string_xyz() )
f.close()
--------------------------------------------------------------------------

    Molecular point group: c1

    Geometry (in Angstrom), charge = 0, multiplicity = 1:

       Center              X                  Y                   Z               Mass
    ------------   -----------------  -----------------  -----------------  -----------------
           O         -1.507175455739    -1.016955833519    -0.466821404551    15.994914619560
           C         -0.374293455739    -0.785777833519    -0.189555404551    12.000000000000
           C          0.747515544261    -1.796623833519    -0.190032404551    12.000000000000
           O          0.060056544261     0.415352166481     0.165741595449    15.994914619560
           C          2.129506544261    -1.155478833519    -0.191018404551    12.000000000000
           H          0.608022544261    -2.436499833519    -1.056258404551     1.007825032070
           H          0.609082544261    -2.436269833519     0.676543595449     1.007825032070
           H          2.269135544261    -0.531616833519    -1.065469404551     1.007825032070
           H          2.897281544261    -1.921857833519    -0.191531404551     1.007825032070
           H          2.270363544261    -0.531597833519     0.683198595449     1.007825032070
           C         -0.892743455739     1.472461166481     0.211512595449    12.000000000000
           C         -0.159669455739     2.725903166481     0.640227595449    12.000000000000
           H         -1.677152455739     1.210094166481     0.908255595449     1.007825032070
           H         -1.340768455739     1.585934166481    -0.766234404551     1.007825032070
           H          0.287867544261     2.594203166481     1.618759595449     1.007825032070
           H         -0.851754455739     3.560367166481     0.688548595449     1.007825032070
           H          0.626088544261     2.972228166481    -0.064871404551     1.007825032070

  Charge       = 0
  Multiplicity = 1
  Basis Set: 6-31G*
  Basis Set:

    Orbital Energies (a.u.)
    -----------------------

    Doubly Occupied:

       1A    -20.602619     2A    -20.541374     3A    -11.371557
       4A    -11.285300     5A    -11.237402     6A    -11.223119
       7A    -11.218221     8A     -1.468214     9A     -1.360999
      10A     -1.075150    11A     -1.029084    12A     -0.902985
      13A     -0.860878    14A     -0.778052    15A     -0.691023
      16A     -0.680534    17A     -0.672240    18A     -0.629150
      19A     -0.574634    20A     -0.569918    21A     -0.551780
      22A     -0.548176    23A     -0.522959    24A     -0.517534
      25A     -0.505315    26A     -0.491093    27A     -0.450605
      28A     -0.430609

  @DF-RHF Final Energy:  -344.90837199537424

   => Energetics <=

    Nuclear Repulsion Energy =            319.2479586877568067
    One-Electron Energy =               -1102.7316386617062562
    Two-Electron Energy =                 438.5753079785752107
    DFT Exchange-Correlation Energy =       0.0000000000000000
    Empirical Dispersion Energy =           0.0000000000000000
    PCM Polarization Energy =               0.0000000000000000
    EFP Energy =                            0.0000000000000000
    Total Energy =                       -344.9083719953741820

  Mulliken Charges: (a.u.)
   Center  Symbol    Alpha    Beta     Spin     Total
       1     O     4.28852  4.28852  0.00000 -0.57704
       2     C     2.60271  2.60271  0.00000  0.79459
       3     C     3.21043  3.21043  0.00000 -0.42087
       4     O     4.31156  4.31156  0.00000 -0.62312
       5     C     3.23847  3.23847  0.00000 -0.47693
       6     H     0.39780  0.39780  0.00000  0.20441
       7     H     0.39861  0.39861  0.00000  0.20278
       8     H     0.41494  0.41494  0.00000  0.17012
       9     H     0.41779  0.41779  0.00000  0.16443
      10     H     0.40866  0.40866  0.00000  0.18269
      11     C     3.00197  3.00197  0.00000 -0.00395
      12     C     3.24884  3.24884  0.00000 -0.49767
      13     H     0.40991  0.40991  0.00000  0.18019
      14     H     0.40978  0.40978  0.00000  0.18044
      15     H     0.41213  0.41213  0.00000  0.17573
      16     H     0.41595  0.41595  0.00000  0.16809
      17     H     0.41193  0.41193  0.00000  0.17613

   Total alpha = 28.00000, Total beta = 28.00000, Total charge =  0.00000
