                              Psi4 1.0.54 Driver

  ==> Input File <==

--------------------------------------------------------------------------
set {
	reference rhf
	basis cc-pvtz
}

set_num_threads( 4 )
memory 2 gb

molecule MOL {
0 1

H	 0.926426	 1.444896	 1.592817
C	 1.122449	 0.812831	 0.715943
C	 0.062554	 0.862911	 -0.350953
O	 2.110996	 0.167137	 0.661111
C	 -1.339253	 0.577611	 0.196911
H	 0.331087	 0.168349	 -1.136425
H	 0.086087	 1.867188	 -0.768023
C	 -1.813142	 -0.849710	 -0.061612
H	 -2.032833	 1.276441	 -0.256032
H	 -1.357249	 0.782269	 1.263793
H	 -1.839268	 -1.063526	 -1.124230
H	 -2.810118	 -1.001930	 0.334000
H	 -1.159274	 -1.579980	 0.402282

	symmetry c1
}
set optking {
	frozen_dihedral = ("
		6 3 5 9
	")
}

ee,wfn = optimize('scf', return_wfn=True)
oeprop( wfn, 'DIPOLE', 'QUADRUPOLE', 'MULLIKEN_CHARGES')
f=open( 'psi4out.xyz', 'w' )
f.write( "13  " )
f.write( str(ee) + "\n" )
f.write( MOL.save_string_xyz() )
f.close()
--------------------------------------------------------------------------

    Molecular point group: c1
  Charge       = 0
  Multiplicity = 1
  Basis Set: CC-PVTZ
  Basis Set:
  @DF-RHF Final Energy:  -231.06753536147477
    Total Energy =                       -231.0675353614747394
    Molecular point group: c1
  Basis Set: CC-PVTZ
  Basis Set:
  Basis Set: CC-PVTZ
  Basis Set:
  @DF-RHF Final Energy:  -231.06775761881116
    Total Energy =                       -231.0677576188112425
  Basis Set: CC-PVTZ
  Basis Set:
  Basis Set: CC-PVTZ
  Basis Set:
  @DF-RHF Final Energy:  -231.06777390225383
    Total Energy =                       -231.0677739022537764
  Basis Set: CC-PVTZ
  Basis Set:
  Basis Set: CC-PVTZ
  Basis Set:
  @DF-RHF Final Energy:  -231.06788717332603
    Total Energy =                       -231.0678871733257438
  Basis Set: CC-PVTZ
  Basis Set:
  @DF-RHF Final Energy:  -231.06792978403411
    Total Energy =                       -231.0679297840338791
  @DF-RHF Final Energy:  -231.06793832740627
    Total Energy =                       -231.0679383274061252
  Basis Set: CC-PVTZ
  Basis Set:
  @DF-RHF Final Energy:  -231.06794312320608
    Total Energy =                       -231.0679431232059073
  Basis Set: CC-PVTZ
  Basis Set:
  Basis Set: CC-PVTZ
  Basis Set:
  @DF-RHF Final Energy:  -231.06786457368176
    Total Energy =                       -231.0678645736817316
  Basis Set: CC-PVTZ
  Basis Set:
  Basis Set: CC-PVTZ
  Basis Set:
  @DF-RHF Final Energy:  -231.06794980497810
    Total Energy =                       -231.0679498049779568
  Basis Set: CC-PVTZ
  Basis Set:
  Charge       = 0
  Multiplicity = 1
  Basis Set: CC-PVTZ
  Basis Set:

    Orbital Energies (a.u.)
    -----------------------

    Doubly Occupied:

       1A    -20.552815     2A    -11.321821     3A    -11.237134
       4A    -11.234588     5A    -11.219382     6A     -1.407789
       7A     -1.085996     8A     -0.975341     9A     -0.843272
      10A     -0.793695    11A     -0.672069    12A     -0.650710
      13A     -0.628369    14A     -0.587918    15A     -0.561639
      16A     -0.541460    17A     -0.500511    18A     -0.498111
      19A     -0.482610    20A     -0.413042

  @DF-RHF Final Energy:  -231.06794999311111

   => Energetics <=

    Nuclear Repulsion Energy =            172.9782718237806023
    One-Electron Energy =                -655.6759017507677072
    Two-Electron Energy =                 251.6296799338760479
    DFT Exchange-Correlation Energy =       0.0000000000000000
    Empirical Dispersion Energy =           0.0000000000000000
    PCM Polarization Energy =               0.0000000000000000
    EFP Energy =                            0.0000000000000000
    Total Energy =                       -231.0679499931110854
    Molecular point group: c1
  Basis Set: CC-PVTZ
  Basis Set:

  -Total Gradient:
     Atom            X                  Y                   Z
    ------   -----------------  -----------------  -----------------
       1        0.000004741193    -0.000000270933     0.000000376284
       2       -0.000034589050     0.000002864763    -0.000017454590
       3       -0.001713558541     0.003533860440    -0.002578272642
       4        0.000025570608    -0.000011292079     0.000009009269
       5       -0.000331691565    -0.003578426167    -0.002802537275
       6        0.001473123589    -0.002351433714     0.002589093008
       7        0.000000975889     0.000009045090    -0.000008620850
       8       -0.000002670317    -0.000005023949    -0.000002826738
       9        0.000576769304     0.002402508977     0.002811967582
      10        0.000004417162    -0.000002870350    -0.000000981999
      11        0.000003000152    -0.000001602607     0.000004128489
      12       -0.000003684506    -0.000004971167    -0.000003579211
      13       -0.000002403917     0.000007611696    -0.000000301326

  **** Optimization is complete! (in 10 steps) ****
    Final optimized geometry and variables:
    Molecular point group: c1

    Geometry (in Angstrom), charge = 0, multiplicity = 1:

    H            0.938094895525     1.156608011216     1.346888920284
    C            1.089886874932     0.499765493229     0.479988211911
    C            0.048372045549     0.621355329770    -0.601377228692
    O            2.015073544985    -0.235283426250     0.449173780510
    C           -1.364994621201     0.325566196645    -0.062643554488
    H            0.326303627304    -0.068728591921    -1.386739162729
    H            0.102967908545     1.634868118033    -0.986453418466
    C           -1.801017995740    -1.118090756236    -0.284094390052
    H           -2.075538669651     1.012262401759    -0.506192263737
    H           -1.393356253164     0.546426816788     1.001632479842
    H           -1.855689214922    -1.349277728560    -1.341797189121
    H           -2.777812208277    -1.299032876586     0.148411083614
    H           -1.101533670631    -1.811546849686     0.169443226908

  Mulliken Charges: (a.u.)
   Center  Symbol    Alpha    Beta     Spin     Total
       1     H     0.46582  0.46582  0.00000  0.06836
       2     C     2.90433  2.90433  0.00000  0.19135
       3     C     3.08733  3.08733  0.00000 -0.17465
       4     O     4.16461  4.16461  0.00000 -0.32922
       5     C     3.09747  3.09747  0.00000 -0.19494
       6     H     0.44451  0.44451  0.00000  0.11098
       7     H     0.44204  0.44204  0.00000  0.11593
       8     C     3.14462  3.14462  0.00000 -0.28923
       9     H     0.44471  0.44471  0.00000  0.11058
      10     H     0.45580  0.45580  0.00000  0.08841
      11     H     0.45253  0.45253  0.00000  0.09493
      12     H     0.44745  0.44745  0.00000  0.10510
      13     H     0.44880  0.44880  0.00000  0.10240

   Total alpha = 20.00000, Total beta = 20.00000, Total charge = -0.00000

*** Psi4 exiting successfully. Buy a developer a beer!
