                              Psi4 1.0.54 Driver

  ==> Input File <==

--------------------------------------------------------------------------
set {
	reference rhf
	basis cc-pvtz
}

set_num_threads( 4 )
memory 2 gb

molecule MOL {
0 1

O	 -0.694481	 1.313155	 -0.204815
C	 -0.862519	 0.151932	 -0.046791
C	 -2.171428	 -0.477048	 0.339095
O	 0.085519	 -0.757083	 -0.192238
H	 -2.467997	 -1.191667	 -0.417688
H	 -2.923379	 0.287970	 0.444097
H	 -2.053854	 -1.015120	 1.270901
C	 0.429111	 -1.572354	 0.922105
C	 -0.481433	 -2.777244	 1.036329
H	 0.400071	 -0.976398	 1.820886
H	 1.447945	 -1.876640	 0.734646
H	 -0.148808	 -3.407660	 1.853268
H	 -1.500461	 -2.474257	 1.234225
H	 -0.458994	 -3.361628	 0.124416

	symmetry c1
}
set optking {
	frozen_dihedral = ("
		8 4 2 1
	")
}

ee,wfn = optimize('scf', return_wfn=True)
oeprop( wfn, 'DIPOLE', 'QUADRUPOLE', 'MULLIKEN_CHARGES')
f=open( 'psi4out.xyz', 'w' )
f.write( "14  " )
f.write( str(ee) + "\n" )
f.write( MOL.save_string_xyz() )
f.close()
--------------------------------------------------------------------------

    Molecular point group: c1
  Charge       = 0
  Multiplicity = 1
  Basis Set: CC-PVTZ
  Basis Set:
  @DF-RHF Final Energy:  -305.95498598596936
    Total Energy =                       -305.9549859859695289
    Molecular point group: c1
  Basis Set: CC-PVTZ
  Basis Set:
  Basis Set: CC-PVTZ
  Basis Set:
  @DF-RHF Final Energy:  -305.96648122033992
    Total Energy =                       -305.9664812203399151
  Basis Set: CC-PVTZ
  Basis Set:
  Basis Set: CC-PVTZ
  Basis Set:
  @DF-RHF Final Energy:  -305.96852403116338
    Total Energy =                       -305.9685240311634971
  Basis Set: CC-PVTZ
  Basis Set:
  Basis Set: CC-PVTZ
  Basis Set:
  @DF-RHF Final Energy:  -305.96417903714814
    Total Energy =                       -305.9641790371483125
  Basis Set: CC-PVTZ
  Basis Set:
  @DF-RHF Final Energy:  -305.96970689118024
    Total Energy =                       -305.9697068911802944
  @DF-RHF Final Energy:  -305.97029185472445
    Total Energy =                       -305.9702918547242234
  @DF-RHF Final Energy:  -305.97062097352551
    Total Energy =                       -305.9706209735259108
  @DF-RHF Final Energy:  -305.97086932791649
    Total Energy =                       -305.9708693279164891
  @DF-RHF Final Energy:  -305.97099020572250
    Total Energy =                       -305.9709902057222735
  @DF-RHF Final Energy:  -305.97108306607049
    Total Energy =                       -305.9710830660706051
  @DF-RHF Final Energy:  -305.97114215804538
    Total Energy =                       -305.9711421580456658
  @DF-RHF Final Energy:  -305.97128673344179
    Total Energy =                       -305.9712867334417297
  @DF-RHF Final Energy:  -305.97139534154530
    Total Energy =                       -305.9713953415450760
  @DF-RHF Final Energy:  -305.97109260082033
    Total Energy =                       -305.9710926008198157
  @DF-RHF Final Energy:  -305.97131031149820
    Total Energy =                       -305.9713103114980868
  @DF-RHF Final Energy:  -305.97167346019432
    Total Energy =                       -305.9716734601945518
  @DF-RHF Final Energy:  -305.97172327584349
    Total Energy =                       -305.9717232758432601
  @DF-RHF Final Energy:  -305.97177353619713
    Total Energy =                       -305.9717735361972473
  @DF-RHF Final Energy:  -305.97181765459419
    Total Energy =                       -305.9718176545940196
  @DF-RHF Final Energy:  -305.97186196842762
    Total Energy =                       -305.9718619684275041
  @DF-RHF Final Energy:  -305.97199411509985
    Total Energy =                       -305.9719941151001308
  @DF-RHF Final Energy:  -305.97103169152376
    Total Energy =                       -305.9710316915236490
  @DF-RHF Final Energy:  -305.94894991082140
    Total Energy =                       -305.9489499108214545
  @DF-RHF Final Energy:  -305.97157971374179
    Total Energy =                       -305.9715797137417894
  @DF-RHF Final Energy:  -305.97205415089036
    Total Energy =                       -305.9720541508903580
  @DF-RHF Final Energy:  -305.97221193923917
    Total Energy =                       -305.9722119392390596
  @DF-RHF Final Energy:  -305.97241987255609
    Total Energy =                       -305.9724198725558608
  @DF-RHF Final Energy:  -305.97276248762984
    Total Energy =                       -305.9727624876293248
  @DF-RHF Final Energy:  -305.97285911356880
    Total Energy =                       -305.9728591135689726
  @DF-RHF Final Energy:  -305.97303051623913
    Total Energy =                       -305.9730305162391346
  @DF-RHF Final Energy:  -305.97311218682330
    Total Energy =                       -305.9731121868234140
  @DF-RHF Final Energy:  -305.97317902619534
    Total Energy =                       -305.9731790261951687
  @DF-RHF Final Energy:  -305.97323906354416
    Total Energy =                       -305.9732390635442130
  Basis Set: CC-PVTZ
  Basis Set:
  @DF-RHF Final Energy:  -305.97333451115389
    Total Energy =                       -305.9733345111541780
  Basis Set: CC-PVTZ
  Basis Set:
  Basis Set: CC-PVTZ
  Basis Set:
  @DF-RHF Final Energy:  -305.97337262990288
    Total Energy =                       -305.9733726299031105
  Basis Set: CC-PVTZ
  Basis Set:
  Basis Set: CC-PVTZ
  Basis Set:
  @DF-RHF Final Energy:  -305.97338590848784
    Total Energy =                       -305.9733859084878418
  Basis Set: CC-PVTZ
  Basis Set:
  Charge       = 0
  Multiplicity = 1
  Basis Set: CC-PVTZ
  Basis Set:

    Orbital Energies (a.u.)
    -----------------------

    Doubly Occupied:

       1A    -20.580963     2A    -20.540674     3A    -11.369806
       4A    -11.296909     5A    -11.238183     6A    -11.224600
       7A     -1.462229     8A     -1.370504     9A     -1.050414
      10A     -1.012654    11A     -0.878494    12A     -0.784717
      13A     -0.699678    14A     -0.692194    15A     -0.656918
      16A     -0.629025    17A     -0.588068    18A     -0.571936
      19A     -0.556938    20A     -0.543459    21A     -0.522016
      22A     -0.492912    23A     -0.457661    24A     -0.440149

  @DF-RHF Final Energy:  -305.97338625846476

   => Energetics <=

    Nuclear Repulsion Energy =            245.4203400177060530
    One-Electron Energy =                -903.4652557888909996
    Two-Electron Energy =                 352.0715295127201898
    DFT Exchange-Correlation Energy =       0.0000000000000000
    Empirical Dispersion Energy =           0.0000000000000000
    PCM Polarization Energy =               0.0000000000000000
    EFP Energy =                            0.0000000000000000
    Total Energy =                       -305.9733862584647568
    Molecular point group: c1
  Basis Set: CC-PVTZ
  Basis Set:

  -Total Gradient:
     Atom            X                  Y                   Z
    ------   -----------------  -----------------  -----------------
       1        0.001823830253    -0.000492189642     0.002655709691
       2       -0.001375156470     0.000683944667    -0.003921573718
       3        0.000028702161    -0.000086514735    -0.000003944431
       4       -0.003108321781    -0.000295835099     0.001559473083
       5        0.000020396130     0.000029964956    -0.000005662005
       6       -0.000011563258     0.000000679651     0.000017173994
       7        0.000029605682     0.000016525646    -0.000032837435
       8        0.002523590535     0.000050052974    -0.000299028048
       9        0.000062768324     0.000048306568     0.000028721407
      10        0.000001062822     0.000016212056     0.000004416646
      11        0.000055235393     0.000001780414     0.000027625013
      12        0.000014359260     0.000033987678    -0.000008198610
      13       -0.000058094371    -0.000002520874    -0.000034463740
      14       -0.000006414679    -0.000004394259     0.000012588153

  **** Optimization is complete! (in 37 steps) ****
    Final optimized geometry and variables:
    Molecular point group: c1

    Geometry (in Angstrom), charge = 0, multiplicity = 1:

    O            0.814520981060     1.687301124194    -0.700584928204
    C           -0.012779518415     0.999251097339    -0.225692282274
    C           -1.130741123445     1.520537078595     0.640503776638
    O           -0.020150569031    -0.323472501835    -0.456066509113
    H           -2.075764619687     1.089218506018     0.337809482954
    H           -1.165546298097     2.595074375416     0.564420852709
    H           -0.955149859545     1.249275246420     1.674738968778
    C            0.092517987858    -1.217286552370     0.635624465518
    C            0.256359393419    -2.612339637517     0.079515517902
    H           -0.791816717993    -1.160093743627     1.260396522724
    H            0.953345898009    -0.942119749854     1.235456006556
    H            0.345010175027    -3.325069865986     0.891044973485
    H           -0.599788114865    -2.882284631497    -0.525565906498
    H            1.144155806261    -2.672933244226    -0.535541896089

  Mulliken Charges: (a.u.)
   Center  Symbol    Alpha    Beta     Spin     Total
       1     O     4.16956  4.16956  0.00000 -0.33913
       2     C     2.81124  2.81124  0.00000  0.37751
       3     C     3.16002  3.16002  0.00000 -0.32005
       4     O     4.15321  4.15321  0.00000 -0.30642
       5     H     0.44204  0.44204  0.00000  0.11592
       6     H     0.43063  0.43063  0.00000  0.13875
       7     H     0.44869  0.44869  0.00000  0.10261
       8     C     2.98046  2.98046  0.00000  0.03908
       9     C     3.13268  3.13268  0.00000 -0.26536
      10     H     0.46161  0.46161  0.00000  0.07678
      11     H     0.45848  0.45848  0.00000  0.08305
      12     H     0.45697  0.45697  0.00000  0.08606
      13     H     0.44943  0.44943  0.00000  0.10114
      14     H     0.44497  0.44497  0.00000  0.11005

   Total alpha = 24.00000, Total beta = 24.00000, Total charge = -0.00000

*** Psi4 exiting successfully. Buy a developer a beer!
