                              Psi4 1.0.54 Driver

  ==> Input File <==

--------------------------------------------------------------------------
set {
	reference rhf
	basis cc-pvtz
}

set_num_threads( 4 )
memory 2 gb

molecule MOL {
0 1

H	 -3.436473	 1.252944	 -1.023892
O	 -3.458596	 0.315260	 -0.960865
C	 -3.176635	 -0.080824	 0.355601
C	 -1.763371	 0.265266	 0.799691
H	 -3.321825	 -1.153438	 0.379502
H	 -3.895468	 0.357385	 1.043382
C	 -1.443608	 -0.160101	 2.229774
H	 -1.054560	 -0.194222	 0.112434
H	 -1.631184	 1.339731	 0.697515
C	 -0.011912	 0.164897	 2.647618
H	 -1.620318	 -1.224919	 2.333930
H	 -2.137107	 0.331309	 2.908067
C	 0.300082	 -0.258817	 4.081554
H	 0.674285	 -0.320109	 1.960018
H	 0.159891	 1.234514	 2.546325
C	 1.698254	 0.118029	 4.574455
H	 0.165960	 -1.334074	 4.174742
H	 -0.431862	 0.194956	 4.744100
C	 2.841562	 -0.599640	 3.861055
H	 1.758624	 -0.102628	 5.635795
H	 1.833692	 1.192449	 4.481185
H	 2.729502	 -1.676866	 3.932502
H	 3.795692	 -0.337878	 4.304178
H	 2.889998	 -0.341386	 2.810072

	symmetry c1
}
set optking {
	frozen_dihedral = ("
		7 4 3 2
	")
}

ee,wfn = optimize('scf', return_wfn=True)
oeprop( wfn, 'DIPOLE', 'QUADRUPOLE', 'MULLIKEN_CHARGES')
f=open( 'psi4out.xyz', 'w' )
f.write( "24  " )
f.write( str(ee) + "\n" )
f.write( MOL.save_string_xyz() )
f.close()
--------------------------------------------------------------------------

    Molecular point group: c1
  Charge       = 0
  Multiplicity = 1
  Basis Set: CC-PVTZ
  Basis Set:
  @DF-RHF Final Energy:  -349.38046205755290
    Total Energy =                       -349.3804620575526201
    Molecular point group: c1
  Basis Set: CC-PVTZ
  Basis Set:
  Basis Set: CC-PVTZ
  Basis Set:
  @DF-RHF Final Energy:  -349.38059038150021
    Total Energy =                       -349.3805903814999283
  Basis Set: CC-PVTZ
  Basis Set:
  Basis Set: CC-PVTZ
  Basis Set:
  @DF-RHF Final Energy:  -349.38060706568177
    Total Energy =                       -349.3806070656817155
  Basis Set: CC-PVTZ
  Basis Set:
  Charge       = 0
  Multiplicity = 1
  Basis Set: CC-PVTZ
  Basis Set:

    Orbital Energies (a.u.)
    -----------------------

    Doubly Occupied:

       1A    -20.545192     2A    -11.264631     3A    -11.216901
       4A    -11.214397     5A    -11.214331     6A    -11.213718
       7A    -11.212662     8A    -11.206861     9A     -1.363302
      10A     -1.093932    11A     -1.052568    12A     -0.987665
      13A     -0.915410    14A     -0.851756    15A     -0.805490
      16A     -0.779458    17A     -0.694518    18A     -0.652981
      19A     -0.626677    20A     -0.608242    21A     -0.606157
      22A     -0.589309    23A     -0.560377    24A     -0.536779
      25A     -0.527594    26A     -0.514624    27A     -0.488538
      28A     -0.483730    29A     -0.472396    30A     -0.462075
      31A     -0.457248    32A     -0.454317    33A     -0.422932

  @DF-RHF Final Energy:  -349.38060741215452

   => Energetics <=

    Nuclear Repulsion Energy =            380.5199653484149849
    One-Electron Energy =               -1227.6076116564611311
    Two-Electron Energy =                 497.7070388958917988
    DFT Exchange-Correlation Energy =       0.0000000000000000
    Empirical Dispersion Energy =           0.0000000000000000
    PCM Polarization Energy =               0.0000000000000000
    EFP Energy =                            0.0000000000000000
    Total Energy =                       -349.3806074121543475
    Molecular point group: c1
  Basis Set: CC-PVTZ
  Basis Set:

  -Total Gradient:
     Atom            X                  Y                   Z
    ------   -----------------  -----------------  -----------------
       1       -0.000018516364    -0.000059070345     0.000001176613
       2       -0.000101543568     0.000444758850     0.000130303622
       3        0.000147437294    -0.000403194674    -0.000116735815
       4        0.000162581629    -0.000312788978    -0.000135536226
       5       -0.000008921058     0.000005598880     0.000028117982
       6       -0.000013879577     0.000002433842    -0.000028919173
       7       -0.000121367984     0.000338039412     0.000070628739
       8       -0.000055984692     0.000021816039     0.000052022139
       9        0.000000018291     0.000001706306     0.000000928594
      10        0.000053064385    -0.000014896670     0.000006450980
      11       -0.000011770122    -0.000046561275     0.000011840856
      12        0.000005926664    -0.000005348679    -0.000010821820
      13       -0.000020568444     0.000034438231     0.000012485648
      14        0.000033539415    -0.000008751816    -0.000009191967
      15       -0.000002279793    -0.000001552237     0.000005031894
      16       -0.000006185495    -0.000010222339     0.000004221943
      17       -0.000001747725     0.000003398976     0.000003202215
      18       -0.000013637419     0.000009549010     0.000005900494
      19       -0.000010493992     0.000003116799    -0.000012753830
      20       -0.000004110270    -0.000011500082    -0.000005682728
      21       -0.000000629902    -0.000000650928     0.000012024341
      22        0.000001276792     0.000007581940     0.000005638713
      23        0.000002500643     0.000005817726    -0.000005490099
      24       -0.000014708711    -0.000003717988    -0.000024843119

  **** Optimization is complete! (in 4 steps) ****
    Final optimized geometry and variables:
    Molecular point group: c1

    Geometry (in Angstrom), charge = 0, multiplicity = 1:

    H           -2.728584134739     1.276758008631    -3.164340627824
    O           -2.798983061721     0.342951105994    -3.084637502605
    C           -2.510825528896    -0.046780347429    -1.769270972394
    C           -1.085942459676     0.282441828089    -1.354396663357
    H           -2.671574644688    -1.116537038614    -1.733443955585
    H           -3.215474500630     0.407247396964    -1.075475370946
    C           -0.771806379115    -0.141545554370     0.077138051560
    H           -0.402899623763    -0.198907963766    -2.046978354787
    H           -0.927181823992     1.354678598205    -1.456360281943
    C            0.658333634761     0.181677395051     0.502405771504
    H           -0.942165972872    -1.210597229542     0.180789923694
    H           -1.466402535371     0.343891380627     0.758344037932
    C            0.965389752311    -0.246501805913     1.935999067446
    H            1.346358262657    -0.299513927470    -0.185234147029
    H            0.827348612929     1.251813345716     0.405342113336
    C            2.361413487838     0.131252114503     2.434318543334
    H            0.833649487891    -1.322497111823     2.025244507123
    H            0.230491719389     0.203726095758     2.597882784753
    C            3.508250640984    -0.577183714451     1.717391112681
    H            2.420342311868    -0.097224986279     3.494036478504
    H            2.493181226916     1.206790889407     2.349495572288
    H            3.399784274574    -1.655273620305     1.780377590193
    H            4.460561559015    -0.315598442893     2.164346994525
    H            3.557843318038    -0.310776211061     0.668549909674

  Mulliken Charges: (a.u.)
   Center  Symbol    Alpha    Beta     Spin     Total
       1     H     0.39525  0.39525  0.00000  0.20950
       2     O     4.20110  4.20110  0.00000 -0.40220
       3     C     2.96880  2.96880  0.00000  0.06239
       4     C     3.09338  3.09338  0.00000 -0.18675
       5     H     0.45412  0.45412  0.00000  0.09175
       6     H     0.47165  0.47165  0.00000  0.05671
       7     C     3.10056  3.10056  0.00000 -0.20112
       8     H     0.44894  0.44894  0.00000  0.10213
       9     H     0.46290  0.46290  0.00000  0.07420
      10     C     3.09101  3.09101  0.00000 -0.18202
      11     H     0.45265  0.45265  0.00000  0.09469
      12     H     0.45427  0.45427  0.00000  0.09146
      13     C     3.09488  3.09488  0.00000 -0.18976
      14     H     0.45124  0.45124  0.00000  0.09752
      15     H     0.45457  0.45457  0.00000  0.09086
      16     C     3.09045  3.09045  0.00000 -0.18090
      17     H     0.45378  0.45378  0.00000  0.09244
      18     H     0.44991  0.44991  0.00000  0.10019
      19     C     3.15250  3.15250  0.00000 -0.30501
      20     H     0.44837  0.44837  0.00000  0.10326
      21     H     0.45494  0.45494  0.00000  0.09012
      22     H     0.45475  0.45475  0.00000  0.09050
      23     H     0.44635  0.44635  0.00000  0.10730
      24     H     0.45364  0.45364  0.00000  0.09273

   Total alpha = 33.00000, Total beta = 33.00000, Total charge =  0.00000

*** Psi4 exiting successfully. Buy a developer a beer!
