  ==> Input File <==

--------------------------------------------------------------------------
set {
	reference rhf
	basis cc-pvtz
}

set_num_threads( 4 )
memory 2 gb

molecule MOL {
0 1

H	 -2.266619	 1.169943	 0.000098
O	 -1.438073	 1.611259	 0.000041
C	 -0.408657	 0.734701	 0.000005
C	 0.854343	 1.254633	 -0.214262
C	 -0.595642	 -0.627430	 0.204331
H	 0.957072	 2.310940	 -0.367863
C	 1.950341	 0.418220	 -0.227285
C	 0.523341	 -1.444174	 0.186037
C	 -1.974565	 -1.193255	 0.438033
H	 2.927781	 0.828972	 -0.394237
C	 1.790534	 -0.939227	 -0.026714
H	 0.395563	 -2.499261	 0.342345
H	 -2.635740	 -1.004163	 -0.403044
H	 -1.929317	 -2.263852	 0.576650
H	 -2.438014	 -0.771967	 1.325758
H	 2.638503	 -1.595917	 -0.035512

	symmetry c1
}
set optking {
	frozen_dihedral = ("
		4 3 2 1
	")
}

ee = optimize('scf')
oeprop('DIPOLE', 'QUADRUPOLE', 'MULLIKEN_CHARGES')
f=open( 'psi4out.xyz', 'w' )
f.write( "16  " )
f.write( str(ee) + "\n" )
f.write( MOL.save_string_xyz() )
f.close()
--------------------------------------------------------------------------

    Molecular point group: c1
  Charge       = 0
  Multiplicity = 1
  Basis Set: CC-PVTZ
  Basis Set:
  @DF-RHF Final Energy:  -344.71921357232702
    Total Energy =                       -344.7192135723266233
    Molecular point group: c1
  Basis Set: CC-PVTZ
  Basis Set:
  Basis Set: CC-PVTZ
  Basis Set:
  @DF-RHF Final Energy:  -344.71922341391024
    Total Energy =                       -344.7192234139104130
  Basis Set: CC-PVTZ
  Basis Set:
  Basis Set: CC-PVTZ
  Basis Set:
  @DF-RHF Final Energy:  -344.71922567842944
    Total Energy =                       -344.7192256784294386
  Basis Set: CC-PVTZ
  Basis Set:
  Charge       = 0
  Multiplicity = 1
  Basis Set: CC-PVTZ
  Basis Set:

    Orbital Energies (a.u.)
    -----------------------

    Doubly Occupied:

       1A    -20.581518     2A    -11.291016     3A    -11.233565
       4A    -11.232392     5A    -11.228543     6A    -11.227294
       7A    -11.217558     8A    -11.216741     9A     -1.411990
      10A     -1.153425    11A     -1.051981    12A     -1.007887
      13A     -0.944060    14A     -0.828810    15A     -0.823793
      16A     -0.734644    17A     -0.680637    18A     -0.647503
      19A     -0.611792    20A     -0.604523    21A     -0.577538
      22A     -0.569743    23A     -0.561830    24A     -0.554219
      25A     -0.505465    26A     -0.485713    27A     -0.478490
      28A     -0.333829    29A     -0.309298

  @DF-RHF Final Energy:  -344.71922585695950

   => Energetics <=

    Nuclear Repulsion Energy =            351.0457650529050397
    One-Electron Energy =               -1163.3183838024428951
    Two-Electron Energy =                 467.5533928925782448
    DFT Exchange-Correlation Energy =       0.0000000000000000
    Empirical Dispersion Energy =           0.0000000000000000
    PCM Polarization Energy =               0.0000000000000000
    EFP Energy =                            0.0000000000000000
    Total Energy =                       -344.7192258569596106
    Molecular point group: c1
  Basis Set: CC-PVTZ
  Basis Set:

  -Total Gradient:
     Atom            X                  Y                   Z
    ------   -----------------  -----------------  -----------------
       1       -0.000000153406     0.000000042440    -0.000643163862
       2       -0.000014332001    -0.000018253412     0.000606230895
       3        0.000047929146     0.000050627777     0.000465083243
       4       -0.000014788468    -0.000061246364    -0.000426067402
       5       -0.000011294690     0.000034563207     0.000008010813
       6       -0.000003349993     0.000001841895    -0.000009479590
       7       -0.000016181712     0.000039774076    -0.000000589716
       8        0.000044346863    -0.000007124741     0.000024508392
       9        0.000010992400    -0.000000610272     0.000041662743
      10       -0.000000604585    -0.000001714069     0.000001782569
      11       -0.000032329205    -0.000034891881    -0.000018679626
      12       -0.000002890208    -0.000000529933    -0.000008054669
      13       -0.000017887239    -0.000009601199    -0.000008906710
      14       -0.000003454989    -0.000002865617    -0.000023755628
      15        0.000011476535     0.000007803475    -0.000015001810
      16        0.000002521551     0.000002184622     0.000006420359

  **** Optimization is complete! (in 4 steps) ****
    Final optimized geometry and variables:
    Molecular point group: c1

    Geometry (in Angstrom), charge = 0, multiplicity = 1:

    H           -2.269589227569     1.166139093975    -0.043195267038
    O           -1.441197608135     1.608059772516    -0.042147934468
    C           -0.411258858742     0.731300868688    -0.050764519054
    C            0.851502023130     1.251347762889    -0.264258232032
    C           -0.598500612493    -0.631272433225     0.151296002264
    H            0.954183507336     2.307605695963    -0.418263162975
    C            1.948081327576     0.415222713973    -0.274914688813
    C            0.520037356640    -1.448227376401     0.131052350308
    C           -1.977301527790    -1.195981316711     0.387806047052
    H            2.925727878985     0.826275572886    -0.439886954501
    C            1.787738383902    -0.942489097511    -0.078251443150
    H            0.392224035243    -2.503616852967     0.285207488738
    H           -2.635860646075    -1.024683268288    -0.459845388699
    H           -1.930731531016    -2.264136861360     0.544008030838
    H           -2.444851754722    -0.757862491763     1.264345651015
    H            2.635723487807    -1.599190887213    -0.086855160496

  Mulliken Charges: (a.u.)
   Center  Symbol    Alpha    Beta     Spin     Total
       1     H     0.38707  0.38707  0.00000  0.22586
       2     O     4.17214  4.17214  0.00000 -0.34428
       3     C     2.87348  2.87348  0.00000  0.25305
       4     C     3.11185  3.11185  0.00000 -0.22370
       5     C     3.01153  3.01153  0.00000 -0.02306
       6     H     0.42009  0.42009  0.00000  0.15982
       7     C     3.06539  3.06539  0.00000 -0.13077
       8     C     3.08342  3.08342  0.00000 -0.16683
       9     C     3.16479  3.16479  0.00000 -0.32957
      10     H     0.42250  0.42250  0.00000  0.15501
      11     C     3.09209  3.09209  0.00000 -0.18418
      12     H     0.42566  0.42566  0.00000  0.14868
      13     H     0.45286  0.45286  0.00000  0.09428
      14     H     0.44535  0.44535  0.00000  0.10930
      15     H     0.44674  0.44674  0.00000  0.10653
      16     H     0.42507  0.42507  0.00000  0.14987

   Total alpha = 29.00000, Total beta = 29.00000, Total charge = -0.00000
