                              Psi4 1.0.54 Driver

  ==> Input File <==

--------------------------------------------------------------------------
set {
	reference rhf
	basis cc-pvtz
}

set_num_threads( 4 )
memory 2 gb

molecule MOL {
0 1

H	 -3.525828	 0.117825	 -0.670102
O	 -3.100036	 -0.268502	 0.074081
C	 -1.771228	 -0.094630	 0.020832
C	 -1.156563	 0.579874	 -1.026864
C	 -1.015473	 -0.615569	 1.057963
H	 -1.749626	 0.981210	 -1.827884
C	 0.209881	 0.729873	 -1.032028
H	 -1.509237	 -1.132240	 1.856253
C	 0.351789	 -0.456775	 1.037804
H	 0.696109	 1.248190	 -1.834549
C	 0.981121	 0.213562	 0.000000
H	 0.939094	 -0.860520	 1.841906
C	 2.447402	 0.371303	 0.000000
O	 3.227427	 -0.521847	 0.000000
H	 2.796538	 1.409525	 0.000000

	symmetry c1
}
set optking {
	frozen_dihedral = ("
		7 11 13 14
	")
}

ee,wfn = optimize('scf', return_wfn=True)
oeprop( wfn, 'DIPOLE', 'QUADRUPOLE', 'MULLIKEN_CHARGES')
f=open( 'psi4out.xyz', 'w' )
f.write( "15  " )
f.write( str(ee) + "\n" )
f.write( MOL.save_string_xyz() )
f.close()
--------------------------------------------------------------------------

    Molecular point group: c1
  Charge       = 0
  Multiplicity = 1
  Basis Set: CC-PVTZ
  Basis Set:
  @DF-RHF Final Energy:  -418.43056601761418
    Total Energy =                       -418.4305660176138417
    Molecular point group: c1
  Basis Set: CC-PVTZ
  Basis Set:
  Basis Set: CC-PVTZ
  Basis Set:
  @DF-RHF Final Energy:  -418.43001588942212
    Total Energy =                       -418.4300158894220658
  Basis Set: CC-PVTZ
  Basis Set:
  Basis Set: CC-PVTZ
  Basis Set:
  @DF-RHF Final Energy:  -418.43118086687474
    Total Energy =                       -418.4311808668744561
  Basis Set: CC-PVTZ
  Basis Set:
  Basis Set: CC-PVTZ
  Basis Set:
  @DF-RHF Final Energy:  -418.43174778223744
    Total Energy =                       -418.4317477822377214
  Basis Set: CC-PVTZ
  Basis Set:
  Basis Set: CC-PVTZ
  Basis Set:
  @DF-RHF Final Energy:  -418.43176049619541
    Total Energy =                       -418.4317604961953521
  Basis Set: CC-PVTZ
  Basis Set:
  Basis Set: CC-PVTZ
  Basis Set:
  @DF-RHF Final Energy:  -418.43176203314988
    Total Energy =                       -418.4317620331499938
  Basis Set: CC-PVTZ
  Basis Set:
  Charge       = 0
  Multiplicity = 1
  Basis Set: CC-PVTZ
  Basis Set:

    Orbital Energies (a.u.)
    -----------------------

    Doubly Occupied:

       1A    -20.599043     2A    -20.556505     3A    -11.328188
       4A    -11.314928     5A    -11.256099     6A    -11.250689
       7A    -11.241121     8A    -11.240291     9A    -11.234466
      10A     -1.431247    11A     -1.411197    12A     -1.173205
      13A     -1.043232    14A     -1.038510    15A     -0.893202
      16A     -0.860997    17A     -0.805731    18A     -0.758311
      19A     -0.703879    20A     -0.687316    21A     -0.651359
      22A     -0.631187    23A     -0.609843    24A     -0.608802
      25A     -0.593562    26A     -0.563604    27A     -0.539983
      28A     -0.506751    29A     -0.495087    30A     -0.424598
      31A     -0.358972    32A     -0.329238

  @DF-RHF Final Energy:  -418.43176235833181

   => Energetics <=

    Nuclear Repulsion Energy =            401.9107551512892655
    One-Electron Energy =               -1366.4027540679546746
    Two-Electron Energy =                 546.0602365583337132
    DFT Exchange-Correlation Energy =       0.0000000000000000
    Empirical Dispersion Energy =           0.0000000000000000
    PCM Polarization Energy =               0.0000000000000000
    EFP Energy =                            0.0000000000000000
    Total Energy =                       -418.4317623583316390
    Molecular point group: c1
  Basis Set: CC-PVTZ
  Basis Set:

  -Total Gradient:
     Atom            X                  Y                   Z
    ------   -----------------  -----------------  -----------------
       1        0.000007973010    -0.000001984570     0.000002273323
       2       -0.000017368131    -0.000024128304    -0.000016321487
       3        0.000012048365     0.000052492423     0.000069344895
       4        0.000056677411    -0.000015557948    -0.000020262745
       5       -0.000035781813    -0.000004096106    -0.000057745223
       6       -0.000003933664     0.000000317502     0.000002628306
       7        0.000200475605    -0.006050938128    -0.003058326717
       8        0.000009949421     0.000003725629     0.000001625691
       9        0.000029278716     0.000069436296     0.000004517650
      10        0.000001547011     0.000027172575    -0.000014692884
      11       -0.000574288067     0.008497678311     0.000827433888
      12        0.000001125676    -0.000008519572     0.000007822728
      13        0.000445021354    -0.002133499937     0.010528264296
      14       -0.000217624363    -0.000496985868    -0.008280319027
      15        0.000084899467     0.000084887695     0.000003757305

  **** Optimization is complete! (in 7 steps) ****
    Final optimized geometry and variables:
    Molecular point group: c1

    Geometry (in Angstrom), charge = 0, multiplicity = 1:

    H           -3.520477411375     0.093028930575    -0.720743989315
    O           -3.098770574919    -0.280275416569     0.032214788865
    C           -1.769664543715    -0.080483153506    -0.005189453842
    C           -1.150436188449     0.600160326953    -1.037218984491
    C           -1.016392782929    -0.591840799490     1.041163897355
    H           -1.730031489388     0.982830736322    -1.857011286660
    C            0.218556474549     0.784136055291    -1.009946861242
    H           -1.512041832440    -1.125074210233     1.827780542564
    C            0.348027770688    -0.424238450697     1.042001478537
    H            0.690291222704     1.319000630148    -1.813864445199
    C            0.978289072241     0.289768380359     0.031700362546
    H            0.935083692401    -0.849155688196     1.833153958854
    C            2.464433567591     0.382367114126    -0.028439160954
    O            3.186755426018    -0.553783680314    -0.000470006688
    H            2.873816059923     1.387491356550    -0.178808379130

  Mulliken Charges: (a.u.)
   Center  Symbol    Alpha    Beta     Spin     Total
       1     H     0.38640  0.38640  0.00000  0.22720
       2     O     4.16894  4.16894  0.00000 -0.33787
       3     C     2.85255  2.85255  0.00000  0.29491
       4     C     3.12860  3.12860  0.00000 -0.25721
       5     C     3.09868  3.09868  0.00000 -0.19735
       6     H     0.43226  0.43226  0.00000  0.13548
       7     C     3.08155  3.08155  0.00000 -0.16310
       8     H     0.41684  0.41684  0.00000  0.16632
       9     C     3.07117  3.07117  0.00000 -0.14234
      10     H     0.42274  0.42274  0.00000  0.15452
      11     C     2.97309  2.97309  0.00000  0.05382
      12     H     0.41620  0.41620  0.00000  0.16760
      13     C     2.93251  2.93251  0.00000  0.13497
      14     O     4.16146  4.16146  0.00000 -0.32292
      15     H     0.45701  0.45701  0.00000  0.08598

   Total alpha = 32.00000, Total beta = 32.00000, Total charge =  0.00000

*** Psi4 exiting successfully. Buy a developer a beer!
