                              Psi4 1.0.54 Driver

  ==> Input File <==

--------------------------------------------------------------------------
set {
	reference rhf
	basis cc-pvtz
}

set_num_threads( 4 )
memory 2 gb

molecule MOL {
0 1

H	 -2.181295	 -2.836322	 -0.471837
C	 -2.677567	 -1.883965	 -0.703389
C	 -2.575632	 -0.838114	 0.373503
O	 -3.244372	 -1.747101	 -1.731644
C	 -1.134621	 -0.600804	 0.834856
H	 -3.034449	 0.073381	 0.012950
H	 -3.164831	 -1.199349	 1.213538
C	 -0.247837	 0.040196	 -0.230469
H	 -1.156317	 0.032959	 1.714750
H	 -0.698779	 -1.544557	 1.153547
C	 1.181757	 0.280428	 0.247371
H	 -0.689582	 0.984103	 -0.538702
H	 -0.228283	 -0.586034	 -1.118658
C	 2.151032	 -0.811012	 -0.202643
H	 1.515939	 1.247397	 -0.115449
H	 1.191514	 0.341223	 1.333422
C	 3.580021	 -0.656538	 0.320835
H	 2.170545	 -0.847575	 -1.289412
H	 1.766632	 -1.772905	 0.124928
C	 4.327657	 0.562694	 -0.213579
H	 4.138806	 -1.549270	 0.057813
H	 3.561991	 -0.620783	 1.406976
H	 4.355973	 0.557257	 -1.298551
H	 3.867136	 1.491650	 0.100501
H	 5.351524	 0.571613	 0.142204

	symmetry c1
}
set optking {
	frozen_dihedral = ("
		12 8 11 14
	")
}

ee,wfn = optimize('scf', return_wfn=True)
oeprop( wfn, 'DIPOLE', 'QUADRUPOLE', 'MULLIKEN_CHARGES')
f=open( 'psi4out.xyz', 'w' )
f.write( "25  " )
f.write( str(ee) + "\n" )
f.write( MOL.save_string_xyz() )
f.close()
--------------------------------------------------------------------------

    Molecular point group: c1
  Charge       = 0
  Multiplicity = 1
  Basis Set: CC-PVTZ
  Basis Set:
  @DF-RHF Final Energy:  -387.25613189813816
    Total Energy =                       -387.2561318981381646
    Molecular point group: c1
  Basis Set: CC-PVTZ
  Basis Set:
  Basis Set: CC-PVTZ
  Basis Set:
  @DF-RHF Final Energy:  -387.25637790584608
    Total Energy =                       -387.2563779058458522
  Basis Set: CC-PVTZ
  Basis Set:
  Basis Set: CC-PVTZ
  Basis Set:
  @DF-RHF Final Energy:  -387.25641740769510
    Total Energy =                       -387.2564174076953805
  Basis Set: CC-PVTZ
  Basis Set:
  Basis Set: CC-PVTZ
  Basis Set:
  @DF-RHF Final Energy:  -387.25611612843096
    Total Energy =                       -387.2561161284313584
  Basis Set: CC-PVTZ
  Basis Set:
  Basis Set: CC-PVTZ
  Basis Set:
  @DF-RHF Final Energy:  -387.25644157990530
    Total Energy =                       -387.2564415799052995
  Basis Set: CC-PVTZ
  Basis Set:
  Charge       = 0
  Multiplicity = 1
  Basis Set: CC-PVTZ
  Basis Set:

    Orbital Energies (a.u.)
    -----------------------

    Doubly Occupied:

       1A    -20.551363     2A    -11.321003     3A    -11.233778
       4A    -11.233117     5A    -11.221495     6A    -11.217618
       7A    -11.216968     8A    -11.216339     9A    -11.208920
      10A     -1.406391    11A     -1.104862    12A     -1.070729
      13A     -1.013453    14A     -0.942574    15A     -0.879400
      16A     -0.821766    17A     -0.789962    18A     -0.781221
      19A     -0.668978    20A     -0.655090    21A     -0.632928
      22A     -0.626687    23A     -0.610217    24A     -0.595360
      25A     -0.576308    26A     -0.559685    27A     -0.530828
      28A     -0.525433    29A     -0.516042    30A     -0.498019
      31A     -0.489525    32A     -0.481383    33A     -0.464860
      34A     -0.451471    35A     -0.445615    36A     -0.411920

  @DF-RHF Final Energy:  -387.25644226261215

   => Energetics <=

    Nuclear Repulsion Energy =            443.3727770086139799
    One-Electron Energy =               -1403.3158317970624012
    Two-Electron Energy =                 572.6866125258366083
    DFT Exchange-Correlation Energy =       0.0000000000000000
    Empirical Dispersion Energy =           0.0000000000000000
    PCM Polarization Energy =               0.0000000000000000
    EFP Energy =                            0.0000000000000000
    Total Energy =                       -387.2564422626118130
    Molecular point group: c1
  Basis Set: CC-PVTZ
  Basis Set:

  -Total Gradient:
     Atom            X                  Y                   Z
    ------   -----------------  -----------------  -----------------
       1       -0.000024986809    -0.000011636760     0.000009037519
       2        0.000076753876     0.000050879623    -0.000016298941
       3       -0.000023793581    -0.000039255146    -0.000032447276
       4       -0.000018919896    -0.000009157486    -0.000002916426
       5        0.000024830173     0.000016874790     0.000053890882
       6       -0.000001146911    -0.000000231015     0.000008486543
       7        0.000024448438    -0.000002088242     0.000002679770
       8       -0.001071223358     0.001110862840     0.002964527791
       9       -0.000023933713     0.000008758840    -0.000009833062
      10        0.000010447387     0.000011320764     0.000018781705
      11       -0.000338243355    -0.001775279782     0.002044704895
      12        0.001043144048    -0.000493152452    -0.002986787457
      13        0.000017392438    -0.000009035894    -0.000045230441
      14        0.000401237104     0.001134244694    -0.001945209081
      15       -0.000034707512     0.000009333873    -0.000011049014
      16       -0.000037581505     0.000011087608     0.000009440416
      17       -0.000018855446     0.000020379436    -0.000038340068
      18       -0.000004169019     0.000008751898     0.000007412556
      19        0.000043099901    -0.000044028930    -0.000009696467
      20        0.000009798352    -0.000000976903     0.000003121111
      21       -0.000027182833    -0.000029084205     0.000001844136
      22       -0.000024679592     0.000025808555    -0.000011825198
      23        0.000008297517     0.000006494790    -0.000012603554
      24       -0.000011412652     0.000000197458     0.000002127650
      25        0.000001386943    -0.000001068355    -0.000003817993

  **** Optimization is complete! (in 6 steps) ****
    Final optimized geometry and variables:
    Molecular point group: c1

    Geometry (in Angstrom), charge = 0, multiplicity = 1:

    H           -2.274465279476    -2.221586309558    -0.275817171371
    C           -2.798904548970    -1.288213374485    -0.522093723091
    C           -2.733568005598    -0.225064885943     0.540656913964
    O           -3.366398189315    -1.183171704650    -1.553696054904
    C           -1.303450103263     0.060759690896     1.007084965855
    H           -3.216202048070     0.667868695974     0.164845215469
    H           -3.317449474765    -0.591559828788     1.382127459169
    C           -0.431696332743     0.719918042189    -0.059922906118
    H           -1.348265254294     0.703209806954     1.879512080223
    H           -0.840948387789    -0.865826467025     1.338458272144
    C            1.022782132656     0.944223837469     0.385637802257
    H           -0.878658292812     1.660885214700    -0.363258476994
    H           -0.433520386579     0.107813184373    -0.958139435152
    C            1.972765765108    -0.159631828351    -0.080773406844
    H            1.368012960689     1.894519043233    -0.003887860099
    H            1.065822077759     1.029716047500     1.468398610915
    C            3.403432523609    -0.042188166242     0.446612187655
    H            1.990846291217    -0.171476242757    -1.167628513630
    H            1.573661744375    -1.123728555673     0.224646927420
    C            4.168684358697     1.181239186322    -0.052376687826
    H            3.948973861899    -0.935275814886     0.157840418885
    H            3.385365042887    -0.037103249786     1.533338606475
    H            4.194288392116     1.208846710935    -1.137053646535
    H            3.723274529248     2.106926721609     0.291497915085
    H            5.193366559110     1.163025577955     0.300615678813

  Mulliken Charges: (a.u.)
   Center  Symbol    Alpha    Beta     Spin     Total
       1     H     0.46380  0.46380  0.00000  0.07241
       2     C     2.90583  2.90583  0.00000  0.18833
       3     C     3.08827  3.08827  0.00000 -0.17654
       4     O     4.16607  4.16607  0.00000 -0.33213
       5     C     3.11352  3.11352  0.00000 -0.22704
       6     H     0.44292  0.44292  0.00000  0.11416
       7     H     0.44064  0.44064  0.00000  0.11871
       8     C     3.10100  3.10100  0.00000 -0.20201
       9     H     0.44219  0.44219  0.00000  0.11562
      10     H     0.44942  0.44942  0.00000  0.10117
      11     C     3.10255  3.10255  0.00000 -0.20511
      12     H     0.44186  0.44186  0.00000  0.11628
      13     H     0.44816  0.44816  0.00000  0.10369
      14     C     3.09490  3.09490  0.00000 -0.18981
      15     H     0.44264  0.44264  0.00000  0.11473
      16     H     0.45460  0.45460  0.00000  0.09080
      17     C     3.09047  3.09047  0.00000 -0.18094
      18     H     0.45131  0.45131  0.00000  0.09738
      19     H     0.45036  0.45036  0.00000  0.09927
      20     C     3.15283  3.15283  0.00000 -0.30566
      21     H     0.44809  0.44809  0.00000  0.10383
      22     H     0.45461  0.45461  0.00000  0.09079
      23     H     0.45413  0.45413  0.00000  0.09174
      24     H     0.45382  0.45382  0.00000  0.09236
      25     H     0.44601  0.44601  0.00000  0.10798

   Total alpha = 36.00000, Total beta = 36.00000, Total charge =  0.00000

*** Psi4 exiting successfully. Buy a developer a beer!
