  ==> Input File <==

--------------------------------------------------------------------------
set {
	reference rhf
	basis cc-pvtz
}

set_num_threads( 4 )
memory 2 gb

molecule MOL {
0 1

H	 -3.144994	 -1.202467	 -0.018751
O	 -2.321472	 -0.864941	 -0.318626
C	 -2.021813	 0.336996	 0.342658
C	 -0.669613	 0.837286	 -0.127252
H	 -2.780861	 1.084746	 0.127159
H	 -2.006390	 0.184138	 1.420053
C	 0.490865	 -0.082543	 0.241244
H	 -0.708709	 0.967192	 -1.204587
H	 -0.507562	 1.822272	 0.303070
C	 0.050833	 -1.516947	 0.519568
H	 0.999264	 0.316400	 1.111550
H	 1.218170	 -0.082026	 -0.568169
C	 1.210995	 -2.438702	 0.880368
H	 -0.673982	 -1.518101	 1.329101
H	 -0.465485	 -1.912780	 -0.351306
H	 1.725884	 -2.088536	 1.768731
H	 0.866237	 -3.448152	 1.073908
H	 1.937940	 -2.486234	 0.076168

	symmetry c1
}
set optking {
	frozen_dihedral = ("
		10 7 4 8
	")
}

ee = optimize('scf')
oeprop('DIPOLE', 'QUADRUPOLE', 'MULLIKEN_CHARGES')
f=open( 'psi4out.xyz', 'w' )
f.write( "18  " )
f.write( str(ee) + "\n" )
f.write( MOL.save_string_xyz() )
f.close()
--------------------------------------------------------------------------

    Molecular point group: c1
  Charge       = 0
  Multiplicity = 1
  Basis Set: CC-PVTZ
  Basis Set:
  @DF-RHF Final Energy:  -271.26880742047877
    Total Energy =                       -271.2688074204787654
    Molecular point group: c1
  Basis Set: CC-PVTZ
  Basis Set:
  Basis Set: CC-PVTZ
  Basis Set:
  @DF-RHF Final Energy:  -271.27666083567340
    Total Energy =                       -271.2766608356735105
  Basis Set: CC-PVTZ
  Basis Set:
  Basis Set: CC-PVTZ
  Basis Set:
  @DF-RHF Final Energy:  -271.27807960377123
    Total Energy =                       -271.2780796037712889
  Basis Set: CC-PVTZ
  Basis Set:
  Basis Set: CC-PVTZ
  Basis Set:
  @DF-RHF Final Energy:  -271.27841780701209
    Total Energy =                       -271.2784178070120333
  Basis Set: CC-PVTZ
  Basis Set:
  Basis Set: CC-PVTZ
  Basis Set:
  @DF-RHF Final Energy:  -271.27847261052267
    Total Energy =                       -271.2784726105230106
  Basis Set: CC-PVTZ
  Basis Set:
  Basis Set: CC-PVTZ
  Basis Set:
  @DF-RHF Final Energy:  -271.27847796850585
    Total Energy =                       -271.2784779685057401
  Basis Set: CC-PVTZ
  Basis Set:
  Basis Set: CC-PVTZ
  Basis Set:
  @DF-RHF Final Energy:  -271.27848067997155
    Total Energy =                       -271.2784806799714943
  Basis Set: CC-PVTZ
  Basis Set:
  Charge       = 0
  Multiplicity = 1
  Basis Set: CC-PVTZ
  Basis Set:

    Orbital Energies (a.u.)
    -----------------------

    Doubly Occupied:

       1A    -20.546211     2A    -11.267131     3A    -11.211798
       4A    -11.208625     5A    -11.202870     6A    -11.200038
       7A     -1.364446     8A     -1.071839     9A     -1.007540
      10A     -0.914308    11A     -0.832102    12A     -0.768260
      13A     -0.706830    14A     -0.649324    15A     -0.621725
      16A     -0.581823    17A     -0.568001    18A     -0.552781
      19A     -0.534780    20A     -0.502292    21A     -0.486408
      22A     -0.468889    23A     -0.449343    24A     -0.447894
      25A     -0.428419

  @DF-RHF Final Energy:  -271.27848155202702

   => Energetics <=

    Nuclear Repulsion Energy =            255.0410390878076328
    One-Electron Energy =                -873.4516948479283656
    Two-Electron Energy =                 347.1321742080940567
    DFT Exchange-Correlation Energy =       0.0000000000000000
    Empirical Dispersion Energy =           0.0000000000000000
    PCM Polarization Energy =               0.0000000000000000
    EFP Energy =                            0.0000000000000000
    Total Energy =                       -271.2784815520267330
    Molecular point group: c1
  Basis Set: CC-PVTZ
  Basis Set:

  -Total Gradient:
     Atom            X                  Y                   Z
    ------   -----------------  -----------------  -----------------
       1       -0.000003371549    -0.000001761192    -0.000002370370
       2       -0.000018030220    -0.000003411503     0.000016204037
       3       -0.000001016444     0.000017333024    -0.000022139687
       4       -0.004023535783    -0.004557795534     0.001141966591
       5       -0.000011322322    -0.000002320578    -0.000000390834
       6       -0.000002430145    -0.000009955439    -0.000007624782
       7        0.001530436415    -0.000224893603    -0.005226099110
       8        0.003046004993     0.003962536256     0.000458292758
       9        0.000009262710     0.000007719394     0.000002826885
      10       -0.000533557206     0.000826846411     0.003640641955
      11       -0.000006134588     0.000006582181    -0.000005615407
      12        0.000006442769    -0.000006113250     0.000001157557
      13       -0.000023194363     0.000003231172     0.000002709096
      14        0.000014954717    -0.000003157702    -0.000003500380
      15        0.000001179567    -0.000001616330     0.000000053426
      16        0.000006236679    -0.000001704542    -0.000002964270
      17        0.000004107584    -0.000011904004     0.000005569266
      18        0.000003967181     0.000000385237     0.000001283270

  **** Optimization is complete! (in 8 steps) ****
    Final optimized geometry and variables:
    Molecular point group: c1

    Geometry (in Angstrom), charge = 0, multiplicity = 1:

    H           -2.836440752581    -0.262341910809    -0.342265521304
    O           -1.980584984817    -0.028548913664    -0.650797958091
    C           -1.475837306115     1.046275132145     0.098095820209
    C           -0.080887524889     1.400689387428    -0.381267318328
    H           -2.115460016809     1.916239387714    -0.026430625418
    H           -1.463063001679     0.803105256315     1.158196943867
    C            1.084080546029     0.461950030098     0.002750269552
    H           -0.108789003275     1.544673582842    -1.455791714692
    H            0.145248984192     2.383667045784     0.022859060524
    C            0.754636878034    -1.003903230343     0.286531059301
    H            1.562617996003     0.862588252505     0.893032977193
    H            1.834422154130     0.510875031193    -0.779646227238
    C            1.997807184374    -1.801056854877     0.669593583368
    H            0.029442520438    -1.070296911849     1.089827071141
    H            0.285477113886    -1.454224927768    -0.579486156643
    H            2.471261278517    -1.392536408076     1.556844961746
    H            1.750705301571    -2.836570875193     0.874795834987
    H            2.732713026749    -1.789853544515    -0.128785529504

  Mulliken Charges: (a.u.)
   Center  Symbol    Alpha    Beta     Spin     Total
       1     H     0.39642  0.39642  0.00000  0.20715
       2     O     4.19860  4.19860  0.00000 -0.39720
       3     C     2.98512  2.98512  0.00000  0.02975
       4     C     3.09244  3.09244  0.00000 -0.18488
       5     H     0.45874  0.45874  0.00000  0.08252
       6     H     0.46900  0.46900  0.00000  0.06199
       7     C     3.09575  3.09575  0.00000 -0.19150
       8     H     0.45031  0.45031  0.00000  0.09938
       9     H     0.45176  0.45176  0.00000  0.09648
      10     C     3.07750  3.07750  0.00000 -0.15499
      11     H     0.45643  0.45643  0.00000  0.08714
      12     H     0.45118  0.45118  0.00000  0.09764
      13     C     3.15156  3.15156  0.00000 -0.30312
      14     H     0.45807  0.45807  0.00000  0.08385
      15     H     0.44435  0.44435  0.00000  0.11129
      16     H     0.45794  0.45794  0.00000  0.08412
      17     H     0.44910  0.44910  0.00000  0.10180
      18     H     0.45571  0.45571  0.00000  0.08858

   Total alpha = 25.00000, Total beta = 25.00000, Total charge =  0.00000
