  ==> Input File <==

--------------------------------------------------------------------------
set {
	reference rhf
	basis 6-31G*
}

set_num_threads( 4 )
memory 2 gb

molecule MOL {
0 1

H	 -4.031818	 -0.453427	 -0.000094
C	 -2.967712	 -0.297022	 -0.000064
C	 -2.458620	 0.992929	 0.000032
C	 -2.109895	 -1.385637	 -0.000122
H	 -3.124998	 1.836319	 0.000077
C	 -1.090278	 1.193236	 0.000070
H	 -2.506361	 -2.384847	 -0.000198
C	 -0.739812	 -1.187531	 -0.000085
H	 -0.678594	 2.184290	 0.000146
C	 -0.226438	 0.104061	 0.000012
H	 -0.072310	 -2.027032	 -0.000131
C	 1.239129	 0.373821	 0.000060
O	 1.711393	 0.675999	 -1.200048
O	 1.924721	 0.325523	 0.972938
C	 3.098578	 0.947942	 -1.291903
H	 3.359663	 1.795196	 -0.674820
H	 3.286462	 1.168554	 -2.331077
H	 3.674068	 0.088543	 -0.980192

	symmetry c1
}
set optking {
	frozen_dihedral = ("
		13 12 10 6
	")
}

ee = optimize('scf')
oeprop('DIPOLE', 'QUADRUPOLE', 'MULLIKEN_CHARGES')
f=open( 'psi4out.xyz', 'w' )
f.write( "18  " )
f.write( str(ee) + "\n" )
f.write( MOL.save_string_xyz() )
f.close()
--------------------------------------------------------------------------

    Molecular point group: c1
  Charge       = 0
  Multiplicity = 1
  Basis Set: 6-31G*
  Basis Set:
  @DF-RHF Final Energy:  -457.33803240017932
    Total Energy =                       -457.3380324001789177
    Molecular point group: c1
  Basis Set: 6-31G*
  Basis Set:
  Basis Set: 6-31G*
  Basis Set:
  @DF-RHF Final Energy:  -457.33865567285483
    Total Energy =                       -457.3386556728548840
  Basis Set: 6-31G*
  Basis Set:
  Basis Set: 6-31G*
  Basis Set:
  @DF-RHF Final Energy:  -457.33870167630369
    Total Energy =                       -457.3387016763034580
  Basis Set: 6-31G*
  Basis Set:
  Basis Set: 6-31G*
  Basis Set:
  @DF-RHF Final Energy:  -457.33862876756433
    Total Energy =                       -457.3386287675642734
  Basis Set: 6-31G*
  Basis Set:
  Basis Set: 6-31G*
  Basis Set:
  @DF-RHF Final Energy:  -457.33871538826395
    Total Energy =                       -457.3387153882636085
  Basis Set: 6-31G*
  Basis Set:
  Charge       = 0
  Multiplicity = 1
  Basis Set: 6-31G*
  Basis Set:

    Orbital Energies (a.u.)
    -----------------------

    Doubly Occupied:

       1A    -20.610022     2A    -20.551243     3A    -11.380890
       4A    -11.283739     5A    -11.251553     6A    -11.244006
       7A    -11.243444     8A    -11.240451     9A    -11.239558
      10A    -11.238713    11A     -1.475714    12A     -1.368500
      13A     -1.166467    14A     -1.048587    15A     -1.025639
      16A     -0.980211    17A     -0.859553    18A     -0.838217
      19A     -0.780576    20A     -0.737536    21A     -0.685240
      22A     -0.680281    23A     -0.676924    24A     -0.631134
      25A     -0.629559    26A     -0.597148    27A     -0.591381
      28A     -0.548377    29A     -0.536846    30A     -0.517891
      31A     -0.506897    32A     -0.501926    33A     -0.459890
      34A     -0.445088    35A     -0.342555    36A     -0.341921

  @DF-RHF Final Energy:  -457.33871589818574

   => Energetics <=

    Nuclear Repulsion Energy =            491.4303157375831574
    One-Electron Energy =               -1597.0227154010738104
    Two-Electron Energy =                 648.2536837653047996
    DFT Exchange-Correlation Energy =       0.0000000000000000
    Empirical Dispersion Energy =           0.0000000000000000
    PCM Polarization Energy =               0.0000000000000000
    EFP Energy =                            0.0000000000000000
    Total Energy =                       -457.3387158981857965
    Molecular point group: c1
  Basis Set: 6-31G*
  Basis Set:

  -Total Gradient:
     Atom            X                  Y                   Z
    ------   -----------------  -----------------  -----------------
       1       -0.000004936880     0.000015929677    -0.000002392246
       2        0.000025530392    -0.000114875077    -0.000006640821
       3        0.000093244452     0.000065379677     0.000023291677
       4       -0.000141333357     0.000048824187     0.000009858657
       5       -0.000008704199    -0.000005997121    -0.000002851883
       6       -0.000172454705    -0.000035237297     0.002904413213
       7        0.000014136035     0.000004440728     0.000003029430
       8        0.000132172822     0.000091658302    -0.000027739570
       9        0.000002160450    -0.000012422809     0.000009211855
      10        0.000271319462    -0.000982976749    -0.004492828601
      11       -0.000009704147    -0.000000613285     0.000003505536
      12       -0.000597464889     0.003752600003     0.002186701095
      13        0.000416800728    -0.002741395142    -0.000631087152
      14       -0.000020318028    -0.000026068198     0.000011061324
      15        0.000008538823    -0.000095143267     0.000008110257
      16       -0.000020010359     0.000007058546     0.000007955024
      17       -0.000012014228     0.000009365535     0.000004749566
      18        0.000023037628     0.000019472290    -0.000008347361

  **** Optimization is complete! (in 6 steps) ****
    Final optimized geometry and variables:
    Molecular point group: c1

    Geometry (in Angstrom), charge = 0, multiplicity = 1:

    H           -3.996173252711    -0.678951768241     0.211405751307
    C           -2.935231761611    -0.505673484026     0.190797336079
    C           -2.444604031227     0.790156075946     0.178398088255
    C           -2.057497637717    -1.577505834677     0.182309834563
    H           -3.122842872751     1.624138416447     0.193079320340
    C           -1.078613950994     1.014846349525     0.147922447881
    H           -2.434583777563    -2.584117832550     0.198057357354
    C           -0.690510778162    -1.355675604203     0.163341654361
    H           -0.699155848504     2.020917162977     0.134431466276
    C           -0.200974308159    -0.058869952093     0.131915742705
    H           -0.009082338968    -2.187183888827     0.175726992408
    C            1.280075113122     0.173284770090     0.167296793535
    O            1.761101776383     0.497356909204    -1.021982288502
    O            1.953598949029     0.053418700682     1.138210240186
    C            3.156132893379     0.735977527807    -1.106136890144
    H            3.441267163815     1.552164170737    -0.458116640080
    H            3.348327709302     0.989880565973    -2.136619974228
    H            3.708765022922    -0.149529637471    -0.827523145119

  Mulliken Charges: (a.u.)
   Center  Symbol    Alpha    Beta     Spin     Total
       1     H     0.39649  0.39649  0.00000  0.20702
       2     C     3.09730  3.09730  0.00000 -0.19459
       3     C     3.09996  3.09996  0.00000 -0.19991
       4     C     3.10028  3.10028  0.00000 -0.20057
       5     H     0.39597  0.39597  0.00000  0.20807
       6     C     3.09701  3.09701  0.00000 -0.19402
       7     H     0.39580  0.39580  0.00000  0.20840
       8     C     3.09827  3.09827  0.00000 -0.19654
       9     H     0.39160  0.39160  0.00000  0.21680
      10     C     3.00943  3.00943  0.00000 -0.01885
      11     H     0.39000  0.39000  0.00000  0.21999
      12     C     2.64174  2.64174  0.00000  0.71652
      13     O     4.29518  4.29518  0.00000 -0.59037
      14     O     4.27413  4.27413  0.00000 -0.54826
      15     C     3.09422  3.09422  0.00000 -0.18845
      16     H     0.40840  0.40840  0.00000  0.18320
      17     H     0.40633  0.40633  0.00000  0.18733
      18     H     0.40789  0.40789  0.00000  0.18421

   Total alpha = 36.00000, Total beta = 36.00000, Total charge = -0.00000
