  ==> Input File <==

--------------------------------------------------------------------------
set {
	reference rhf
	basis 6-31G*
}

set_num_threads( 4 )
memory 2 gb

molecule MOL {
0 1

H	 -3.420663	 1.227371	 -1.044276
O	 -3.452007	 0.283848	 -0.965577
C	 -3.181085	 -0.079926	 0.364119
C	 -1.765924	 0.277073	 0.805136
H	 -3.327791	 -1.152017	 0.410903
H	 -3.905698	 0.375695	 1.036898
C	 -0.677594	 -0.417312	 -0.014550
H	 -1.637766	 1.358238	 0.744969
H	 -1.659588	 0.017670	 1.857098
C	 0.738335	 -0.034840	 0.421385
H	 -0.814977	 -0.178223	 -1.064632
H	 -0.802730	 -1.495410	 0.071702
C	 1.822265	 -0.738362	 -0.399735
H	 0.853533	 1.043532	 0.342250
H	 0.871597	 -0.279636	 1.474438
C	 3.258060	 -0.455774	 0.057203
H	 1.718003	 -0.459167	 -1.447053
H	 1.651028	 -1.811884	 -0.354513
C	 4.331272	 -0.771579	 -0.986295
H	 3.457112	 -1.043626	 0.950007
H	 3.341431	 0.587072	 0.356743
H	 4.264135	 -1.805577	 -1.314135
H	 5.324807	 -0.620183	 -0.575437
H	 4.243283	 -0.139838	 -1.863977

	symmetry c1
}
set optking {
	frozen_dihedral = ("
		20 16 13 17
	")
}

ee = optimize('scf')
oeprop('DIPOLE', 'QUADRUPOLE', 'MULLIKEN_CHARGES')
f=open( 'psi4out.xyz', 'w' )
f.write( "24  " )
f.write( str(ee) + "\n" )
f.write( MOL.save_string_xyz() )
f.close()
--------------------------------------------------------------------------

    Molecular point group: c1
  Charge       = 0
  Multiplicity = 1
  Basis Set: 6-31G*
  Basis Set:
  @DF-RHF Final Energy:  -349.24760753565863
    Total Energy =                       -349.2476075356588581
    Molecular point group: c1
  Basis Set: 6-31G*
  Basis Set:
  Basis Set: 6-31G*
  Basis Set:
  @DF-RHF Final Energy:  -349.24795621434606
    Total Energy =                       -349.2479562143464591
  Basis Set: 6-31G*
  Basis Set:
  Basis Set: 6-31G*
  Basis Set:
  @DF-RHF Final Energy:  -349.24797444187345
    Total Energy =                       -349.2479744418737369
  Basis Set: 6-31G*
  Basis Set:
  Basis Set: 6-31G*
  Basis Set:
  @DF-RHF Final Energy:  -349.24798524374057
    Total Energy =                       -349.2479852437405725
  Basis Set: 6-31G*
  Basis Set:
  Basis Set: 6-31G*
  Basis Set:
  @DF-RHF Final Energy:  -349.24798996509918
    Total Energy =                       -349.2479899650992365
  Basis Set: 6-31G*
  Basis Set:
  Charge       = 0
  Multiplicity = 1
  Basis Set: 6-31G*
  Basis Set:

    Orbital Energies (a.u.)
    -----------------------

    Doubly Occupied:

       1A    -20.553599     2A    -11.267728     3A    -11.217508
       4A    -11.213673     5A    -11.213002     6A    -11.211253
       7A    -11.211124     8A    -11.207138     9A     -1.360200
      10A     -1.088376    11A     -1.048939    12A     -0.988113
      13A     -0.913490    14A     -0.842102    15A     -0.797502
      16A     -0.788256    17A     -0.678965    18A     -0.656762
      19A     -0.630264    20A     -0.614363    21A     -0.593137
      22A     -0.584991    23A     -0.547418    24A     -0.541701
      25A     -0.530464    26A     -0.500953    27A     -0.495012
      28A     -0.470851    29A     -0.469206    30A     -0.458872
      31A     -0.456445    32A     -0.456270    33A     -0.418384

  @DF-RHF Final Energy:  -349.24799011983663

   => Energetics <=

    Nuclear Repulsion Energy =            380.5838781603656003
    One-Electron Energy =               -1227.6116127606121609
    Two-Electron Energy =                 497.7797444804102156
    DFT Exchange-Correlation Energy =       0.0000000000000000
    Empirical Dispersion Energy =           0.0000000000000000
    PCM Polarization Energy =               0.0000000000000000
    EFP Energy =                            0.0000000000000000
    Total Energy =                       -349.2479901198362882
    Molecular point group: c1
  Basis Set: 6-31G*
  Basis Set:

  -Total Gradient:
     Atom            X                  Y                   Z
    ------   -----------------  -----------------  -----------------
       1        0.000000245946    -0.000000039322     0.000000976543
       2       -0.000000293112    -0.000005591541    -0.000001123009
       3        0.000009460802     0.000003366856    -0.000015445738
       4        0.000035905136     0.000011216162     0.000009444785
       5        0.000002026124     0.000001540608    -0.000001907346
       6        0.000006669366     0.000000242416     0.000004149679
       7        0.000027036375    -0.000036876019    -0.000043703814
       8       -0.000005565976     0.000003112353     0.000002599991
       9        0.000002087145     0.000000679405     0.000000471742
      10        0.000043757552    -0.000010628946     0.000049504829
      11       -0.000009090942    -0.000004090914    -0.000009396786
      12       -0.000008959051    -0.000001835181    -0.000004774021
      13       -0.001000665576     0.003282583745     0.000586801626
      14        0.000012197110    -0.000026548037    -0.000006948148
      15       -0.000014054024    -0.000003005385     0.000038441697
      16       -0.001148333791     0.002464803602     0.002044572029
      17        0.000966702720    -0.003163016511    -0.000923729729
      18       -0.000053001226     0.000031566735     0.000050028905
      19       -0.000085945648    -0.000016282306     0.000039547279
      20        0.001248924538    -0.002575680868    -0.001933864347
      21        0.000016233791     0.000040933224     0.000033786984
      22       -0.000009007332    -0.000025456573    -0.000011543112
      23       -0.000044808406     0.000010492095     0.000049895483
      24        0.000008478485     0.000018514402     0.000042214480

  **** Optimization is complete! (in 6 steps) ****
    Final optimized geometry and variables:
    Molecular point group: c1

    Geometry (in Angstrom), charge = 0, multiplicity = 1:

    H           -3.483519282520     1.479767138659    -0.924324406442
    O           -3.522534549788     0.535615650227    -0.857977364310
    C           -3.258881678638     0.152604883356     0.467778981755
    C           -1.842361183226     0.492528076631     0.917796973522
    H           -3.414123004685    -0.918726129621     0.500093860229
    H           -3.982027769976     0.605115500384     1.144152990617
    C           -0.756975790211    -0.198275442958     0.091257490299
    H           -1.705838416891     1.573408523587     0.873280044374
    H           -1.740918288658     0.217449510361     1.966259955769
    C            0.659872354931     0.169441484165     0.534807757293
    H           -0.890521950772     0.055091357538    -0.955945656417
    H           -0.888999217993    -1.276576642048     0.163496304570
    C            1.747262258915    -0.516864913966    -0.291497522490
    H            0.789592684972     1.248599305209     0.470023438999
    H            0.790249388404    -0.089013024781     1.584864218338
    C            3.171534170970    -0.200301055216     0.179127156670
    H            1.641813541384    -0.253488800999    -1.342536340440
    H            1.598885160191    -1.594992872067    -0.252134802590
    C            4.230839112319    -0.547350287160    -0.867894515425
    H            3.384328358591    -0.769278391368     1.081191815911
    H            3.253369066546     0.852387539458     0.439310765492
    H            4.175806865895    -1.595944953381    -1.147554225166
    H            5.232044880645    -0.357814702712    -0.493026429501
    H            4.097713409684     0.041619392837    -1.770849313327

  Mulliken Charges: (a.u.)
   Center  Symbol    Alpha    Beta     Spin     Total
       1     H     0.28338  0.28338  0.00000  0.43323
       2     O     4.36829  4.36829  0.00000 -0.73659
       3     C     2.99614  2.99614  0.00000  0.00772
       4     C     3.16914  3.16914  0.00000 -0.33828
       5     H     0.41633  0.41633  0.00000  0.16733
       6     H     0.42814  0.42814  0.00000  0.14372
       7     C     3.15230  3.15230  0.00000 -0.30460
       8     H     0.42822  0.42822  0.00000  0.14356
       9     H     0.42232  0.42232  0.00000  0.15536
      10     C     3.15195  3.15195  0.00000 -0.30390
      11     H     0.41197  0.41197  0.00000  0.17607
      12     H     0.42345  0.42345  0.00000  0.15309
      13     C     3.15177  3.15177  0.00000 -0.30355
      14     H     0.42488  0.42488  0.00000  0.15024
      15     H     0.42473  0.42473  0.00000  0.15054
      16     C     3.15150  3.15150  0.00000 -0.30300
      17     H     0.42293  0.42293  0.00000  0.15413
      18     H     0.42327  0.42327  0.00000  0.15346
      19     C     3.23974  3.23974  0.00000 -0.47947
      20     H     0.42262  0.42262  0.00000  0.15477
      21     H     0.42315  0.42315  0.00000  0.15370
      22     H     0.42182  0.42182  0.00000  0.15637
      23     H     0.42014  0.42014  0.00000  0.15973
      24     H     0.42181  0.42181  0.00000  0.15638

   Total alpha = 33.00000, Total beta = 33.00000, Total charge = -0.00000
