  ==> Input File <==

--------------------------------------------------------------------------
set {
	reference rhf
	basis cc-pvtz
}

set_num_threads( 4 )
memory 2 gb

molecule MOL {
0 1

H	 1.915051	 0.586888	 0.580201
C	 1.068778	 0.646375	 -0.088374
O	 -0.000000	 0.000000	 0.518769
H	 0.845269	 1.694218	 -0.277908
H	 1.334807	 0.175829	 -1.032657
C	 -1.165153	 0.000000	 -0.236961
H	 -1.229451	 0.882440	 -0.870223
H	 -2.002557	 0.000000	 0.445289
H	 -1.229451	 -0.882440	 -0.870223

	symmetry c1
}
set optking {
	frozen_dihedral = ("
		2 3 6 7
	")
}

ee = optimize('scf')
oeprop('DIPOLE', 'QUADRUPOLE', 'MULLIKEN_CHARGES')
f=open( 'psi4out.xyz', 'w' )
f.write( "9  " )
f.write( str(ee) + "\n" )
f.write( MOL.save_string_xyz() )
f.close()
--------------------------------------------------------------------------

    Molecular point group: c1
  Charge       = 0
  Multiplicity = 1
  Basis Set: CC-PVTZ
  Basis Set:
  @DF-RHF Final Energy:  -154.12515994848292
    Total Energy =                       -154.1251599484828319
    Molecular point group: c1
  Basis Set: CC-PVTZ
  Basis Set:
  Basis Set: CC-PVTZ
  Basis Set:
  @DF-RHF Final Energy:  -154.12526174520121
    Total Energy =                       -154.1252617452011577
  Basis Set: CC-PVTZ
  Basis Set:
  Basis Set: CC-PVTZ
  Basis Set:
  @DF-RHF Final Energy:  -154.12529613125838
    Total Energy =                       -154.1252961312584375
  Basis Set: CC-PVTZ
  Basis Set:
  Charge       = 0
  Multiplicity = 1
  Basis Set: CC-PVTZ
  Basis Set:

    Orbital Energies (a.u.)
    -----------------------

    Doubly Occupied:

       1A    -20.548496     2A    -11.263507     3A    -11.262970
       4A     -1.380260     5A     -0.975844     6A     -0.872790
       7A     -0.661249     8A     -0.655535     9A     -0.646106
      10A     -0.554836    11A     -0.529207    12A     -0.476538
      13A     -0.417185

  @DF-RHF Final Energy:  -154.12529639185692

   => Energetics <=

    Nuclear Repulsion Energy =             84.7192548939001995
    One-Electron Energy =                -377.2000563712408621
    Two-Electron Energy =                 138.3555050854837987
    DFT Exchange-Correlation Energy =       0.0000000000000000
    Empirical Dispersion Energy =           0.0000000000000000
    PCM Polarization Energy =               0.0000000000000000
    EFP Energy =                            0.0000000000000000
    Total Energy =                       -154.1252963918568639
    Molecular point group: c1
  Basis Set: CC-PVTZ
  Basis Set:

  -Total Gradient:
     Atom            X                  Y                   Z
    ------   -----------------  -----------------  -----------------
       1        0.000026561995     0.000010432703    -0.000008067465
       2       -0.000560517997     0.002040534766     0.000996651956
       3        0.001239805315    -0.003287411287    -0.002081260554
       4       -0.000019962708    -0.000018368010     0.000001721816
       5       -0.000023739916     0.000002437273     0.000014594869
       6       -0.002044089807     0.002690465507     0.003198377953
       7        0.001394821419    -0.001448205397    -0.002123607309
       8       -0.000023541698     0.000005277565     0.000001562249
       9        0.000010663398     0.000004836880     0.000000026483

  **** Optimization is complete! (in 4 steps) ****
    Final optimized geometry and variables:
    Molecular point group: c1

    Geometry (in Angstrom), charge = 0, multiplicity = 1:

    H            1.952615025998     0.354304224207     0.532157217925
    C            1.109794442857     0.420622431195    -0.140652691595
    O            0.033498247759    -0.216058117458     0.464223547439
    H            0.894725878373     1.469578047703    -0.330476338777
    H            1.380591312037    -0.051140145850    -1.083304818640
    C           -1.141081748809    -0.223366199743    -0.282528890966
    H           -1.215360443483     0.650601702537    -0.923898631636
    H           -1.981562109613    -0.240024304242     0.396960846472
    H           -1.190118572383    -1.103016565477    -0.920252246293

  Mulliken Charges: (a.u.)
   Center  Symbol    Alpha    Beta     Spin     Total
       1     H     0.44915  0.44915  0.00000  0.10170
       2     C     3.02149  3.02149  0.00000 -0.04299
       3     O     4.17017  4.17017  0.00000 -0.34034
       4     H     0.47217  0.47217  0.00000  0.05567
       5     H     0.47371  0.47371  0.00000  0.05258
       6     C     3.01901  3.01901  0.00000 -0.03803
       7     H     0.47554  0.47554  0.00000  0.04891
       8     H     0.45176  0.45176  0.00000  0.09648
       9     H     0.46699  0.46699  0.00000  0.06601

   Total alpha = 13.00000, Total beta = 13.00000, Total charge = -0.00000
