  ==> Input File <==

--------------------------------------------------------------------------
set {
	reference rhf
	basis 6-31G*
}

set_num_threads( 4 )
memory 2 gb

molecule MOL {
0 1

O	 1.599059	 0.669487	 0.940852
C	 1.122059	 0.121804	 -0.000188
C	 -0.170150	 -0.657997	 -0.000612
O	 1.680999	 0.126399	 -1.203741
C	 -1.412532	 0.227344	 -0.000452
H	 -0.153702	 -1.313099	 -0.867402
H	 -0.153924	 -1.313811	 0.865644
C	 -2.706999	 -0.587347	 -0.000541
H	 -1.388000	 0.879466	 -0.868000
H	 -1.387972	 0.879138	 0.867341
C	 -3.956778	 0.291888	 0.000910
H	 -2.726114	 -1.239230	 -0.871609
H	 -2.725217	 -1.240844	 0.869333
H	 -3.985213	 0.933254	 -0.875158
H	 -4.860123	 -0.309979	 0.000519
H	 -3.984618	 0.931166	 0.878514
C	 2.904142	 0.826439	 -1.341598
H	 2.773226	 1.871433	 -1.100070
H	 3.193182	 0.714848	 -2.375016
H	 3.658844	 0.404029	 -0.693908

	symmetry c1
}
set optking {
	frozen_dihedral = ("
		1 2 3 6
	")
}

ee = optimize('scf')
oeprop('DIPOLE', 'QUADRUPOLE', 'MULLIKEN_CHARGES')
f=open( 'psi4out.xyz', 'w' )
f.write( "20  " )
f.write( str(ee) + "\n" )
f.write( MOL.save_string_xyz() )
f.close()
--------------------------------------------------------------------------

    Molecular point group: c1
  Charge       = 0
  Multiplicity = 1
  Basis Set: 6-31G*
  Basis Set:
  @DF-RHF Final Energy:  -383.93926667404810
    Total Energy =                       -383.9392666740482127
    Molecular point group: c1
  Basis Set: 6-31G*
  Basis Set:
  Basis Set: 6-31G*
  Basis Set:
  @DF-RHF Final Energy:  -383.93974935124453
    Total Energy =                       -383.9397493512444726
  Basis Set: 6-31G*
  Basis Set:
  Basis Set: 6-31G*
  Basis Set:
  @DF-RHF Final Energy:  -383.93862729567348
    Total Energy =                       -383.9386272956734274
  Basis Set: 6-31G*
  Basis Set:
  Basis Set: 6-31G*
  Basis Set:
  @DF-RHF Final Energy:  -383.94006077345756
    Total Energy =                       -383.9400607734579580
  Basis Set: 6-31G*
  Basis Set:
  Basis Set: 6-31G*
  Basis Set:
  @DF-RHF Final Energy:  -383.94006681783873
    Total Energy =                       -383.9400668178386695
  Basis Set: 6-31G*
  Basis Set:
  Charge       = 0
  Multiplicity = 1
  Basis Set: 6-31G*
  Basis Set:

    Orbital Energies (a.u.)
    -----------------------

    Doubly Occupied:

       1A    -20.605238     2A    -20.542109     3A    -11.370850
       4A    -11.280604     5A    -11.233583     6A    -11.229250
       7A    -11.223938     8A    -11.213959     9A     -1.468958
      10A     -1.360973    11A     -1.092167    12A     -1.024796
      13A     -0.968602    14A     -0.888982    15A     -0.806716
      16A     -0.773114    17A     -0.694438    18A     -0.679741
      19A     -0.673144    20A     -0.647078    21A     -0.598760
      22A     -0.591908    23A     -0.574175    24A     -0.553395
      25A     -0.534249    26A     -0.521228    27A     -0.509078
      28A     -0.481998    29A     -0.478464    30A     -0.475286
      31A     -0.453250    32A     -0.430627

  @DF-RHF Final Energy:  -383.94006707564466

   => Energetics <=

    Nuclear Repulsion Energy =            382.6456523527215836
    One-Electron Energy =               -1281.2101220232552805
    Two-Electron Energy =                 514.6244025948884655
    DFT Exchange-Correlation Energy =       0.0000000000000000
    Empirical Dispersion Energy =           0.0000000000000000
    PCM Polarization Energy =               0.0000000000000000
    EFP Energy =                            0.0000000000000000
    Total Energy =                       -383.9400670756452882
    Molecular point group: c1
  Basis Set: 6-31G*
  Basis Set:

  -Total Gradient:
     Atom            X                  Y                   Z
    ------   -----------------  -----------------  -----------------
       1       -0.000128382620     0.000228592180    -0.000067288280
       2        0.000167170464    -0.000280260549     0.000039783796
       3        0.000084657821    -0.000118306159     0.000200636423
       4       -0.000019972552    -0.000026131677     0.000058120432
       5        0.000022053622     0.000009538594    -0.000043026443
       6       -0.000120128856     0.000184559285    -0.000155601845
       7       -0.000001368649    -0.000013142877    -0.000029250589
       8        0.000004635159    -0.000013240536     0.000002701924
       9       -0.000000749814    -0.000011627708     0.000006512895
      10        0.000006921225     0.000011590178    -0.000026375836
      11        0.000000083058     0.000003304672     0.000019854649
      12        0.000004286273     0.000014077171    -0.000001154802
      13        0.000003910317    -0.000014469083    -0.000005244222
      14        0.000003205980    -0.000003564282     0.000002909171
      15       -0.000004138126     0.000001160772     0.000003837006
      16       -0.000005968825     0.000007144567    -0.000000991749
      17       -0.000040543445     0.000037131381    -0.000008204500
      18        0.000015194303    -0.000002873899    -0.000004388959
      19        0.000007817530    -0.000003557005     0.000000230383
      20        0.000001317124    -0.000009925027     0.000006940547

  **** Optimization is complete! (in 6 steps) ****
    Final optimized geometry and variables:
    Molecular point group: c1

    Geometry (in Angstrom), charge = 0, multiplicity = 1:

    O            1.660307857327     0.474346361015     1.162656209256
    C            1.207270864784    -0.071023591702     0.207304712068
    C           -0.072179385032    -0.869782846357     0.210442188931
    O            1.760398270521    -0.006791462940    -0.995900475633
    C           -1.293377855590     0.061716950449     0.183346580036
    H           -0.087676575516    -1.536031730687    -0.643044264412
    H           -0.082890871264    -1.462777539884     1.117516478205
    C           -2.614072877973    -0.707901693304     0.224146043556
    H           -1.257878156303     0.673477910254    -0.715169160343
    H           -1.236522840241     0.740226247013     1.029252715235
    C           -3.833776827021     0.212412392792     0.203848247669
    H           -2.660921422164    -1.389829404524    -0.621929490921
    H           -2.641959016046    -1.325892628674     1.118738275472
    H           -3.851525817569     0.820203224863    -0.696220757418
    H           -4.755817716636    -0.359317719512     0.235156149276
    H           -3.831550608310     0.884658195651     1.056854457430
    C            2.944464363773     0.760735352604    -1.116943811892
    H            2.758331096580     1.790722216405    -0.848721424419
    H            3.237201769872     0.690407004416    -2.152939696271
    H            3.721019394325     0.362647321313    -0.479940973366

  Mulliken Charges: (a.u.)
   Center  Symbol    Alpha    Beta     Spin     Total
       1     O     4.28659  4.28659  0.00000 -0.57319
       2     C     2.61509  2.61509  0.00000  0.76982
       3     C     3.19579  3.19579  0.00000 -0.39157
       4     O     4.30262  4.30262  0.00000 -0.60523
       5     C     3.16434  3.16434  0.00000 -0.32869
       6     H     0.40276  0.40276  0.00000  0.19448
       7     H     0.40092  0.40092  0.00000  0.19816
       8     C     3.15293  3.15293  0.00000 -0.30587
       9     H     0.41468  0.41468  0.00000  0.17065
      10     H     0.40677  0.40677  0.00000  0.18645
      11     C     3.24030  3.24030  0.00000 -0.48060
      12     H     0.42098  0.42098  0.00000  0.15805
      13     H     0.41994  0.41994  0.00000  0.16012
      14     H     0.42047  0.42047  0.00000  0.15906
      15     H     0.41751  0.41751  0.00000  0.16499
      16     H     0.41922  0.41922  0.00000  0.16157
      17     C     3.09316  3.09316  0.00000 -0.18632
      18     H     0.40896  0.40896  0.00000  0.18208
      19     H     0.40864  0.40864  0.00000  0.18273
      20     H     0.40834  0.40834  0.00000  0.18332

   Total alpha = 32.00000, Total beta = 32.00000, Total charge = -0.00000
