  ==> Input File <==

--------------------------------------------------------------------------
set {
	reference rhf
	basis 6-31G*
}

set_num_threads( 1 )
memory 2 gb

molecule MOL {
0 1

H	 -3.312655	 0.861800	 1.698222
O	 -2.454169	 1.141502	 1.414418
C	 -2.026376	 0.340750	 0.341611
C	 -0.673256	 0.843270	 -0.132153
H	 -1.943032	 -0.698690	 0.653951
H	 -2.745151	 0.381301	 -0.475929
C	 0.486613	 -0.083066	 0.235839
H	 -0.715586	 0.970948	 -1.210718
H	 -0.508072	 1.829858	 0.297090
C	 1.840406	 0.433480	 -0.254303
H	 0.300215	 -1.068318	 -0.178947
H	 0.519509	 -0.203625	 1.318070
C	 3.000220	 -0.489290	 0.118523
H	 1.809207	 0.553576	 -1.335192
H	 2.021860	 1.424500	 0.157276
H	 2.864959	 -1.479103	 -0.307933
H	 3.946603	 -0.099227	 -0.243630
H	 3.080049	 -0.602997	 1.196117

	symmetry c1
}
set optking {
	frozen_dihedral = ("
		14 10 7 11,
		10 7 4 8,
		1 2 3 4
	")
}

ee = energy('scf')
oeprop('DIPOLE', 'QUADRUPOLE', 'MULLIKEN_CHARGES')
f=open( 'psi4out.xyz', 'w' )
f.write( "18  " )
f.write( str(ee) + "\n" )
f.write( MOL.save_string_xyz() )
f.close()
--------------------------------------------------------------------------

    Molecular point group: c1

    Geometry (in Angstrom), charge = 0, multiplicity = 1:

       Center              X                  Y                   Z               Mass
    ------------   -----------------  -----------------  -----------------  -----------------
           H         -3.285825023551     0.490758443630     1.381287906321     1.007825032070
           O         -2.427339023551     0.770460443630     1.097483906321    15.994914619560
           C         -1.999546023551    -0.030291556370     0.024676906321    12.000000000000
           C         -0.646426023551     0.472228443630    -0.449087093679    12.000000000000
           H         -1.916202023551    -1.069731556370     0.337016906321     1.007825032070
           H         -2.718321023551     0.010259443630    -0.792863093679     1.007825032070
           C          0.513442976449    -0.454107556370    -0.081095093679    12.000000000000
           H         -0.688756023551     0.599906443630    -1.527652093679     1.007825032070
           H         -0.481242023551     1.458816443630    -0.019844093679     1.007825032070
           C          1.867235976449     0.062438443630    -0.571237093679    12.000000000000
           H          0.327044976449    -1.439359556370    -0.495881093679     1.007825032070
           H          0.546338976449    -0.574666556370     1.001135906321     1.007825032070
           C          3.027049976449    -0.860331556370    -0.198411093679    12.000000000000
           H          1.836036976449     0.182534443630    -1.652126093679     1.007825032070
           H          2.048689976449     1.053458443630    -0.159658093679     1.007825032070
           H          2.891788976449    -1.850144556370    -0.624867093679     1.007825032070
           H          3.973432976449    -0.470268556370    -0.560564093679     1.007825032070
           H          3.106878976449    -0.974038556370     0.879182906321     1.007825032070

  Charge       = 0
  Multiplicity = 1
  Basis Set: 6-31G*
  Basis Set:

    Orbital Energies (a.u.)
    -----------------------

    Doubly Occupied:

       1A    -20.551419     2A    -11.266212     3A    -11.213390
       4A    -11.212253     5A    -11.209558     6A    -11.206938
       7A     -1.358168     8A     -1.078127     9A     -1.009866
      10A     -0.913082    11A     -0.818554    12A     -0.789854
      13A     -0.703295    14A     -0.638917    15A     -0.630643
      16A     -0.579659    17A     -0.570922    18A     -0.560674
      19A     -0.525058    20A     -0.498815    21A     -0.489114
      22A     -0.468708    23A     -0.463112    24A     -0.450751
      25A     -0.425692

  @DF-RHF Final Energy:  -271.17415457320254

   => Energetics <=

    Nuclear Repulsion Energy =            246.7323941507002587
    One-Electron Energy =                -856.5476223077707800
    Two-Electron Energy =                 338.6410735838675805
    DFT Exchange-Correlation Energy =       0.0000000000000000
    Empirical Dispersion Energy =           0.0000000000000000
    PCM Polarization Energy =               0.0000000000000000
    EFP Energy =                            0.0000000000000000
    Total Energy =                       -271.1741545732029977

  Mulliken Charges: (a.u.)
   Center  Symbol    Alpha    Beta     Spin     Total
       1     H     0.28195  0.28195  0.00000  0.43610
       2     O     4.37076  4.37076  0.00000 -0.74153
       3     C     2.99578  2.99578  0.00000  0.00843
       4     C     3.16397  3.16397  0.00000 -0.32793
       5     H     0.42989  0.42989  0.00000  0.14022
       6     H     0.43080  0.43080  0.00000  0.13840
       7     C     3.15701  3.15701  0.00000 -0.31402
       8     H     0.42229  0.42229  0.00000  0.15543
       9     H     0.40440  0.40440  0.00000  0.19120
      10     C     3.15231  3.15231  0.00000 -0.30463
      11     H     0.42525  0.42525  0.00000  0.14951
      12     H     0.41814  0.41814  0.00000  0.16372
      13     C     3.23922  3.23922  0.00000 -0.47845
      14     H     0.42370  0.42370  0.00000  0.15259
      15     H     0.42115  0.42115  0.00000  0.15770
      16     H     0.42256  0.42256  0.00000  0.15489
      17     H     0.41953  0.41953  0.00000  0.16094
      18     H     0.42128  0.42128  0.00000  0.15744

   Total alpha = 25.00000, Total beta = 25.00000, Total charge = -0.00000
