  ==> Input File <==

--------------------------------------------------------------------------
set {
	reference rhf
	basis 6-31G*
}

set_num_threads( 1 )
memory 2 gb

molecule MOL {
0 1

O	 2.738481	 -0.329823	 0.384558
C	 1.705091	 0.115954	 0.001797
C	 0.381791	 -0.609817	 0.001258
O	 1.579563	 1.344690	 -0.483576
C	 -0.823008	 0.326187	 0.001381
H	 0.371250	 -1.265087	 -0.865474
H	 0.370908	 -1.265746	 0.867490
C	 -2.149452	 -0.435131	 -0.000098
H	 -0.770201	 0.977095	 -0.865636
H	 -0.771220	 0.975655	 0.869608
C	 -3.368779	 0.488503	 -0.000883
H	 -2.193746	 -1.087250	 -0.871175
H	 -2.195311	 -1.087803	 0.870418
C	 -4.693822	 -0.272754	 -0.001129
H	 -3.325798	 1.139422	 -0.871284
H	 -3.326423	 1.139959	 0.869145
H	 -4.781274	 -0.907928	 -0.878124
H	 -5.538651	 0.408946	 -0.001420
H	 -4.781694	 -0.907783	 0.875984
C	 2.751614	 2.137404	 -0.537004
H	 3.161011	 2.277636	 0.453075
H	 2.448214	 3.085034	 -0.953923
H	 3.496513	 1.672520	 -1.166698

	symmetry c1
}
set optking {
	frozen_dihedral = ("
		15 11 8 12,
		9 5 8 12,
		9 5 3 6,
		1 2 4 20
	")
}

ee = energy('scf')
oeprop('DIPOLE', 'QUADRUPOLE', 'MULLIKEN_CHARGES')
f=open( 'psi4out.xyz', 'w' )
f.write( "23  " )
f.write( str(ee) + "\n" )
f.write( MOL.save_string_xyz() )
f.close()
--------------------------------------------------------------------------

    Molecular point group: c1

    Geometry (in Angstrom), charge = 0, multiplicity = 1:

       Center              X                  Y                   Z               Mass
    ------------   -----------------  -----------------  -----------------  -----------------
           O          2.917329104629    -0.655972660167     0.458970243487    15.994914619560
           C          1.883939104629    -0.210195660167     0.076209243487    12.000000000000
           C          0.560639104629    -0.935966660167     0.075670243487    12.000000000000
           O          1.758411104629     1.018540339833    -0.409163756513    15.994914619560
           C         -0.644159895371     0.000037339833     0.075793243487    12.000000000000
           H          0.550098104629    -1.591236660167    -0.791061756513     1.007825032070
           H          0.549756104629    -1.591895660167     0.941902243487     1.007825032070
           C         -1.970603895371    -0.761280660167     0.074314243487    12.000000000000
           H         -0.591352895371     0.650945339833    -0.791223756513     1.007825032070
           H         -0.592371895371     0.649505339833     0.944020243487     1.007825032070
           C         -3.189930895371     0.162353339833     0.073529243487    12.000000000000
           H         -2.014897895371    -1.413399660167    -0.796762756513     1.007825032070
           H         -2.016462895371    -1.413952660167     0.944830243487     1.007825032070
           C         -4.514973895371    -0.598903660167     0.073283243487    12.000000000000
           H         -3.146949895371     0.813272339833    -0.796871756513     1.007825032070
           H         -3.147574895371     0.813809339833     0.943557243487     1.007825032070
           H         -4.602425895371    -1.234077660167    -0.803711756513     1.007825032070
           H         -5.359802895371     0.082796339833     0.072992243487     1.007825032070
           H         -4.602845895371    -1.233932660167     0.950396243487     1.007825032070
           C          2.930462104629     1.811254339833    -0.462591756513    12.000000000000
           H          3.339859104629     1.951486339833     0.527487243487     1.007825032070
           H          2.627062104629     2.758884339833    -0.879510756513     1.007825032070
           H          3.675361104629     1.346370339833    -1.092285756513     1.007825032070

  Charge       = 0
  Multiplicity = 1
  Basis Set: 6-31G*
  Basis Set:

    Orbital Energies (a.u.)
    -----------------------

    Doubly Occupied:

       1A    -20.605125     2A    -20.542948     3A    -11.372354
       4A    -11.281300     5A    -11.235215     6A    -11.221948
       7A    -11.219351     8A    -11.218547     9A    -11.211218
      10A     -1.469909    11A     -1.361933    12A     -1.096550
      13A     -1.046062    14A     -0.981977    15A     -0.935196
      16A     -0.847302    17A     -0.796978    18A     -0.774206
      19A     -0.694520    20A     -0.684168    21A     -0.671091
      22A     -0.652112    23A     -0.609719    24A     -0.590977
      25A     -0.576833    26A     -0.564417    27A     -0.553818
      28A     -0.524714    29A     -0.523131    30A     -0.508085
      31A     -0.487162    32A     -0.479924    33A     -0.469903
      34A     -0.467107    35A     -0.453158    36A     -0.425461

  @DF-RHF Final Energy:  -422.97291777978921

   => Energetics <=

    Nuclear Repulsion Energy =            457.2582431179517926
    One-Electron Energy =               -1482.1535887728989564
    Two-Electron Energy =                 601.9224278751573820
    DFT Exchange-Correlation Energy =       0.0000000000000000
    Empirical Dispersion Energy =           0.0000000000000000
    PCM Polarization Energy =               0.0000000000000000
    EFP Energy =                            0.0000000000000000
    Total Energy =                       -422.9729177797896682

  Mulliken Charges: (a.u.)
   Center  Symbol    Alpha    Beta     Spin     Total
       1     O     4.28829  4.28829  0.00000 -0.57658
       2     C     2.60330  2.60330  0.00000  0.79341
       3     C     3.21205  3.21205  0.00000 -0.42410
       4     O     4.30422  4.30422  0.00000 -0.60844
       5     C     3.15418  3.15418  0.00000 -0.30837
       6     H     0.39960  0.39960  0.00000  0.20081
       7     H     0.39819  0.39819  0.00000  0.20362
       8     C     3.15327  3.15327  0.00000 -0.30654
       9     H     0.40813  0.40813  0.00000  0.18374
      10     H     0.41727  0.41727  0.00000  0.16546
      11     C     3.15155  3.15155  0.00000 -0.30310
      12     H     0.42340  0.42340  0.00000  0.15321
      13     H     0.42304  0.42304  0.00000  0.15393
      14     C     3.23961  3.23961  0.00000 -0.47921
      15     H     0.42205  0.42205  0.00000  0.15591
      16     H     0.42214  0.42214  0.00000  0.15573
      17     H     0.42148  0.42148  0.00000  0.15704
      18     H     0.41858  0.41858  0.00000  0.16285
      19     H     0.42129  0.42129  0.00000  0.15742
      20     C     3.09220  3.09220  0.00000 -0.18439
      21     H     0.40855  0.40855  0.00000  0.18290
      22     H     0.40887  0.40887  0.00000  0.18227
      23     H     0.40878  0.40878  0.00000  0.18245

   Total alpha = 36.00000, Total beta = 36.00000, Total charge =  0.00000
