  ==> Input File <==

--------------------------------------------------------------------------
set {
	reference rhf
	basis 6-31G*
}

set_num_threads( 4 )
memory 2 gb

molecule MOL {
0 1

H	 2.591676	 2.013956	 0.335017
O	 3.341076	 1.666752	 -0.126416
C	 3.569581	 0.339145	 0.272707
C	 2.539767	 -0.640285	 -0.279495
H	 4.553106	 0.084646	 -0.100901
H	 3.608576	 0.269204	 1.359154
C	 2.805512	 -2.100191	 0.095902
H	 1.556661	 -0.344765	 0.077628
H	 2.526098	 -0.542407	 -1.363746
C	 1.785847	 -3.063632	 -0.518005
H	 2.792191	 -2.198801	 1.177782
H	 3.806001	 -2.382152	 -0.232521
C	 2.055625	 -4.547592	 -0.243368
H	 0.790308	 -2.806721	 -0.160588
H	 1.769667	 -2.910284	 -1.595003
C	 1.919081	 -4.966835	 1.222943
H	 1.361201	 -5.136994	 -0.838513
H	 3.051895	 -4.803879	 -0.600580
C	 2.093402	 -6.472731	 1.431091
H	 0.940279	 -4.664964	 1.592988
H	 2.650485	 -4.441275	 1.832154
C	 1.963947	 -6.893046	 2.894731
H	 1.355122	 -7.006123	 0.836177
H	 3.066989	 -6.777873	 1.053069
H	 0.987877	 -6.630721	 3.293098
H	 2.090302	 -7.965229	 3.009153
H	 2.713364	 -6.404416	 3.511156

	symmetry c1
}
set optking {
	frozen_dihedral = ("
		8 4 3 2
	")
}

ee = optimize('scf')
oeprop('DIPOLE', 'QUADRUPOLE', 'MULLIKEN_CHARGES')
f=open( 'psi4out.xyz', 'w' )
f.write( "27  " )
f.write( str(ee) + "\n" )
f.write( MOL.save_string_xyz() )
f.close()
--------------------------------------------------------------------------

    Molecular point group: c1
  Charge       = 0
  Multiplicity = 1
  Basis Set: 6-31G*
  Basis Set:
  @DF-RHF Final Energy:  -388.28183882561154
    Total Energy =                       -388.2818388256122262
    Molecular point group: c1
  Basis Set: 6-31G*
  Basis Set:
  Basis Set: 6-31G*
  Basis Set:
  @DF-RHF Final Energy:  -388.28208035274434
    Total Energy =                       -388.2820803527445150
  Basis Set: 6-31G*
  Basis Set:
  Basis Set: 6-31G*
  Basis Set:
  @DF-RHF Final Energy:  -388.28212176620292
    Total Energy =                       -388.2821217662021809
  Basis Set: 6-31G*
  Basis Set:
  Basis Set: 6-31G*
  Basis Set:
  @DF-RHF Final Energy:  -388.28212545234157
    Total Energy =                       -388.2821254523420293
  Basis Set: 6-31G*
  Basis Set:
  Charge       = 0
  Multiplicity = 1
  Basis Set: 6-31G*
  Basis Set:

    Orbital Energies (a.u.)
    -----------------------

    Doubly Occupied:

       1A    -20.552061     2A    -11.266655     3A    -11.219166
       4A    -11.216931     5A    -11.216406     6A    -11.215733
       7A    -11.215092     8A    -11.213869     9A    -11.209246
      10A     -1.358981    11A     -1.095415    12A     -1.062463
      13A     -1.011696    14A     -0.945376    15A     -0.883468
      16A     -0.823773    17A     -0.804905    18A     -0.778161
      19A     -0.692475    20A     -0.647308    21A     -0.641257
      22A     -0.608723    23A     -0.607259    24A     -0.585177
      25A     -0.572923    26A     -0.554877    27A     -0.544780
      28A     -0.521312    29A     -0.510047    30A     -0.494439
      31A     -0.482358    32A     -0.476678    33A     -0.464865
      34A     -0.460637    35A     -0.456339    36A     -0.443719
      37A     -0.420728

  @DF-RHF Final Energy:  -388.28212587473877

   => Energetics <=

    Nuclear Repulsion Energy =            453.3253739680569652
    One-Electron Energy =               -1424.6644091819191544
    Two-Electron Energy =                 583.0569093391231945
    DFT Exchange-Correlation Energy =       0.0000000000000000
    Empirical Dispersion Energy =           0.0000000000000000
    PCM Polarization Energy =               0.0000000000000000
    EFP Energy =                            0.0000000000000000
    Total Energy =                       -388.2821258747389948
    Molecular point group: c1
  Basis Set: 6-31G*
  Basis Set:

  -Total Gradient:
     Atom            X                  Y                   Z
    ------   -----------------  -----------------  -----------------
       1       -0.000001233594     0.000003566252     0.000012275349
       2       -0.000041707303     0.000025486717     0.000044211324
       3        0.000054088605    -0.000029116614    -0.000098299468
       4        0.000002994450    -0.000089891004     0.000125070298
       5        0.000003994391     0.000002187067    -0.000002482099
       6       -0.000008082494     0.000006377002    -0.000002273889
       7       -0.000023344430    -0.000003912824    -0.000013577157
       8       -0.000013097978     0.000060824247    -0.000069457942
       9        0.000002948369     0.000007150224    -0.000002814071
      10        0.000030221179    -0.000009641692    -0.000009342555
      11       -0.000008316513     0.000002630676     0.000019133044
      12        0.000003037091    -0.000007780748     0.000001118659
      13       -0.000012580476     0.000005086927     0.000006969894
      14        0.000013360955    -0.000002274642     0.000008933025
      15       -0.000006122397    -0.000000850990    -0.000009903649
      16        0.000003220982     0.000005884318    -0.000003750619
      17       -0.000005838896     0.000004077599    -0.000005454445
      18       -0.000003141788     0.000007824899     0.000001846649
      19        0.000002217720    -0.000001944550    -0.000003049923
      20        0.000000391657     0.000004046119    -0.000001972352
      21        0.000004845420     0.000009763560     0.000002635364
      22        0.000001222825     0.000001295048     0.000000580911
      23        0.000000135531     0.000001574269    -0.000001212884
      24        0.000000866846    -0.000002237685     0.000001002451
      25        0.000000362467     0.000000026489    -0.000000665661
      26       -0.000000139461     0.000000041717    -0.000000441881
      27       -0.000000303159    -0.000000192377     0.000000921628

  **** Optimization is complete! (in 5 steps) ****
    Final optimized geometry and variables:
    Molecular point group: c1

    Geometry (in Angstrom), charge = 0, multiplicity = 1:

    H            0.059583897593     4.840826842840    -0.295158340277
    O            0.896041899679     4.544213646874    -0.625771752917
    C            1.105648265792     3.212971036487    -0.232477708819
    C            0.086959662130     2.255444680911    -0.838555385792
    H            2.103038639823     2.959598332395    -0.569414631939
    H            1.101517508739     3.129608511179     0.853647529739
    C            0.336505964817     0.796274457025    -0.452508573301
    H           -0.912394323762     2.550330867770    -0.517953388347
    H            0.110775769797     2.368157619321    -1.919078603943
    C           -0.693876650640    -0.161005214116    -1.058006885855
    H            0.333440051966     0.708488655673     0.631096265368
    H            1.332574999549     0.503004766685    -0.780874030430
    C           -0.427982190617    -1.646241275520    -0.787188251235
    H           -1.685428166399     0.099182919052    -0.691136172723
    H           -0.719573526080    -0.006600970777    -2.134539259875
    C           -0.546557006489    -2.064706180307     0.680826829341
    H           -1.132938582149    -2.232252910407    -1.373272721752
    H            0.562289547725    -1.906746433734    -1.157397811240
    C           -0.376287782731    -3.571379020024     0.886761398489
    H           -1.519203378242    -1.758654379956     1.063981590080
    H            0.195544128666    -1.542334653050     1.279612646770
    C           -0.489067570932    -3.991164500045     2.351926132405
    H           -1.124240265199    -4.101624287796     0.301155520805
    H            0.591186741724    -3.880576213282     0.496683322275
    H           -1.459082239964    -3.724982089095     2.762484264725
    H           -0.365678327993    -5.063852190089     2.464830346748
    H            0.270034794863    -3.505548061661     2.958771311201

  Mulliken Charges: (a.u.)
   Center  Symbol    Alpha    Beta     Spin     Total
       1     H     0.28339  0.28339  0.00000  0.43322
       2     O     4.37083  4.37083  0.00000 -0.74167
       3     C     2.98794  2.98794  0.00000  0.02412
       4     C     3.16752  3.16752  0.00000 -0.33505
       5     H     0.41671  0.41671  0.00000  0.16659
       6     H     0.43196  0.43196  0.00000  0.13608
       7     C     3.16165  3.16165  0.00000 -0.32331
       8     H     0.42878  0.42878  0.00000  0.14245
       9     H     0.41389  0.41389  0.00000  0.17222
      10     C     3.15239  3.15239  0.00000 -0.30478
      11     H     0.42083  0.42083  0.00000  0.15833
      12     H     0.42187  0.42187  0.00000  0.15625
      13     C     3.15348  3.15348  0.00000 -0.30696
      14     H     0.42379  0.42379  0.00000  0.15242
      15     H     0.42052  0.42052  0.00000  0.15896
      16     C     3.15274  3.15274  0.00000 -0.30547
      17     H     0.42141  0.42141  0.00000  0.15718
      18     H     0.42351  0.42351  0.00000  0.15298
      19     C     3.15119  3.15119  0.00000 -0.30237
      20     H     0.42485  0.42485  0.00000  0.15029
      21     H     0.42241  0.42241  0.00000  0.15517
      22     C     3.23918  3.23918  0.00000 -0.47836
      23     H     0.42302  0.42302  0.00000  0.15396
      24     H     0.42290  0.42290  0.00000  0.15421
      25     H     0.42198  0.42198  0.00000  0.15604
      26     H     0.41922  0.41922  0.00000  0.16156
      27     H     0.42203  0.42203  0.00000  0.15593

   Total alpha = 37.00000, Total beta = 37.00000, Total charge =  0.00000
