  ==> Input File <==

--------------------------------------------------------------------------
set {
	reference rhf
	basis 6-31G*
}

set_num_threads( 4 )
memory 2 gb

molecule MOL {
0 1

O	 -2.439739	 -0.935931	 -0.423848
C	 -1.921153	 0.064240	 -0.045697
C	 -2.624470	 1.379923	 0.150949
O	 -0.632575	 0.154573	 0.251549
H	 -2.168117	 2.136577	 -0.476876
H	 -3.669540	 1.273223	 -0.098610
H	 -2.519365	 1.700893	 1.180846
C	 0.160891	 -1.019931	 0.106212
C	 1.589627	 -0.672828	 0.480843
H	 0.089836	 -1.367806	 -0.916050
H	 -0.238459	 -1.792301	 0.749618
C	 2.564280	 -1.846494	 0.367004
H	 1.578782	 -0.305252	 1.504905
H	 1.926218	 0.150558	 -0.143656
C	 3.987035	 -1.468785	 0.777009
H	 2.213340	 -2.665590	 0.991522
H	 2.565497	 -2.214302	 -0.653816
H	 4.658532	 -2.316708	 0.686716
H	 4.022507	 -1.127150	 1.807691
H	 4.376436	 -0.670827	 0.151144

	symmetry c1
}
set optking {
	frozen_dihedral = ("
		12 9 8 10
	")
}

ee = optimize('scf')
oeprop('DIPOLE', 'QUADRUPOLE', 'MULLIKEN_CHARGES')
f=open( 'psi4out.xyz', 'w' )
f.write( "20  " )
f.write( str(ee) + "\n" )
f.write( MOL.save_string_xyz() )
f.close()
--------------------------------------------------------------------------

    Molecular point group: c1
  Charge       = 0
  Multiplicity = 1
  Basis Set: 6-31G*
  Basis Set:
  @DF-RHF Final Energy:  -383.94536608625742
    Total Energy =                       -383.9453660862575930
    Molecular point group: c1
  Basis Set: 6-31G*
  Basis Set:
  Basis Set: 6-31G*
  Basis Set:
  @DF-RHF Final Energy:  -383.94547500320425
    Total Energy =                       -383.9454750032048196
  Basis Set: 6-31G*
  Basis Set:
  Basis Set: 6-31G*
  Basis Set:
  @DF-RHF Final Energy:  -383.94536564883271
    Total Energy =                       -383.9453656488324214
  Basis Set: 6-31G*
  Basis Set:
  Basis Set: 6-31G*
  Basis Set:
  @DF-RHF Final Energy:  -383.94559412143872
    Total Energy =                       -383.9455941214384893
  Basis Set: 6-31G*
  Basis Set:
  Basis Set: 6-31G*
  Basis Set:
  @DF-RHF Final Energy:  -383.94559528172334
    Total Energy =                       -383.9455952817231719
  Basis Set: 6-31G*
  Basis Set:
  Basis Set: 6-31G*
  Basis Set:
  @DF-RHF Final Energy:  -383.94559630387124
    Total Energy =                       -383.9455963038710706
  Basis Set: 6-31G*
  Basis Set:
  Charge       = 0
  Multiplicity = 1
  Basis Set: 6-31G*
  Basis Set:

    Orbital Energies (a.u.)
    -----------------------

    Doubly Occupied:

       1A    -20.601260     2A    -20.543567     3A    -11.373969
       4A    -11.281713     5A    -11.232877     6A    -11.226504
       7A    -11.224393     8A    -11.216048     9A     -1.467568
      10A     -1.361730    11A     -1.088285    12A     -1.029667
      13A     -0.980874    14A     -0.881240    15A     -0.808465
      16A     -0.775546    17A     -0.692293    18A     -0.686271
      19A     -0.668408    20A     -0.638050    21A     -0.594198
      22A     -0.594093    23A     -0.570466    24A     -0.560552
      25A     -0.545107    26A     -0.519725    27A     -0.506499
      28A     -0.485390    29A     -0.480816    30A     -0.476867
      31A     -0.452292    32A     -0.437035

  @DF-RHF Final Energy:  -383.94559647123515

   => Energetics <=

    Nuclear Repulsion Energy =            378.8537109844294264
    One-Electron Energy =               -1273.5950809818648395
    Two-Electron Energy =                 510.7957735262004348
    DFT Exchange-Correlation Energy =       0.0000000000000000
    Empirical Dispersion Energy =           0.0000000000000000
    PCM Polarization Energy =               0.0000000000000000
    EFP Energy =                            0.0000000000000000
    Total Energy =                       -383.9455964712349783
    Molecular point group: c1
  Basis Set: 6-31G*
  Basis Set:

  -Total Gradient:
     Atom            X                  Y                   Z
    ------   -----------------  -----------------  -----------------
       1        0.000004602218     0.000002500437    -0.000003240939
       2       -0.000008810570    -0.000000575704     0.000004842498
       3       -0.000002545397     0.000000563038     0.000001980924
       4       -0.000003466793     0.000001092868    -0.000003326303
       5       -0.000001389300    -0.000000681419    -0.000001204366
       6       -0.000000659236     0.000001886657    -0.000000612563
       7        0.000001432822     0.000000800362    -0.000001037976
       8       -0.000006341409     0.000109803338    -0.000054776367
       9       -0.000010380495    -0.000052474310     0.000094752347
      10        0.000011040434    -0.000081533326     0.000022762647
      11        0.000004240740     0.000002250849    -0.000000974818
      12        0.000011292685     0.000020309430    -0.000058763040
      13        0.000000968542     0.000001734128     0.000001661543
      14       -0.000004037468    -0.000004403620    -0.000000646653
      15        0.000005445120    -0.000001668611    -0.000001126958
      16        0.000000043295     0.000001295113     0.000000207573
      17        0.000000990535    -0.000000916243     0.000000034614
      18        0.000000032808     0.000000419597     0.000000373892
      19       -0.000002101724    -0.000000409117     0.000000008486
      20       -0.000000356794     0.000000006530    -0.000000914539

  **** Optimization is complete! (in 7 steps) ****
    Final optimized geometry and variables:
    Molecular point group: c1

    Geometry (in Angstrom), charge = 0, multiplicity = 1:

    O           -2.506521295066    -0.408678396998    -0.629727081747
    C           -1.993222539317     0.596410335573    -0.257095601031
    C           -2.705252071803     1.907406136219    -0.059961072047
    O           -0.705096947912     0.696012877682     0.038315887153
    H           -2.255543568479     2.666310973944    -0.689775336914
    H           -3.750174374842     1.793078899974    -0.306813244100
    H           -2.599582113727     2.230231456794     0.969317296137
    C            0.094750798145    -0.473158980052    -0.103174173601
    C            1.514109101873    -0.109505745511     0.290118691900
    H            0.040053532685    -0.816362897495    -1.127979065368
    H           -0.306944918397    -1.253828936450     0.529422256847
    C            2.469811030173    -1.297836342857     0.166575375296
    H            1.512454608418     0.261372875814     1.311436183489
    H            1.854993685863     0.707694175695    -0.339656452393
    C            3.902842428176    -0.943280020641     0.561321099432
    H            2.116238271672    -2.115224676406     0.791158366537
    H            2.459262897773    -1.667709978913    -0.856297835657
    H            4.559091071538    -1.802159948812     0.464580600643
    H            3.952352205756    -0.602419498874     1.591337080972
    H            4.297930906323    -0.151425284551    -0.068320502886

  Mulliken Charges: (a.u.)
   Center  Symbol    Alpha    Beta     Spin     Total
       1     O     4.28348  4.28348  0.00000 -0.56695
       2     C     2.62005  2.62005  0.00000  0.75989
       3     C     3.28153  3.28153  0.00000 -0.56305
       4     O     4.31095  4.31095  0.00000 -0.62189
       5     H     0.40060  0.40060  0.00000  0.19881
       6     H     0.39705  0.39705  0.00000  0.20590
       7     H     0.40060  0.40060  0.00000  0.19879
       8     C     2.99476  2.99476  0.00000  0.01049
       9     C     3.16349  3.16349  0.00000 -0.32697
      10     H     0.41117  0.41117  0.00000  0.17766
      11     H     0.41115  0.41115  0.00000  0.17771
      12     C     3.16066  3.16066  0.00000 -0.32132
      13     H     0.41461  0.41461  0.00000  0.17079
      14     H     0.41456  0.41456  0.00000  0.17089
      15     C     3.23922  3.23922  0.00000 -0.47844
      16     H     0.41969  0.41969  0.00000  0.16063
      17     H     0.41966  0.41966  0.00000  0.16068
      18     H     0.41695  0.41695  0.00000  0.16609
      19     H     0.41993  0.41993  0.00000  0.16015
      20     H     0.41992  0.41992  0.00000  0.16015

   Total alpha = 32.00000, Total beta = 32.00000, Total charge = -0.00000
