                              Psi4 1.0.54 Driver

  ==> Input File <==

--------------------------------------------------------------------------
set {
	reference rhf
	basis cc-pvtz
}

set_num_threads( 4 )
memory 2 gb

molecule MOL {
0 1

H	 -2.491473	 -0.923221	 0.466718
O	 -2.313989	 -0.142475	 -0.025864
C	 -0.943808	 -0.065018	 -0.330000
H	 -0.812293	 -0.225641	 -1.398673
C	 -0.231030	 -1.182113	 0.407592
C	 -0.353797	 1.300461	 0.050970
H	 -0.312800	 -0.992012	 1.473041
H	 -0.738841	 -2.119564	 0.220514
C	 1.246176	 -1.268044	 -0.015480
H	 -0.539537	 2.008579	 -0.751815
H	 -0.889989	 1.662858	 0.920677
C	 1.153605	 1.231851	 0.356834
H	 1.823096	 -1.684665	 0.802361
H	 1.352335	 -1.958223	 -0.845114
C	 1.826409	 0.100723	 -0.416008
H	 1.622968	 2.181508	 0.128734
H	 1.301983	 1.066493	 1.419367
H	 2.897299	 0.112407	 -0.249665
H	 1.683458	 0.265621	 -1.480024

	symmetry c1
}
set optking {
	frozen_dihedral = ("
		1 2 3 4
	")
}

ee,wfn = optimize('scf', return_wfn=True)
oeprop( wfn, 'DIPOLE', 'QUADRUPOLE', 'MULLIKEN_CHARGES')
f=open( 'psi4out.xyz', 'w' )
f.write( "19  " )
f.write( str(ee) + "\n" )
f.write( MOL.save_string_xyz() )
f.close()
--------------------------------------------------------------------------

    Molecular point group: c1
  Charge       = 0
  Multiplicity = 1
  Basis Set: CC-PVTZ
  Basis Set:
  @DF-RHF Final Energy:  -309.15986477141723
    Total Energy =                       -309.1598647714175172
    Molecular point group: c1
  Basis Set: CC-PVTZ
  Basis Set:
  Basis Set: CC-PVTZ
  Basis Set:
  @DF-RHF Final Energy:  -309.16096955930675
    Total Energy =                       -309.1609695593067499
  Basis Set: CC-PVTZ
  Basis Set:
  Basis Set: CC-PVTZ
  Basis Set:
  @DF-RHF Final Energy:  -309.16146074868726
    Total Energy =                       -309.1614607486873183
  Basis Set: CC-PVTZ
  Basis Set:
  Basis Set: CC-PVTZ
  Basis Set:
  @DF-RHF Final Energy:  -309.16147271553444
    Total Energy =                       -309.1614727155340461
  Basis Set: CC-PVTZ
  Basis Set:
  Charge       = 0
  Multiplicity = 1
  Basis Set: CC-PVTZ
  Basis Set:

    Orbital Energies (a.u.)
    -----------------------

    Doubly Occupied:

       1A    -20.540713     2A    -11.267193     3A    -11.219337
       4A    -11.218584     5A    -11.215094     6A    -11.213475
       7A    -11.206468     8A     -1.361168     9A     -1.111806
      10A     -1.005578    11A     -0.990115    12A     -0.853093
      13A     -0.833901    14A     -0.743883    15A     -0.686632
      16A     -0.665373    17A     -0.623447    18A     -0.606273
      19A     -0.577078    20A     -0.551101    21A     -0.531865
      22A     -0.522289    23A     -0.500320    24A     -0.491635
      25A     -0.466701    26A     -0.449557    27A     -0.427426
      28A     -0.414750

  @DF-RHF Final Energy:  -309.16147387040462

   => Energetics <=

    Nuclear Repulsion Energy =            331.9326593788206310
    One-Electron Energy =               -1077.5985595984011525
    Two-Electron Energy =                 436.5044263491760148
    DFT Exchange-Correlation Energy =       0.0000000000000000
    Empirical Dispersion Energy =           0.0000000000000000
    PCM Polarization Energy =               0.0000000000000000
    EFP Energy =                            0.0000000000000000
    Total Energy =                       -309.1614738704045067
    Molecular point group: c1
  Basis Set: CC-PVTZ
  Basis Set:

  -Total Gradient:
     Atom            X                  Y                   Z
    ------   -----------------  -----------------  -----------------
       1        0.000198762135     0.000527872098     0.000991550724
       2       -0.000231746884    -0.000454440361    -0.001231712965
       3        0.000098499816    -0.001005945866     0.000385972675
       4        0.000024069438     0.000960106381    -0.000154967216
       5       -0.000078464245    -0.000000707255     0.000010297273
       6       -0.000040079112     0.000005478723    -0.000004600993
       7        0.000001578835    -0.000024296037     0.000003187075
       8        0.000003861812     0.000001175253     0.000016730128
       9       -0.000007808769     0.000013603153     0.000011778900
      10       -0.000001054970     0.000015596253    -0.000009499767
      11       -0.000012888464    -0.000002168554    -0.000005537023
      12       -0.000010591260    -0.000004610226    -0.000011247970
      13        0.000020146366    -0.000012640127     0.000003058321
      14        0.000010280669     0.000006140180     0.000003436808
      15        0.000029326161    -0.000002542821    -0.000016982783
      16       -0.000019253079     0.000005417520     0.000012525042
      17        0.000008604640     0.000004215026     0.000020372930
      18       -0.000002708602    -0.000034566450    -0.000012677607
      19        0.000009465508     0.000002313112    -0.000011683551

  **** Optimization is complete! (in 5 steps) ****
    Final optimized geometry and variables:
    Molecular point group: c1

    Geometry (in Angstrom), charge = 0, multiplicity = 1:

    H           -2.634534145281    -0.676314185322     0.367605584379
    O           -2.329150474236     0.071635723745    -0.110166683114
    C           -0.942764720258    -0.020561250099    -0.339257748582
    H           -0.802028990371    -0.197705737565    -1.402213694496
    C           -0.293718327920    -1.163054727112     0.425196964659
    C           -0.287236514741     1.315892917186     0.029347866943
    H           -0.372627904230    -0.955919258673     1.489181358349
    H           -0.835736091867    -2.086545728027     0.244341172605
    C            1.181892838146    -1.333361815198     0.020879304108
    H           -0.435150422340     2.016413689218    -0.784800988265
    H           -0.815399909040     1.718886112585     0.884692337186
    C            1.211719429021     1.173444546243     0.349853100774
    H            1.727514034873    -1.763673414850     0.852922581680
    H            1.258645643599    -2.043711798653    -0.794488330175
    C            1.833420691795    -0.002975674971    -0.397745905744
    H            1.731722408562     2.093278003267     0.110201131466
    H            1.345522241408     1.018919636704     1.416502451474
    H            2.901838141650    -0.045300372793    -0.221164454144
    H            1.707653756999     0.149301647532    -1.465412363101

  Mulliken Charges: (a.u.)
   Center  Symbol    Alpha    Beta     Spin     Total
       1     H     0.39162  0.39162  0.00000  0.21675
       2     O     4.20942  4.20942  0.00000 -0.41885
       3     C     2.92583  2.92583  0.00000  0.14835
       4     H     0.45684  0.45684  0.00000  0.08631
       5     C     3.11428  3.11428  0.00000 -0.22855
       6     C     3.10827  3.10827  0.00000 -0.21654
       7     H     0.45207  0.45207  0.00000  0.09585
       8     H     0.44691  0.44691  0.00000  0.10617
       9     C     3.11327  3.11327  0.00000 -0.22653
      10     H     0.44645  0.44645  0.00000  0.10710
      11     H     0.44638  0.44638  0.00000  0.10723
      12     C     3.10154  3.10154  0.00000 -0.20308
      13     H     0.44703  0.44703  0.00000  0.10593
      14     H     0.44634  0.44634  0.00000  0.10732
      15     C     3.10189  3.10189  0.00000 -0.20378
      16     H     0.44189  0.44189  0.00000  0.11622
      17     H     0.45440  0.45440  0.00000  0.09120
      18     H     0.44272  0.44272  0.00000  0.11456
      19     H     0.45283  0.45283  0.00000  0.09434

   Total alpha = 28.00000, Total beta = 28.00000, Total charge =  0.00000

*** Psi4 exiting successfully. Buy a developer a beer!
