                              Psi4 1.0.54 Driver

  ==> Input File <==

--------------------------------------------------------------------------
set {
	reference rhf
	basis cc-pvtz
}

set_num_threads( 4 )
memory 2 gb

molecule MOL {
0 1

O	 0.074770	 1.259872	 0.000487
C	 0.029490	 0.077183	 0.000078
C	 -1.232113	 -0.748027	 0.000015
O	 1.106773	 -0.690081	 -0.000204
C	 -2.501422	 0.088592	 -0.000052
H	 -1.188777	 -1.400384	 -0.865133
H	 -1.188857	 -1.400312	 0.865225
H	 -2.548170	 0.725504	 -0.873205
H	 -3.371613	 -0.556398	 -0.000040
H	 -2.548215	 0.725571	 0.873047
C	 1.271215	 -1.578137	 1.086975
H	 1.331578	 -1.034043	 2.017864
H	 2.193131	 -2.105706	 0.903761
H	 0.447163	 -2.274220	 1.138465

	symmetry c1
}
set optking {
	frozen_dihedral = ("
		11 4 2 3
	")
}

ee,wfn = optimize('scf', return_wfn=True)
oeprop( wfn, 'DIPOLE', 'QUADRUPOLE', 'MULLIKEN_CHARGES')
f=open( 'psi4out.xyz', 'w' )
f.write( "14  " )
f.write( str(ee) + "\n" )
f.write( MOL.save_string_xyz() )
f.close()
--------------------------------------------------------------------------

    Molecular point group: c1
  Charge       = 0
  Multiplicity = 1
  Basis Set: CC-PVTZ
  Basis Set:
  @DF-RHF Final Energy:  -305.96347135572313
    Total Energy =                       -305.9634713557229588
    Molecular point group: c1
  Basis Set: CC-PVTZ
  Basis Set:
  Basis Set: CC-PVTZ
  Basis Set:
  @DF-RHF Final Energy:  -305.96568169254476
    Total Energy =                       -305.9656816925446492
  Basis Set: CC-PVTZ
  Basis Set:
  Basis Set: CC-PVTZ
  Basis Set:
  @DF-RHF Final Energy:  -305.96804014916660
    Total Energy =                       -305.9680401491663133
  Basis Set: CC-PVTZ
  Basis Set:
  Basis Set: CC-PVTZ
  Basis Set:
  @DF-RHF Final Energy:  -305.96826783319727
    Total Energy =                       -305.9682678331971601
  Basis Set: CC-PVTZ
  Basis Set:
  Basis Set: CC-PVTZ
  Basis Set:
  @DF-RHF Final Energy:  -305.96824584134322
    Total Energy =                       -305.9682458413434460
  Basis Set: CC-PVTZ
  Basis Set:
  Basis Set: CC-PVTZ
  Basis Set:
  @DF-RHF Final Energy:  -305.96841237704007
    Total Energy =                       -305.9684123770402948
  Basis Set: CC-PVTZ
  Basis Set:
  Basis Set: CC-PVTZ
  Basis Set:
  @DF-RHF Final Energy:  -305.96841507114812
    Total Energy =                       -305.9684150711483426
  Basis Set: CC-PVTZ
  Basis Set:
  Charge       = 0
  Multiplicity = 1
  Basis Set: CC-PVTZ
  Basis Set:

    Orbital Energies (a.u.)
    -----------------------

    Doubly Occupied:

       1A    -20.583955     2A    -20.541353     3A    -11.367737
       4A    -11.292555     5A    -11.244008     6A    -11.218766
       7A     -1.463110     8A     -1.371132     9A     -1.063481
      10A     -0.980617    11A     -0.897311    12A     -0.768398
      13A     -0.704118    14A     -0.682191    15A     -0.676715
      16A     -0.629330    17A     -0.612892    18A     -0.560217
      19A     -0.548179    20A     -0.525904    21A     -0.513286
      22A     -0.493335    23A     -0.459632    24A     -0.438992

  @DF-RHF Final Energy:  -305.96841564735024

   => Energetics <=

    Nuclear Repulsion Energy =            247.3443800859192265
    One-Electron Energy =                -907.3511605335168042
    Two-Electron Energy =                 354.0383648002472228
    DFT Exchange-Correlation Energy =       0.0000000000000000
    Empirical Dispersion Energy =           0.0000000000000000
    PCM Polarization Energy =               0.0000000000000000
    EFP Energy =                            0.0000000000000000
    Total Energy =                       -305.9684156473502981
    Molecular point group: c1
  Basis Set: CC-PVTZ
  Basis Set:

  -Total Gradient:
     Atom            X                  Y                   Z
    ------   -----------------  -----------------  -----------------
       1       -0.000014305711    -0.000006811241    -0.000083348873
       2        0.000523265177     0.000570087381     0.004785173482
       3        0.000068044417     0.000331618263    -0.002506697357
       4       -0.001789740318    -0.002804890256    -0.003796320348
       5        0.000007550115    -0.000016516277    -0.000014963069
       6        0.000009180348    -0.000011392150    -0.000020098182
       7        0.000024274264    -0.000004631195    -0.000016458529
       8        0.000001169529    -0.000004081337     0.000002796707
       9        0.000002916841     0.000005231646     0.000001471930
      10       -0.000006815160     0.000008763415     0.000010487867
      11        0.001226387952     0.001884264813     0.001624566299
      12       -0.000009323029     0.000010162058    -0.000003698599
      13       -0.000057221121     0.000019773174     0.000010082684
      14        0.000014616699     0.000018421703     0.000007005988

  **** Optimization is complete! (in 8 steps) ****
    Final optimized geometry and variables:
    Molecular point group: c1

    Geometry (in Angstrom), charge = 0, multiplicity = 1:

    O            0.196245395046     1.520970495744    -0.040997238898
    C            0.184266390829     0.346264181748    -0.095687659329
    C           -1.073824322293    -0.481243133926    -0.230520838250
    O            1.338799372818    -0.340581809687    -0.148681957736
    C           -2.335849570570     0.358797117768    -0.350235710831
    H           -0.939711846251    -1.119358720157    -1.097653587438
    H           -1.143635949384    -1.147537893596     0.622893617854
    H           -2.289104344629     1.008058713466    -1.213788574707
    H           -3.202081782601    -0.283867321792    -0.450064092001
    H           -2.470878548208     0.983152095384     0.522453652363
    C            1.597759475305    -1.345723748328     0.801991785954
    H            1.449285292726    -0.974206336433     1.808817568910
    H            2.632785762590    -1.619961729728     0.679762248500
    H            0.981193206824    -2.221566268879     0.643052166420

  Mulliken Charges: (a.u.)
   Center  Symbol    Alpha    Beta     Spin     Total
       1     O     4.16781  4.16781  0.00000 -0.33563
       2     C     2.79986  2.79986  0.00000  0.40028
       3     C     3.11513  3.11513  0.00000 -0.23026
       4     O     4.15075  4.15075  0.00000 -0.30150
       5     C     3.13871  3.13871  0.00000 -0.27742
       6     H     0.43678  0.43678  0.00000  0.12645
       7     H     0.44697  0.44697  0.00000  0.10606
       8     H     0.44569  0.44569  0.00000  0.10861
       9     H     0.45107  0.45107  0.00000  0.09786
      10     H     0.44719  0.44719  0.00000  0.10563
      11     C     3.04435  3.04435  0.00000 -0.08869
      12     H     0.45791  0.45791  0.00000  0.08418
      13     H     0.43675  0.43675  0.00000  0.12650
      14     H     0.46103  0.46103  0.00000  0.07793

   Total alpha = 24.00000, Total beta = 24.00000, Total charge = -0.00000

*** Psi4 exiting successfully. Buy a developer a beer!
