  ==> Input File <==

--------------------------------------------------------------------------
set {
	reference rhf
	basis cc-pvtz
}

set_num_threads( 4 )
memory 2 gb

molecule MOL {
0 1

O	 0.812427	 0.132190	 -0.885804
C	 0.029490	 0.077183	 0.000078
C	 -1.232113	 -0.748027	 0.000015
O	 0.165051	 0.749561	 1.130902
C	 -2.501422	 0.088592	 -0.000052
H	 -1.188777	 -1.400384	 -0.865133
H	 -1.188857	 -1.400312	 0.865225
H	 -2.548170	 0.725504	 -0.873205
H	 -3.371613	 -0.556398	 -0.000040
H	 -2.548215	 0.725571	 0.873047
C	 1.309559	 1.567764	 1.266134
H	 2.210863	 0.976848	 1.197546
H	 1.236478	 2.023447	 2.240217
H	 1.327361	 2.327920	 0.499263

	symmetry c1
}
set optking {
	frozen_dihedral = ("
		4 2 3 6
	")
}

ee = optimize('scf')
oeprop('DIPOLE', 'QUADRUPOLE', 'MULLIKEN_CHARGES')
f=open( 'psi4out.xyz', 'w' )
f.write( "14  " )
f.write( str(ee) + "\n" )
f.write( MOL.save_string_xyz() )
f.close()
--------------------------------------------------------------------------

    Molecular point group: c1
  Charge       = 0
  Multiplicity = 1
  Basis Set: CC-PVTZ
  Basis Set:
  @DF-RHF Final Energy:  -305.98584886177400
    Total Energy =                       -305.9858488617743433
    Molecular point group: c1
  Basis Set: CC-PVTZ
  Basis Set:
  Basis Set: CC-PVTZ
  Basis Set:
  @DF-RHF Final Energy:  -305.98614940034156
    Total Energy =                       -305.9861494003419580
  Basis Set: CC-PVTZ
  Basis Set:
  Basis Set: CC-PVTZ
  Basis Set:
  @DF-RHF Final Energy:  -305.98562800909946
    Total Energy =                       -305.9856280090995142
  Basis Set: CC-PVTZ
  Basis Set:
  Basis Set: CC-PVTZ
  Basis Set:
  @DF-RHF Final Energy:  -305.98620411071676
    Total Energy =                       -305.9862041107167556
  Basis Set: CC-PVTZ
  Basis Set:
  Basis Set: CC-PVTZ
  Basis Set:
  @DF-RHF Final Energy:  -305.98620643998493
    Total Energy =                       -305.9862064399847554
  Basis Set: CC-PVTZ
  Basis Set:
  Charge       = 0
  Multiplicity = 1
  Basis Set: CC-PVTZ
  Basis Set:

    Orbital Energies (a.u.)
    -----------------------

    Doubly Occupied:

       1A    -20.597843     2A    -20.533746     3A    -11.364312
       4A    -11.279283     5A    -11.236179     6A    -11.224837
       7A     -1.472791     8A     -1.365612     9A     -1.068642
      10A     -0.977102    11A     -0.885586    12A     -0.776419
      13A     -0.698851    14A     -0.682973    15A     -0.676753
      16A     -0.620142    17A     -0.592300    18A     -0.570759
      19A     -0.545224    20A     -0.520281    21A     -0.512898
      22A     -0.505567    23A     -0.460195    24A     -0.437672

  @DF-RHF Final Energy:  -305.98620659859449

   => Energetics <=

    Nuclear Repulsion Energy =            248.6877823719409548
    One-Electron Energy =                -910.1360414568533770
    Two-Electron Energy =                 355.4620524863180435
    DFT Exchange-Correlation Energy =       0.0000000000000000
    Empirical Dispersion Energy =           0.0000000000000000
    PCM Polarization Energy =               0.0000000000000000
    EFP Energy =                            0.0000000000000000
    Total Energy =                       -305.9862065985944355
    Molecular point group: c1
  Basis Set: CC-PVTZ
  Basis Set:

  -Total Gradient:
     Atom            X                  Y                   Z
    ------   -----------------  -----------------  -----------------
       1       -0.000015207025    -0.000000562079     0.000014472496
       2        0.000081549876    -0.000107965773     0.000007482025
       3        0.000057499891    -0.000076447202     0.000065193598
       4       -0.000062756051     0.000116736045    -0.000029442800
       5        0.000008161735    -0.000009591451     0.000012879576
       6       -0.000056359333     0.000086775567    -0.000076275383
       7       -0.000005609292     0.000005144255    -0.000002811799
       8        0.000002614186    -0.000004092499     0.000003514356
       9       -0.000002823963     0.000002001599    -0.000000462955
      10       -0.000008285686     0.000008283697     0.000002734958
      11        0.000007628850    -0.000030770602     0.000005337669
      12        0.000005614611     0.000008600252     0.000001898614
      13       -0.000004597150     0.000001536829    -0.000000511916
      14       -0.000007430647     0.000000351364    -0.000004008444

  **** Optimization is complete! (in 6 steps) ****
    Final optimized geometry and variables:
    Molecular point group: c1

    Geometry (in Angstrom), charge = 0, multiplicity = 1:

    O            1.008554776272    -0.184414899497    -1.155891432571
    C            0.244897742348    -0.260223349827    -0.254282418410
    C           -1.008740590455    -1.096031088218    -0.256658810098
    O            0.397580128923     0.400432477907     0.881677504673
    C           -2.276128166755    -0.238956948812    -0.271082484909
    H           -0.967039979483    -1.730346228739    -1.129449089741
    H           -0.999791944267    -1.722604235570     0.627138175545
    H           -2.302434512785     0.399259570650    -1.146339857618
    H           -3.152356917480    -0.874146843099    -0.295419407877
    H           -2.335157330519     0.386510298759     0.609427513546
    C            1.529494829847     1.238902160139     0.997781257726
    H            2.439407284238     0.665678155715     0.900245308046
    H            1.472084281269     1.682706641617     1.978414672031
    H            1.513888932397     2.007099832161     0.238968596661

  Mulliken Charges: (a.u.)
   Center  Symbol    Alpha    Beta     Spin     Total
       1     O     4.19954  4.19954  0.00000 -0.39908
       2     C     2.79927  2.79927  0.00000  0.40146
       3     C     3.08448  3.08448  0.00000 -0.16896
       4     O     4.15065  4.15065  0.00000 -0.30129
       5     C     3.15085  3.15085  0.00000 -0.30170
       6     H     0.43681  0.43681  0.00000  0.12638
       7     H     0.44676  0.44676  0.00000  0.10649
       8     H     0.44889  0.44889  0.00000  0.10223
       9     H     0.44745  0.44745  0.00000  0.10510
      10     H     0.44648  0.44648  0.00000  0.10705
      11     C     3.03590  3.03590  0.00000 -0.07180
      12     H     0.45284  0.45284  0.00000  0.09432
      13     H     0.44564  0.44564  0.00000  0.10872
      14     H     0.45445  0.45445  0.00000  0.09109

   Total alpha = 24.00000, Total beta = 24.00000, Total charge = -0.00000
