                              Psi4 1.0.54 Driver

  ==> Input File <==

--------------------------------------------------------------------------
set {
	reference rhf
	basis cc-pvtz
}

set_num_threads( 4 )
memory 2 gb

molecule MOL {
0 1

H	 2.731046	 -0.260685	 -0.886453
N	 2.326826	 -0.066186	 0.000000
C	 0.934676	 -0.005420	 0.000000
H	 2.714223	 -0.646095	 0.707567
C	 0.226436	 -0.001077	 -1.195129
C	 0.226436	 -0.001077	 1.195129
H	 0.759091	 -0.011439	 -2.128123
C	 -1.153391	 0.009141	 -1.189028
H	 0.759091	 -0.011439	 2.128123
C	 -1.153391	 0.009141	 1.189028
H	 -1.680905	 0.012964	 -2.124348
C	 -1.857876	 0.014675	 0.000000
H	 -1.680905	 0.012964	 2.124348
H	 -2.930222	 0.022904	 0.000000

	symmetry c1
}
set optking {
	frozen_dihedral = ("
		1 2 3 5
	")
}

ee,wfn = optimize('scf', return_wfn=True)
oeprop( wfn, 'DIPOLE', 'QUADRUPOLE', 'MULLIKEN_CHARGES')
f=open( 'psi4out.xyz', 'w' )
f.write( "14  " )
f.write( str(ee) + "\n" )
f.write( MOL.save_string_xyz() )
f.close()
--------------------------------------------------------------------------

    Molecular point group: c1
  Charge       = 0
  Multiplicity = 1
  Basis Set: CC-PVTZ
  Basis Set:
  @DF-RHF Final Energy:  -285.83279063979904
    Total Energy =                       -285.8327906397989864
    Molecular point group: c1
  Basis Set: CC-PVTZ
  Basis Set:
  Basis Set: CC-PVTZ
  Basis Set:
  @DF-RHF Final Energy:  -285.81592691424834
    Total Energy =                       -285.8159269142482799
  Basis Set: CC-PVTZ
  Basis Set:
  Basis Set: CC-PVTZ
  Basis Set:
  @DF-RHF Final Energy:  -285.83305520379491
    Total Energy =                       -285.8330552037948564
  Basis Set: CC-PVTZ
  Basis Set:
  Basis Set: CC-PVTZ
  Basis Set:
  @DF-RHF Final Energy:  -285.83319741769043
    Total Energy =                       -285.8331974176899735
  Basis Set: CC-PVTZ
  Basis Set:
  Basis Set: CC-PVTZ
  Basis Set:
  @DF-RHF Final Energy:  -285.83320171139621
    Total Energy =                       -285.8332017113960433
  Basis Set: CC-PVTZ
  Basis Set:
  Basis Set: CC-PVTZ
  Basis Set:
  @DF-RHF Final Energy:  -285.83320418720200
    Total Energy =                       -285.8332041872020000
  Basis Set: CC-PVTZ
  Basis Set:
  Charge       = 0
  Multiplicity = 1
  Basis Set: CC-PVTZ
  Basis Set:

    Orbital Energies (a.u.)
    -----------------------

    Doubly Occupied:

       1A    -15.554694     2A    -11.270626     3A    -11.226934
       4A    -11.226770     5A    -11.215728     6A    -11.214975
       7A    -11.211070     8A     -1.225983     9A     -1.130236
      10A     -1.013203    11A     -0.987719    12A     -0.832526
      13A     -0.813534    14A     -0.708314    15A     -0.688969
      16A     -0.654851    17A     -0.600676    18A     -0.595559
      19A     -0.581790    20A     -0.531816    21A     -0.506447
      22A     -0.487474    23A     -0.446389    24A     -0.335982
      25A     -0.294558

  @DF-RHF Final Energy:  -285.83320450878551

   => Energetics <=

    Nuclear Repulsion Energy =            273.7314599262153365
    One-Electron Energy =                -928.4156825764928271
    Two-Electron Energy =                 368.8510181414919771
    DFT Exchange-Correlation Energy =       0.0000000000000000
    Empirical Dispersion Energy =           0.0000000000000000
    PCM Polarization Energy =               0.0000000000000000
    EFP Energy =                            0.0000000000000000
    Total Energy =                       -285.8332045087854567
    Molecular point group: c1
  Basis Set: CC-PVTZ
  Basis Set:

  -Total Gradient:
     Atom            X                  Y                   Z
    ------   -----------------  -----------------  -----------------
       1        0.000340171222     0.002092391161    -0.000553572278
       2       -0.000586538956    -0.003547623896     0.000811227019
       3        0.000556440147     0.003098720687    -0.000479740447
       4       -0.000000680641    -0.000015566961     0.000000483324
       5       -0.000255527935    -0.001642964092     0.000171423660
       6       -0.000045893030    -0.000002283384     0.000063469605
       7       -0.000014977232    -0.000000271243     0.000004072770
       8       -0.000064735473     0.000041320901     0.000064427344
       9        0.000001151862    -0.000001404761    -0.000005766378
      10        0.000084620956     0.000020020602     0.000017197156
      11       -0.000000677806    -0.000003932236    -0.000002502308
      12       -0.000013748604    -0.000026319552    -0.000086743527
      13        0.000000352808    -0.000007190020    -0.000001257330
      14        0.000000042678    -0.000004897207    -0.000002718607

  **** Optimization is complete! (in 7 steps) ****
    Final optimized geometry and variables:
    Molecular point group: c1

    Geometry (in Angstrom), charge = 0, multiplicity = 1:

    H            2.241080701117    -0.822301902123    -1.638058575222
    N            2.153417077430    -0.554465565340    -0.686486649867
    C            0.860657554087    -0.233554098110    -0.279754659711
    H            2.655129546582    -1.155669863832    -0.076246343019
    C           -0.168242983392    -0.093551333490    -1.200907786954
    C            0.584744611369    -0.021985859197     1.066526306599
    H            0.025151625543    -0.261050758935    -2.244472155740
    C           -1.435739015133     0.264662508463    -0.784624919142
    H            1.373227929363    -0.119271513686     1.789404078868
    C           -0.687006271962     0.322428289395     1.472099644183
    H           -2.215712613233     0.372046782391    -1.514847583913
    C           -1.709586607148     0.472904917012     0.552508323885
    H           -0.879021894914     0.480165288302     2.516776400741
    H           -2.696182700909     0.745403556520     0.872512483312

  Mulliken Charges: (a.u.)
   Center  Symbol    Alpha    Beta     Spin     Total
       1     H     0.42272  0.42272  0.00000  0.15455
       2     N     3.67441  3.67441  0.00000 -0.34881
       3     C     2.88471  2.88471  0.00000  0.23058
       4     H     0.41804  0.41804  0.00000  0.16391
       5     C     3.12028  3.12028  0.00000 -0.24056
       6     C     3.11666  3.11666  0.00000 -0.23332
       7     H     0.43531  0.43531  0.00000  0.12938
       8     C     3.05861  3.05861  0.00000 -0.11722
       9     H     0.43177  0.43177  0.00000  0.13646
      10     C     3.05815  3.05815  0.00000 -0.11630
      11     H     0.42481  0.42481  0.00000  0.15038
      12     C     3.10443  3.10443  0.00000 -0.20886
      13     H     0.42472  0.42472  0.00000  0.15057
      14     H     0.42539  0.42539  0.00000  0.14923

   Total alpha = 25.00000, Total beta = 25.00000, Total charge =  0.00000

*** Psi4 exiting successfully. Buy a developer a beer!
