  ==> Input File <==

--------------------------------------------------------------------------
set {
	reference rhf
	basis 6-31G*
}

set_num_threads( 1 )
memory 2 gb

molecule MOL {
0 1

H	 -3.420663	 1.227371	 -1.044276
O	 -3.452007	 0.283848	 -0.965577
C	 -3.181085	 -0.079926	 0.364119
C	 -1.765924	 0.277073	 0.805136
H	 -3.327791	 -1.152017	 0.410903
H	 -3.905698	 0.375695	 1.036898
C	 -0.747380	 -0.833892	 0.546601
H	 -1.454042	 1.187946	 0.293274
H	 -1.788917	 0.518879	 1.866373
C	 0.673209	 -0.456859	 0.971983
H	 -0.758448	 -1.089232	 -0.508572
H	 -1.057862	 -1.730440	 1.080639
C	 1.686014	 -1.576038	 0.715566
H	 0.973404	 0.444318	 0.442660
H	 0.679035	 -0.204721	 2.031699
C	 3.107711	 -1.279656	 1.206575
H	 1.713990	 -1.798504	 -0.349996
H	 1.334275	 -2.482161	 1.204483
C	 3.808453	 -0.135112	 0.472147
H	 3.705037	 -2.181466	 1.095981
H	 3.082037	 -1.062557	 2.272601
H	 3.837879	 -0.318947	 -0.598590
H	 4.832576	 -0.026292	 0.815902
H	 3.310030	 0.815404	 0.631072

	symmetry c1
}
set optking {
	frozen_dihedral = ("
		20 16 13 17,
		17 13 10 7,
		13 10 7 11,
		11 7 4 3,
		1 2 3 5
	")
}

ee = energy('scf')
oeprop('DIPOLE', 'QUADRUPOLE', 'MULLIKEN_CHARGES')
f=open( 'psi4out.xyz', 'w' )
f.write( "24  " )
f.write( str(ee) + "\n" )
f.write( MOL.save_string_xyz() )
f.close()
--------------------------------------------------------------------------

    Molecular point group: c1

    Geometry (in Angstrom), charge = 0, multiplicity = 1:

       Center              X                  Y                   Z               Mass
    ------------   -----------------  -----------------  -----------------  -----------------
           H         -3.382538189852     1.675252273806    -1.529169016414     1.007825032070
           O         -3.413882189852     0.731729273806    -1.450470016414    15.994914619560
           C         -3.142960189852     0.367955273806    -0.120774016414    12.000000000000
           C         -1.727799189852     0.724954273806     0.320242983586    12.000000000000
           H         -3.289666189852    -0.704135726194    -0.073990016414     1.007825032070
           H         -3.867573189852     0.823576273806     0.552004983586     1.007825032070
           C         -0.709255189852    -0.386010726194     0.061707983586    12.000000000000
           H         -1.415917189852     1.635827273806    -0.191619016414     1.007825032070
           H         -1.750792189852     0.966760273806     1.381479983586     1.007825032070
           C          0.711333810148    -0.008977726194     0.487089983586    12.000000000000
           H         -0.720323189852    -0.641350726194    -0.993465016414     1.007825032070
           H         -1.019737189852    -1.282558726194     0.595745983586     1.007825032070
           C          1.724138810148    -1.128156726194     0.230672983586    12.000000000000
           H          1.011528810148     0.892199273806    -0.042233016414     1.007825032070
           H          0.717159810148     0.243160273806     1.546805983586     1.007825032070
           C          3.145835810148    -0.831774726194     0.721681983586    12.000000000000
           H          1.752114810148    -1.350622726194    -0.834889016414     1.007825032070
           H          1.372399810148    -2.034279726194     0.719589983586     1.007825032070
           C          3.846577810148     0.312769273806    -0.012746016414    12.000000000000
           H          3.743161810148    -1.733584726194     0.611087983586     1.007825032070
           H          3.120161810148    -0.614675726194     1.787707983586     1.007825032070
           H          3.876003810148     0.128934273806    -1.083483016414     1.007825032070
           H          4.870700810148     0.421589273806     0.331008983586     1.007825032070
           H          3.348154810148     1.263285273806     0.146178983586     1.007825032070

  Charge       = 0
  Multiplicity = 1
  Basis Set: 6-31G*
  Basis Set:

    Orbital Energies (a.u.)
    -----------------------

    Doubly Occupied:

       1A    -20.551536     2A    -11.266479     3A    -11.216697
       4A    -11.214679     5A    -11.214346     6A    -11.213320
       7A    -11.212478     8A    -11.207687     9A     -1.358394
      10A     -1.089965    11A     -1.049399    12A     -0.985696
      13A     -0.914328    14A     -0.850135    15A     -0.804457
      16A     -0.777089    17A     -0.682106    18A     -0.649310
      19A     -0.624240    20A     -0.620430    21A     -0.596554
      22A     -0.583239    23A     -0.562961    24A     -0.536000
      25A     -0.518242    26A     -0.514007    27A     -0.493779
      28A     -0.478086    29A     -0.465911    30A     -0.460078
      31A     -0.456891    32A     -0.452450    33A     -0.416505

  @DF-RHF Final Energy:  -349.24410090924408

   => Energetics <=

    Nuclear Repulsion Energy =            382.6044285387789046
    One-Electron Energy =               -1231.6221371693361561
    Two-Electron Energy =                 499.7736077213130557
    DFT Exchange-Correlation Energy =       0.0000000000000000
    Empirical Dispersion Energy =           0.0000000000000000
    PCM Polarization Energy =               0.0000000000000000
    EFP Energy =                            0.0000000000000000
    Total Energy =                       -349.2441009092442528

  Mulliken Charges: (a.u.)
   Center  Symbol    Alpha    Beta     Spin     Total
       1     H     0.28348  0.28348  0.00000  0.43305
       2     O     4.36983  4.36983  0.00000 -0.73966
       3     C     2.99745  2.99745  0.00000  0.00511
       4     C     3.16480  3.16480  0.00000 -0.32959
       5     H     0.41484  0.41484  0.00000  0.17031
       6     H     0.42925  0.42925  0.00000  0.14150
       7     C     3.15604  3.15604  0.00000 -0.31207
       8     H     0.42462  0.42462  0.00000  0.15077
       9     H     0.42317  0.42317  0.00000  0.15366
      10     C     3.15415  3.15415  0.00000 -0.30830
      11     H     0.41378  0.41378  0.00000  0.17243
      12     H     0.42357  0.42357  0.00000  0.15286
      13     C     3.15255  3.15255  0.00000 -0.30510
      14     H     0.42161  0.42161  0.00000  0.15677
      15     H     0.42498  0.42498  0.00000  0.15004
      16     C     3.15232  3.15232  0.00000 -0.30465
      17     H     0.42328  0.42328  0.00000  0.15345
      18     H     0.42248  0.42248  0.00000  0.15504
      19     C     3.24109  3.24109  0.00000 -0.48218
      20     H     0.42099  0.42099  0.00000  0.15802
      21     H     0.42379  0.42379  0.00000  0.15242
      22     H     0.42197  0.42197  0.00000  0.15606
      23     H     0.41946  0.41946  0.00000  0.16107
      24     H     0.42050  0.42050  0.00000  0.15900

   Total alpha = 33.00000, Total beta = 33.00000, Total charge =  0.00000
