                              Psi4 1.0.54 Driver

  ==> Input File <==

--------------------------------------------------------------------------
set {
	reference rhf
	basis cc-pvtz
}

set_num_threads( 4 )
memory 2 gb

molecule MOL {
0 1

H	 -3.034039	 -0.667848	 0.004703
O	 -2.240597	 -1.171748	 0.000934
C	 -1.159675	 -0.364500	 0.000370
C	 0.130296	 -0.854778	 -0.003711
C	 -1.388589	 1.002844	 0.005196
H	 0.310043	 -1.914376	 -0.005448
C	 1.188252	 0.037944	 -0.001553
H	 -2.403257	 1.351204	 0.010570
C	 -0.332440	 1.891623	 0.004946
H	 2.193313	 -0.339712	 -0.001679
C	 0.967963	 1.396713	 0.003569
C	 -0.581342	 3.378681	 -0.013818
H	 1.799788	 2.075322	 0.007865
H	 0.078863	 3.892030	 0.674241
H	 -1.601706	 3.611026	 0.259348
H	 -0.401216	 3.783644	 -1.003870

	symmetry c1
}
set optking {
	frozen_dihedral = ("
		5 3 2 1
	")
}

ee,wfn = optimize('scf', return_wfn=True)
oeprop( wfn, 'DIPOLE', 'QUADRUPOLE', 'MULLIKEN_CHARGES')
f=open( 'psi4out.xyz', 'w' )
f.write( "16  " )
f.write( str(ee) + "\n" )
f.write( MOL.save_string_xyz() )
f.close()
--------------------------------------------------------------------------

    Molecular point group: c1
  Charge       = 0
  Multiplicity = 1
  Basis Set: CC-PVTZ
  Basis Set:
  @DF-RHF Final Energy:  -344.71870004634803
    Total Energy =                       -344.7187000463478626
    Molecular point group: c1
  Basis Set: CC-PVTZ
  Basis Set:
  Basis Set: CC-PVTZ
  Basis Set:
  @DF-RHF Final Energy:  -344.72045569756517
    Total Energy =                       -344.7204556975647165
  Basis Set: CC-PVTZ
  Basis Set:
  Basis Set: CC-PVTZ
  Basis Set:
  @DF-RHF Final Energy:  -344.72061904321697
    Total Energy =                       -344.7206190432174822
  Basis Set: CC-PVTZ
  Basis Set:
  Basis Set: CC-PVTZ
  Basis Set:
  @DF-RHF Final Energy:  -344.72064065304721
    Total Energy =                       -344.7206406530470986
  Basis Set: CC-PVTZ
  Basis Set:
  @DF-RHF Final Energy:  -344.72064830527364
    Total Energy =                       -344.7206483052735848
  @DF-RHF Final Energy:  -344.72065271021074
    Total Energy =                       -344.7206527102107430
  @DF-RHF Final Energy:  -344.72063722056288
    Total Energy =                       -344.7206372205624803
  @DF-RHF Final Energy:  -344.72067859828900
    Total Energy =                       -344.7206785982890551
  @DF-RHF Final Energy:  -344.72066028840027
    Total Energy =                       -344.7206602884003814
  @DF-RHF Final Energy:  -344.72067310212378
    Total Energy =                       -344.7206731021237260
  @DF-RHF Final Energy:  -344.72073582340113
    Total Energy =                       -344.7207358234008439
  @DF-RHF Final Energy:  -344.72074862212150
    Total Energy =                       -344.7207486221215049
  @DF-RHF Final Energy:  -344.72075811039036
    Total Energy =                       -344.7207581103904204
  Basis Set: CC-PVTZ
  Basis Set:
  @DF-RHF Final Energy:  -344.72076531207586
    Total Energy =                       -344.7207653120758550
  Basis Set: CC-PVTZ
  Basis Set:
  Basis Set: CC-PVTZ
  Basis Set:
  @DF-RHF Final Energy:  -344.72076875586271
    Total Energy =                       -344.7207687558626503
  Basis Set: CC-PVTZ
  Basis Set:
  Basis Set: CC-PVTZ
  Basis Set:
  @DF-RHF Final Energy:  -344.72077868877500
    Total Energy =                       -344.7207786887749421
  Basis Set: CC-PVTZ
  Basis Set:
  Charge       = 0
  Multiplicity = 1
  Basis Set: CC-PVTZ
  Basis Set:

    Orbital Energies (a.u.)
    -----------------------

    Doubly Occupied:

       1A    -20.583401     2A    -11.295713     3A    -11.242256
       4A    -11.231023     5A    -11.221649     6A    -11.219026
       7A    -11.214993     8A    -11.212995     9A     -1.414197
      10A     -1.154475    11A     -1.047768    12A     -1.006776
      13A     -0.941044    14A     -0.845810    15A     -0.802639
      16A     -0.733141    17A     -0.683921    18A     -0.651848
      19A     -0.599764    20A     -0.597001    21A     -0.582881
      22A     -0.574906    23A     -0.570016    24A     -0.537725
      25A     -0.506953    26A     -0.484671    27A     -0.472791
      28A     -0.333858    29A     -0.310421

  @DF-RHF Final Energy:  -344.72077894695462

   => Energetics <=

    Nuclear Repulsion Energy =            346.4556558221547675
    One-Electron Energy =               -1154.2055462105508923
    Two-Electron Energy =                 463.0291114414414437
    DFT Exchange-Correlation Energy =       0.0000000000000000
    Empirical Dispersion Energy =           0.0000000000000000
    PCM Polarization Energy =               0.0000000000000000
    EFP Energy =                            0.0000000000000000
    Total Energy =                       -344.7207789469546810
    Molecular point group: c1
  Basis Set: CC-PVTZ
  Basis Set:

  -Total Gradient:
     Atom            X                  Y                   Z
    ------   -----------------  -----------------  -----------------
       1        0.000003827826     0.000002686202     0.000000220910
       2        0.000003123990    -0.000004674304    -0.000006753086
       3       -0.000009999738     0.000026898073     0.000022537527
       4        0.000005060404    -0.000006480724    -0.000019734057
       5       -0.000006043417    -0.000018350682     0.000018467137
       6        0.000004050523     0.000001083108     0.000001509917
       7       -0.000001147219    -0.000016146074     0.000016167998
       8       -0.000003271322     0.000002449491    -0.000003664899
       9        0.000027031266     0.000010576030    -0.000051424757
      10        0.000000000839    -0.000001487776    -0.000000433120
      11       -0.000009295020     0.000010801471     0.000005440356
      12        0.000005422060    -0.000040084147    -0.000008172946
      13       -0.000000825542    -0.000002649101    -0.000000797707
      14        0.000043598198     0.000015092226     0.000009631013
      15       -0.000039054136     0.000016457759     0.000050131321
      16       -0.000022478709     0.000003828449    -0.000033125607

  **** Optimization is complete! (in 17 steps) ****
    Final optimized geometry and variables:
    Molecular point group: c1

    Geometry (in Angstrom), charge = 0, multiplicity = 1:

    H           -2.531248214020    -1.441921393067    -0.165293757371
    O           -1.703285184891    -1.883739580536    -0.112027614640
    C           -0.688593074402    -0.997474419781    -0.045451806805
    C            0.599345818436    -1.504945261137     0.037478797525
    C           -0.899681615459     0.365633897886    -0.057904608332
    H            0.746403903340    -2.566664540185     0.046102481572
    C            1.656038609396    -0.628305778102     0.106858290995
    H           -1.904251365419     0.746746000939    -0.122611421042
    C            0.169998761854     1.250692470180     0.012049849379
    H            2.655903505235    -1.014204408662     0.171406384836
    C            1.451790669812     0.743390343534     0.094794522087
    C           -0.085185904617     2.736715501732    -0.003279778900
    H            2.291247603463     1.409397441892     0.149889953109
    H            0.839806684055     3.292922454899     0.062031472784
    H           -0.713142915423     3.030975547840     0.830136906397
    H           -0.591583587977     3.033729469585    -0.914778198212

  Mulliken Charges: (a.u.)
   Center  Symbol    Alpha    Beta     Spin     Total
       1     H     0.38703  0.38703  0.00000  0.22594
       2     O     4.17471  4.17471  0.00000 -0.34942
       3     C     2.83754  2.83754  0.00000  0.32491
       4     C     3.12392  3.12392  0.00000 -0.24785
       5     C     3.15428  3.15428  0.00000 -0.30857
       6     H     0.41982  0.41982  0.00000  0.16037
       7     C     3.04671  3.04671  0.00000 -0.09342
       8     H     0.43785  0.43785  0.00000  0.12429
       9     C     2.94647  2.94647  0.00000  0.10705
      10     H     0.42330  0.42330  0.00000  0.15341
      11     C     3.12690  3.12690  0.00000 -0.25381
      12     C     3.14981  3.14981  0.00000 -0.29962
      13     H     0.42667  0.42667  0.00000  0.14666
      14     H     0.44961  0.44961  0.00000  0.10078
      15     H     0.44771  0.44771  0.00000  0.10458
      16     H     0.44765  0.44765  0.00000  0.10470

   Total alpha = 29.00000, Total beta = 29.00000, Total charge =  0.00000

*** Psi4 exiting successfully. Buy a developer a beer!
