  ==> Input File <==

--------------------------------------------------------------------------
set {
	reference rhf
	basis 6-31G*
}

set_num_threads( 1 )
memory 2 gb

molecule MOL {
0 1

O	 3.225979	 0.970355	 -0.599647
C	 2.701189	 0.057885	 -0.047330
C	 1.245376	 -0.013843	 0.345420
O	 3.347903	 -1.046386	 0.304773
C	 0.455112	 1.231400	 -0.050772
H	 0.838542	 -0.913825	 -0.103701
H	 1.208210	 -0.175333	 1.419774
C	 -0.998893	 1.219485	 0.433193
H	 0.482531	 1.345121	 -1.130325
H	 0.957290	 2.103070	 0.354729
C	 -1.883438	 0.145884	 -0.207175
H	 -1.431207	 2.195402	 0.224832
H	 -1.019646	 1.105716	 1.516076
C	 -2.015634	 0.310080	 -1.722617
H	 -1.469377	 -0.836879	 0.013163
H	 -2.876521	 0.165326	 0.235975
C	 -2.901605	 -0.754207	 -2.372603
H	 -1.026167	 0.278320	 -2.175586
H	 -2.419608	 1.296729	 -1.944040
C	 -3.025318	 -0.585374	 -3.886502
H	 -2.499917	 -1.740815	 -2.151486
H	 -3.892362	 -0.721103	 -1.924177
H	 -3.659052	 -1.354034	 -4.317953
H	 -2.053880	 -0.648657	 -4.368683
H	 -3.456484	 0.379172	 -4.139527
C	 4.728119	 -1.109107	 -0.004993
H	 4.882018	 -1.033965	 -1.071845
H	 5.068212	 -2.067527	 0.355250
H	 5.265056	 -0.311663	 0.488280

	symmetry c1
}
set optking {
	frozen_dihedral = ("
		21 17 14 11,
		17 14 11 15,
		6 3 5 9,
		11 8 5 9,
		2 4 26 27,
		1 2 4 26,
		6 3 2 1
	")
}

ee = energy('scf')
oeprop('DIPOLE', 'QUADRUPOLE', 'MULLIKEN_CHARGES')
f=open( 'psi4out.xyz', 'w' )
f.write( "29  " )
f.write( str(ee) + "\n" )
f.write( MOL.save_string_xyz() )
f.close()
--------------------------------------------------------------------------

    Molecular point group: c1

    Geometry (in Angstrom), charge = 0, multiplicity = 1:

       Center              X                  Y                   Z               Mass
    ------------   -----------------  -----------------  -----------------  -----------------
           O          2.734931727018     0.945893803245     0.119648934668    15.994914619560
           C          2.210141727018     0.033423803245     0.671965934668    12.000000000000
           C          0.754328727018    -0.038304196755     1.064715934668    12.000000000000
           O          2.856855727018    -1.070847196755     1.024068934668    15.994914619560
           C         -0.035935272982     1.206938803245     0.668523934668    12.000000000000
           H          0.347494727018    -0.938286196755     0.615594934668     1.007825032070
           H          0.717162727018    -0.199794196755     2.139069934668     1.007825032070
           C         -1.489940272982     1.195023803245     1.152488934668    12.000000000000
           H         -0.008516272982     1.320659803245    -0.411029065332     1.007825032070
           H          0.466242727018     2.078608803245     1.074024934668     1.007825032070
           C         -2.374485272982     0.121422803245     0.512120934668    12.000000000000
           H         -1.922254272982     2.170940803245     0.944127934668     1.007825032070
           H         -1.510693272982     1.081254803245     2.235371934668     1.007825032070
           C         -2.506681272982     0.285618803245    -1.003321065332    12.000000000000
           H         -1.960424272982    -0.861340196755     0.732458934668     1.007825032070
           H         -3.367568272982     0.140864803245     0.955270934668     1.007825032070
           C         -3.392652272982    -0.778668196755    -1.653307065332    12.000000000000
           H         -1.517214272982     0.253858803245    -1.456290065332     1.007825032070
           H         -2.910655272982     1.272267803245    -1.224744065332     1.007825032070
           C         -3.516365272982    -0.609835196755    -3.167206065332    12.000000000000
           H         -2.990964272982    -1.765276196755    -1.432190065332     1.007825032070
           H         -4.383409272982    -0.745564196755    -1.204881065332     1.007825032070
           H         -4.150099272982    -1.378495196755    -3.598657065332     1.007825032070
           H         -2.544927272982    -0.673118196755    -3.649387065332     1.007825032070
           H         -3.947531272982     0.354710803245    -3.420231065332     1.007825032070
           C          4.237071727018    -1.133568196755     0.714302934668    12.000000000000
           H          4.390970727018    -1.058426196755    -0.352549065332     1.007825032070
           H          4.577164727018    -2.091988196755     1.074545934668     1.007825032070
           H          4.774008727018    -0.336124196755     1.207575934668     1.007825032070

  Charge       = 0
  Multiplicity = 1
  Basis Set: 6-31G*
  Basis Set:

    Orbital Energies (a.u.)
    -----------------------

    Doubly Occupied:

       1A    -20.603646     2A    -20.545499     3A    -11.372343
       4A    -11.280862     5A    -11.235130     6A    -11.218463
       7A    -11.217458     8A    -11.215718     9A    -11.215603
      10A    -11.213484    11A    -11.208523    12A     -1.469354
      13A     -1.362795    14A     -1.100031    15A     -1.064833
      16A     -1.019415    17A     -0.975839    18A     -0.928299
      19A     -0.866683    20A     -0.806715    21A     -0.782026
      22A     -0.758897    23A     -0.701877    24A     -0.683109
      25A     -0.671642    26A     -0.649616    27A     -0.632099
      28A     -0.604557    29A     -0.594845    30A     -0.577847
      31A     -0.562802    32A     -0.559838    33A     -0.533535
      34A     -0.527963    35A     -0.523861    36A     -0.509689
      37A     -0.490808    38A     -0.480773    39A     -0.471898
      40A     -0.458439    41A     -0.456701    42A     -0.453263
      43A     -0.439972    44A     -0.437557

  @DF-RHF Final Energy:  -501.04173625663157

   => Energetics <=

    Nuclear Repulsion Energy =            625.6846887903566312
    One-Electron Energy =               -1922.4839705332831272
    Two-Electron Energy =                 795.7575454862954984
    DFT Exchange-Correlation Energy =       0.0000000000000000
    Empirical Dispersion Energy =           0.0000000000000000
    PCM Polarization Energy =               0.0000000000000000
    EFP Energy =                            0.0000000000000000
    Total Energy =                       -501.0417362566309976

  Mulliken Charges: (a.u.)
   Center  Symbol    Alpha    Beta     Spin     Total
       1     O     4.28576  4.28576  0.00000 -0.57152
       2     C     2.60510  2.60510  0.00000  0.78980
       3     C     3.20922  3.20922  0.00000 -0.41844
       4     O     4.30734  4.30734  0.00000 -0.61467
       5     C     3.15799  3.15799  0.00000 -0.31598
       6     H     0.39966  0.39966  0.00000  0.20068
       7     H     0.40083  0.40083  0.00000  0.19834
       8     C     3.15777  3.15777  0.00000 -0.31553
       9     H     0.41012  0.41012  0.00000  0.17976
      10     H     0.40812  0.40812  0.00000  0.18376
      11     C     3.15613  3.15613  0.00000 -0.31225
      12     H     0.41855  0.41855  0.00000  0.16291
      13     H     0.42192  0.42192  0.00000  0.15615
      14     C     3.15395  3.15395  0.00000 -0.30789
      15     H     0.42449  0.42449  0.00000  0.15103
      16     H     0.41961  0.41961  0.00000  0.16078
      17     C     3.15046  3.15046  0.00000 -0.30093
      18     H     0.42222  0.42222  0.00000  0.15556
      19     H     0.42304  0.42304  0.00000  0.15392
      20     C     3.23925  3.23925  0.00000 -0.47850
      21     H     0.42388  0.42388  0.00000  0.15223
      22     H     0.42315  0.42315  0.00000  0.15370
      23     H     0.41942  0.41942  0.00000  0.16115
      24     H     0.42151  0.42151  0.00000  0.15697
      25     H     0.42146  0.42146  0.00000  0.15709
      26     C     3.09242  3.09242  0.00000 -0.18483
      27     H     0.40912  0.40912  0.00000  0.18176
      28     H     0.40846  0.40846  0.00000  0.18308
      29     H     0.40906  0.40906  0.00000  0.18187

   Total alpha = 44.00000, Total beta = 44.00000, Total charge = -0.00000
