                              Psi4 1.0.54 Driver

  ==> Input File <==

--------------------------------------------------------------------------
set {
	reference rhf
	basis cc-pvtz
}

set_num_threads( 4 )
memory 2 gb

molecule MOL {
0 1

H	 3.083659	 -1.378387	 0.000000
O	 2.179005	 -1.633391	 0.000000
C	 1.366950	 -0.558201	 0.000000
C	 0.110494	 -0.579111	 -0.586141
C	 1.823565	 0.591903	 0.610560
H	 -0.243631	 -1.475892	 -1.061336
C	 -0.685356	 0.548241	 -0.560525
H	 2.793481	 0.611229	 1.064137
C	 1.019466	 1.717223	 0.631669
H	 -1.655636	 0.520344	 -1.017253
C	 -0.236006	 1.702765	 0.048226
C	 1.499553	 2.962440	 1.286138
H	 -0.852617	 2.580955	 0.069721
O	 2.551514	 3.084565	 1.813285
H	 0.793977	 3.798257	 1.251902

	symmetry c1
}
set optking {
	frozen_dihedral = ("
		4 3 2 1
	")
}

ee,wfn = optimize('scf', return_wfn=True)
oeprop( wfn, 'DIPOLE', 'QUADRUPOLE', 'MULLIKEN_CHARGES')
f=open( 'psi4out.xyz', 'w' )
f.write( "15  " )
f.write( str(ee) + "\n" )
f.write( MOL.save_string_xyz() )
f.close()
--------------------------------------------------------------------------

    Molecular point group: c1
  Charge       = 0
  Multiplicity = 1
  Basis Set: CC-PVTZ
  Basis Set:
  @DF-RHF Final Energy:  -418.43713520999728
    Total Energy =                       -418.4371352099973365
    Molecular point group: c1
  Basis Set: CC-PVTZ
  Basis Set:
  Basis Set: CC-PVTZ
  Basis Set:
  @DF-RHF Final Energy:  -418.43883324864822
    Total Energy =                       -418.4388332486485069
  Basis Set: CC-PVTZ
  Basis Set:
  Basis Set: CC-PVTZ
  Basis Set:
  @DF-RHF Final Energy:  -418.43870753624162
    Total Energy =                       -418.4387075362419637
  Basis Set: CC-PVTZ
  Basis Set:
  Basis Set: CC-PVTZ
  Basis Set:
  @DF-RHF Final Energy:  -418.43868506024842
    Total Energy =                       -418.4386850602488721
  Basis Set: CC-PVTZ
  Basis Set:
  Basis Set: CC-PVTZ
  Basis Set:
  @DF-RHF Final Energy:  -418.43899098855491
    Total Energy =                       -418.4389909885546786
  Basis Set: CC-PVTZ
  Basis Set:
  Basis Set: CC-PVTZ
  Basis Set:
  @DF-RHF Final Energy:  -418.43899470004726
    Total Energy =                       -418.4389947000473740
  Basis Set: CC-PVTZ
  Basis Set:
  Charge       = 0
  Multiplicity = 1
  Basis Set: CC-PVTZ
  Basis Set:

    Orbital Energies (a.u.)
    -----------------------

    Doubly Occupied:

       1A    -20.591866     2A    -20.556536     3A    -11.329970
       4A    -11.309568     5A    -11.251941     6A    -11.249180
       7A    -11.245819     8A    -11.243649     9A    -11.242001
      10A     -1.422710    11A     -1.412272    12A     -1.174751
      13A     -1.053172    14A     -1.029731    15A     -0.903247
      16A     -0.856341    17A     -0.799973    18A     -0.757589
      19A     -0.703880    20A     -0.673427    21A     -0.665279
      22A     -0.634255    23A     -0.619456    24A     -0.612197
      25A     -0.569653    26A     -0.557506    27A     -0.538423
      28A     -0.519148    29A     -0.492568    30A     -0.429033
      31A     -0.357930    32A     -0.335149

  @DF-RHF Final Energy:  -418.43899529912272

   => Energetics <=

    Nuclear Repulsion Energy =            404.0877058829976818
    One-Electron Energy =               -1370.7769649905328606
    Two-Electron Energy =                 548.2502638084122282
    DFT Exchange-Correlation Energy =       0.0000000000000000
    Empirical Dispersion Energy =           0.0000000000000000
    PCM Polarization Energy =               0.0000000000000000
    EFP Energy =                            0.0000000000000000
    Total Energy =                       -418.4389952991230075
    Molecular point group: c1
  Basis Set: CC-PVTZ
  Basis Set:

  -Total Gradient:
     Atom            X                  Y                   Z
    ------   -----------------  -----------------  -----------------
       1       -0.000065092284     0.000053608929    -0.002703362696
       2        0.000448535775     0.000191714647     0.002625379236
       3       -0.001192287092    -0.000775614500     0.001688069226
       4        0.000795841327     0.000562529339    -0.001639047359
       5        0.000017708373    -0.000027797259     0.000001845936
       6        0.000012846735     0.000005681644     0.000004431806
       7       -0.000014030487     0.000008663658     0.000041627185
       8       -0.000006054203     0.000003292873    -0.000001150804
       9        0.000000575471    -0.000010124438     0.000026003791
      10        0.000003804437    -0.000001969876    -0.000005426412
      11       -0.000000227207    -0.000017651279    -0.000061763287
      12       -0.000004525834    -0.000001608693     0.000070448216
      13        0.000006221976     0.000006091771     0.000005925930
      14       -0.000019070757     0.000005234648    -0.000035535297
      15        0.000015753768    -0.000002051464    -0.000017445474

  **** Optimization is complete! (in 7 steps) ****
    Final optimized geometry and variables:
    Molecular point group: c1

    Geometry (in Angstrom), charge = 0, multiplicity = 1:

    H            1.904530671266    -2.347200454067    -0.386288812754
    O            0.984271972949    -2.540966749005    -0.388529794442
    C            0.249687060786    -1.406435200797    -0.359450327296
    C           -0.996728735894    -1.431846935005    -0.972901358489
    C            0.693435804466    -0.256641219979     0.251512771555
    H           -1.318814669019    -2.336575766002    -1.449803217829
    C           -1.795258850529    -0.311680628425    -0.957191319511
    H            1.651578250299    -0.219827442686     0.733084059895
    C           -0.112255687850     0.874416771872     0.252429463294
    H           -2.757848286251    -0.340017444610    -1.429846843811
    C           -1.355332541597     0.851253353332    -0.345330819029
    C            0.360991981216     2.121122933640     0.904900991816
    H           -1.975021123839     1.727754914083    -0.337508098211
    O            1.412083518576     2.246042135343     1.434629720037
    H           -0.346158041277     2.955277933476     0.866134244817

  Mulliken Charges: (a.u.)
   Center  Symbol    Alpha    Beta     Spin     Total
       1     H     0.38338  0.38338  0.00000  0.23324
       2     O     4.17774  4.17774  0.00000 -0.35548
       3     C     2.84926  2.84926  0.00000  0.30147
       4     C     3.10127  3.10127  0.00000 -0.20253
       5     C     3.13757  3.13757  0.00000 -0.27513
       6     H     0.41427  0.41427  0.00000  0.17145
       7     C     3.05836  3.05836  0.00000 -0.11673
       8     H     0.41342  0.41342  0.00000  0.17316
       9     C     2.98038  2.98038  0.00000  0.03924
      10     H     0.41919  0.41919  0.00000  0.16161
      11     C     3.10575  3.10575  0.00000 -0.21149
      12     C     2.90915  2.90915  0.00000  0.18170
      13     H     0.42292  0.42292  0.00000  0.15415
      14     O     4.17205  4.17205  0.00000 -0.34409
      15     H     0.45529  0.45529  0.00000  0.08943

   Total alpha = 32.00000, Total beta = 32.00000, Total charge =  0.00000

*** Psi4 exiting successfully. Buy a developer a beer!
