  ==> Input File <==

--------------------------------------------------------------------------
set {
	reference rhf
	basis 6-31G*
}

set_num_threads( 1 )
memory 2 gb

molecule MOL {
0 1

H	 -3.407059	 -1.043082	 0.000000
O	 -3.119761	 -0.140267	 0.000000
C	 -1.777559	 -0.059267	 0.000000
C	 -1.049767	 0.189551	 -1.159918
C	 -1.127379	 -0.234681	 1.215139
H	 -1.561470	 0.324316	 -2.097633
C	 0.326087	 0.261986	 -1.099935
H	 -1.710753	 -0.425452	 2.095793
C	 0.249152	 -0.159358	 1.259002
H	 0.900196	 0.453331	 -1.987001
C	 0.992014	 0.088603	 0.109090
H	 0.753491	 -0.295219	 2.200409
C	 2.464783	 0.166448	 0.171556
O	 3.174186	 0.374427	 -0.763457
H	 2.893326	 0.016284	 1.168034

	symmetry c1
}
set optking {
	frozen_dihedral = ("
		7 11 13 14
	")
}

ee = energy('scf')
oeprop('DIPOLE', 'QUADRUPOLE', 'MULLIKEN_CHARGES')
f=open( 'psi4out.xyz', 'w' )
f.write( "15  " )
f.write( str(ee) + "\n" )
f.write( MOL.save_string_xyz() )
f.close()
--------------------------------------------------------------------------

    Molecular point group: c1

    Geometry (in Angstrom), charge = 0, multiplicity = 1:

       Center              X                  Y                   Z               Mass
    ------------   -----------------  -----------------  -----------------  -----------------
           H         -3.404187252263    -1.090668820515     0.040002891944     1.007825032070
           O         -3.116889252263    -0.187853820515     0.040002891944    15.994914619560
           C         -1.774687252263    -0.106853820515     0.040002891944    12.000000000000
           C         -1.046895252263     0.141964179485    -1.119915108056    12.000000000000
           C         -1.124507252263    -0.282267820515     1.255141891944    12.000000000000
           H         -1.558598252263     0.276729179485    -2.057630108056     1.007825032070
           C          0.328958747737     0.214399179485    -1.059932108056    12.000000000000
           H         -1.707881252263    -0.473038820515     2.135795891944     1.007825032070
           C          0.252023747737    -0.206944820515     1.299004891944    12.000000000000
           H          0.903067747737     0.405744179485    -1.946998108056     1.007825032070
           C          0.994885747737     0.041016179485     0.149092891944    12.000000000000
           H          0.756362747737    -0.342805820515     2.240411891944     1.007825032070
           C          2.467654747737     0.118861179485     0.211558891944    12.000000000000
           O          3.177057747737     0.326840179485    -0.723454108056    15.994914619560
           H          2.896197747737    -0.031302820515     1.208036891944     1.007825032070

  Charge       = 0
  Multiplicity = 1
  Basis Set: 6-31G*
  Basis Set:

    Orbital Energies (a.u.)
    -----------------------

    Doubly Occupied:

       1A    -20.594182     2A    -20.559911     3A    -11.330705
       4A    -11.313502     5A    -11.259234     6A    -11.253131
       7A    -11.243811     8A    -11.242021     9A    -11.241182
      10A     -1.420554    11A     -1.400410    12A     -1.169669
      13A     -1.040502    14A     -1.036382    15A     -0.889041
      16A     -0.856276    17A     -0.799041    18A     -0.754808
      19A     -0.704708    20A     -0.675364    21A     -0.646477
      22A     -0.630758    23A     -0.619033    24A     -0.606452
      25A     -0.560761    26A     -0.552593    27A     -0.536790
      28A     -0.494391    29A     -0.480301    30A     -0.421640
      31A     -0.355101    32A     -0.338860

  @DF-RHF Final Energy:  -418.28307372061522

   => Energetics <=

    Nuclear Repulsion Energy =            401.3008553044007840
    One-Electron Energy =               -1365.1126437660936972
    Two-Electron Energy =                 545.5287147410789430
    DFT Exchange-Correlation Energy =       0.0000000000000000
    Empirical Dispersion Energy =           0.0000000000000000
    PCM Polarization Energy =               0.0000000000000000
    EFP Energy =                            0.0000000000000000
    Total Energy =                       -418.2830737206139702

  Mulliken Charges: (a.u.)
   Center  Symbol    Alpha    Beta     Spin     Total
       1     H     0.26676  0.26676  0.00000  0.46647
       2     O     4.38287  4.38287  0.00000 -0.76574
       3     C     2.80616  2.80616  0.00000  0.38768
       4     C     3.12306  3.12306  0.00000 -0.24612
       5     C     3.12634  3.12634  0.00000 -0.25267
       6     H     0.38823  0.38823  0.00000  0.22354
       7     C     3.08455  3.08455  0.00000 -0.16910
       8     H     0.39064  0.39064  0.00000  0.21873
       9     C     3.09762  3.09762  0.00000 -0.19524
      10     H     0.37503  0.37503  0.00000  0.24994
      11     C     3.06109  3.06109  0.00000 -0.12218
      12     H     0.39119  0.39119  0.00000  0.21762
      13     C     2.83079  2.83079  0.00000  0.33842
      14     O     4.25181  4.25181  0.00000 -0.50363
      15     H     0.42386  0.42386  0.00000  0.15228

   Total alpha = 32.00000, Total beta = 32.00000, Total charge = -0.00000
