  ==> Input File <==

--------------------------------------------------------------------------
set {
	reference rhf
	basis 6-31G*
}

set_num_threads( 1 )
memory 2 gb

molecule MOL {
0 1

H	 -0.000158	 1.970498	 0.756846
O	 -0.000074	 1.880206	 -0.189275
C	 -0.000015	 0.544847	 -0.545111
C	 -1.278788	 -0.123820	 -0.051541
C	 1.278802	 -0.123718	 -0.051505
H	 -0.000001	 0.490777	 -1.623619
F	 -1.890615	 0.668309	 0.802710
F	 -2.114798	 -0.387591	 -1.033310
F	 -1.005483	 -1.257833	 0.573693
F	 2.323327	 0.466644	 -0.591854
F	 1.326242	 -1.401483	 -0.363667
F	 1.388946	 -0.015632	 1.262939

	symmetry c1
}
set optking {
	frozen_dihedral = ("
		6 3 2 1
	")
}

ee = energy('scf')
oeprop('DIPOLE', 'QUADRUPOLE', 'MULLIKEN_CHARGES')
f=open( 'psi4out.xyz', 'w' )
f.write( "12  " )
f.write( str(ee) + "\n" )
f.write( MOL.save_string_xyz() )
f.close()
--------------------------------------------------------------------------

    Molecular point group: c1

    Geometry (in Angstrom), charge = 0, multiplicity = 1:

       Center              X                  Y                   Z               Mass
    ------------   -----------------  -----------------  -----------------  -----------------
           H         -0.003273225984     1.973468691433     0.752799635079     1.007825032070
           O         -0.003189225984     1.883176691433    -0.193321364921    15.994914619560
           C         -0.003130225984     0.547817691433    -0.549157364921    12.000000000000
           C         -1.281903225984    -0.120849308567    -0.055587364921    12.000000000000
           C          1.275686774016    -0.120747308567    -0.055551364921    12.000000000000
           H         -0.003116225984     0.493747691433    -1.627665364921     1.007825032070
           F         -1.893730225984     0.671279691433     0.798663635079    18.998403224000
           F         -2.117913225984    -0.384620308567    -1.037356364921    18.998403224000
           F         -1.008598225984    -1.254862308567     0.569646635079    18.998403224000
           F          2.320211774016     0.469614691433    -0.595900364921    18.998403224000
           F          1.323126774016    -1.398512308567    -0.367713364921    18.998403224000
           F          1.385830774016    -0.012661308567     1.258892635079    18.998403224000

  Charge       = 0
  Multiplicity = 1
  Basis Set: 6-31G*
  Basis Set:

    Orbital Energies (a.u.)
    -----------------------

    Doubly Occupied:

       1A    -26.362454     2A    -26.362411     3A    -26.362349
       4A    -26.359358     5A    -26.358637     6A    -26.357358
       7A    -20.613406     8A    -11.526368     9A    -11.524744
      10A    -11.347296    11A     -1.765315    12A     -1.758155
      13A     -1.661055    14A     -1.659919    15A     -1.657789
      16A     -1.653274    17A     -1.432879    18A     -1.101387
      19A     -0.997294    20A     -0.936686    21A     -0.866971
      22A     -0.860542    23A     -0.850996    24A     -0.845846
      25A     -0.835332    26A     -0.813165    27A     -0.734842
      28A     -0.731800    29A     -0.725618    30A     -0.723345
      31A     -0.688102    32A     -0.686529    33A     -0.681715
      34A     -0.677462    35A     -0.667104    36A     -0.662264
      37A     -0.655891    38A     -0.649019    39A     -0.616991
      40A     -0.548660    41A     -0.505787

  @DF-RHF Final Energy:  -786.27097927509010

   => Energetics <=

    Nuclear Repulsion Energy =            671.8319784247306643
    One-Electron Energy =               -2430.5535806115458399
    Two-Electron Energy =                 972.4506229117264411
    DFT Exchange-Correlation Energy =       0.0000000000000000
    Empirical Dispersion Energy =           0.0000000000000000
    PCM Polarization Energy =               0.0000000000000000
    EFP Energy =                            0.0000000000000000
    Total Energy =                       -786.2709792750888482

  Mulliken Charges: (a.u.)
   Center  Symbol    Alpha    Beta     Spin     Total
       1     H     0.26648  0.26648  0.00000  0.46705
       2     O     4.36028  4.36028  0.00000 -0.72056
       3     C     3.07558  3.07558  0.00000 -0.15116
       4     C     2.42589  2.42589  0.00000  1.14821
       5     C     2.43575  2.43575  0.00000  1.12850
       6     H     0.37147  0.37147  0.00000  0.25706
       7     F     4.67666  4.67666  0.00000 -0.35332
       8     F     4.67578  4.67578  0.00000 -0.35155
       9     F     4.67836  4.67836  0.00000 -0.35673
      10     F     4.67514  4.67514  0.00000 -0.35028
      11     F     4.67561  4.67561  0.00000 -0.35123
      12     F     4.68300  4.68300  0.00000 -0.36599

   Total alpha = 41.00000, Total beta = 41.00000, Total charge =  0.00000
