  ==> Input File <==

--------------------------------------------------------------------------
set {
	reference rhf
	basis 6-31G*
}

set_num_threads( 1 )
memory 2 gb

molecule MOL {
0 1

H	 -2.285877	 -1.696261	 -1.702376
N	 -1.385913	 -1.700831	 -1.263038
C	 -1.388971	 -0.866049	 -0.074663
H	 -0.728460	 -1.337053	 -1.925255
C	 -0.011006	 -0.855397	 0.553219
H	 -1.688622	 0.165676	 -0.263754
H	 -2.091224	 -1.283241	 0.640580
O	 0.874168	 -0.245412	 -0.342030
H	 -0.030050	 -0.305605	 1.493966
H	 0.304660	 -1.875660	 0.759746
C	 2.202317	 -0.244239	 0.074611
H	 2.711377	 -1.041390	 -0.449894
H	 2.692099	 0.699270	 -0.159667
H	 2.283185	 -0.418429	 1.145558

	symmetry c1
}
set optking {
	frozen_dihedral = ("
		8 5 3 6,
		6 3 2 4,
		11 8 5 3
	")
}

ee = energy('scf')
oeprop('DIPOLE', 'QUADRUPOLE', 'MULLIKEN_CHARGES')
f=open( 'psi4out.xyz', 'w' )
f.write( "14  " )
f.write( str(ee) + "\n" )
f.write( MOL.save_string_xyz() )
f.close()
--------------------------------------------------------------------------

    Molecular point group: c1

    Geometry (in Angstrom), charge = 0, multiplicity = 1:

       Center              X                  Y                   Z               Mass
    ------------   -----------------  -----------------  -----------------  -----------------
           H         -2.357538307874    -0.917256664472    -1.476130973126     1.007825032070
           N         -1.457574307874    -0.921826664472    -1.036792973126    14.003074004780
           C         -1.460632307874    -0.087044664472     0.151582026874    12.000000000000
           H         -0.800121307874    -0.558048664472    -1.699009973126     1.007825032070
           C         -0.082667307874    -0.076392664472     0.779464026874    12.000000000000
           H         -1.760283307874     0.944680335528    -0.037508973126     1.007825032070
           H         -2.162885307874    -0.504236664472     0.866825026874     1.007825032070
           O          0.802506692126     0.533592335528    -0.115784973126    15.994914619560
           H         -0.101711307874     0.473399335528     1.720211026874     1.007825032070
           H          0.232998692126    -1.096655664472     0.985991026874     1.007825032070
           C          2.130655692126     0.534765335528     0.300856026874    12.000000000000
           H          2.639715692126    -0.262385664472    -0.223648973126     1.007825032070
           H          2.620437692126     1.478274335528     0.066578026874     1.007825032070
           H          2.211523692126     0.360575335528     1.371803026874     1.007825032070

  Charge       = 0
  Multiplicity = 1
  Basis Set: 6-31G*
  Basis Set:

    Orbital Energies (a.u.)
    -----------------------

    Doubly Occupied:

       1A    -20.554435     2A    -15.528318     3A    -11.266258
       4A    -11.265485     5A    -11.240547     6A     -1.380259
       7A     -1.173460     8A     -0.998373     9A     -0.907061
      10A     -0.815979    11A     -0.683372    12A     -0.673359
      13A     -0.641993    14A     -0.610149    15A     -0.606821
      16A     -0.539106    17A     -0.534338    18A     -0.495604
      19A     -0.473812    20A     -0.412523    21A     -0.380019

  @DF-RHF Final Energy:  -248.12149543616675

   => Energetics <=

    Nuclear Repulsion Energy =            194.7180792835766852
    One-Electron Energy =                -723.3165731776360872
    Two-Electron Energy =                 280.4769984578925914
    DFT Exchange-Correlation Energy =       0.0000000000000000
    Empirical Dispersion Energy =           0.0000000000000000
    PCM Polarization Energy =               0.0000000000000000
    EFP Energy =                            0.0000000000000000
    Total Energy =                       -248.1214954361668106

  Mulliken Charges: (a.u.)
   Center  Symbol    Alpha    Beta     Spin     Total
       1     H     0.33285  0.33285  0.00000  0.33430
       2     N     3.92533  3.92533  0.00000 -0.85067
       3     C     3.06889  3.06889  0.00000 -0.13778
       4     H     0.32366  0.32366  0.00000  0.35267
       5     C     2.99152  2.99152  0.00000  0.01696
       6     H     0.42659  0.42659  0.00000  0.14683
       7     H     0.42058  0.42058  0.00000  0.15884
       8     O     4.31157  4.31157  0.00000 -0.62314
       9     H     0.43032  0.43032  0.00000  0.13936
      10     H     0.42252  0.42252  0.00000  0.15496
      11     C     3.07738  3.07738  0.00000 -0.15476
      12     H     0.42193  0.42193  0.00000  0.15615
      13     H     0.41750  0.41750  0.00000  0.16499
      14     H     0.42936  0.42936  0.00000  0.14128

   Total alpha = 21.00000, Total beta = 21.00000, Total charge = -0.00000
