                              Psi4 1.0.54 Driver

  ==> Input File <==

--------------------------------------------------------------------------
set {
	reference rhf
	basis cc-pvtz
}

set_num_threads( 4 )
memory 2 gb

molecule MOL {
0 1

H	 -2.426928	 1.447084	 2.554581
O	 -1.629843	 0.939676	 2.584751
C	 -1.052582	 0.990832	 1.387635
C	 0.228036	 0.201674	 1.351913
O	 -1.525280	 1.593070	 0.486615
C	 0.926581	 0.227233	 0.000178
H	 -0.013723	 -0.812768	 1.652225
H	 0.867959	 0.596313	 2.134522
C	 2.220156	 -0.582071	 -0.000088
H	 0.252924	 -0.156000	 -0.757947
H	 1.135694	 1.254818	 -0.275072
C	 3.466689	 0.296012	 -0.000457
H	 2.239073	 -1.234095	 -0.869382
H	 2.239505	 -1.233985	 0.869270
H	 3.493549	 0.935857	 -0.875887
H	 4.368821	 -0.304526	 -0.001199
H	 3.494559	 0.935166	 0.875458

	symmetry c1
}
set optking {
	frozen_dihedral = ("
		10 6 9 13
	")
}

ee,wfn = optimize('scf', return_wfn=True)
oeprop( wfn, 'DIPOLE', 'QUADRUPOLE', 'MULLIKEN_CHARGES')
f=open( 'psi4out.xyz', 'w' )
f.write( "17  " )
f.write( str(ee) + "\n" )
f.write( MOL.save_string_xyz() )
f.close()
--------------------------------------------------------------------------

    Molecular point group: c1
  Charge       = 0
  Multiplicity = 1
  Basis Set: CC-PVTZ
  Basis Set:
  @DF-RHF Final Energy:  -345.04343602038631
    Total Energy =                       -345.0434360203863093
    Molecular point group: c1
  Basis Set: CC-PVTZ
  Basis Set:
  Basis Set: CC-PVTZ
  Basis Set:
  @DF-RHF Final Energy:  -345.04374446816388
    Total Energy =                       -345.0437444681639363
  Basis Set: CC-PVTZ
  Basis Set:
  Basis Set: CC-PVTZ
  Basis Set:
  @DF-RHF Final Energy:  -345.04350163014431
    Total Energy =                       -345.0435016301444193
  Basis Set: CC-PVTZ
  Basis Set:
  Basis Set: CC-PVTZ
  Basis Set:
  @DF-RHF Final Energy:  -345.04382101867361
    Total Energy =                       -345.0438210186734409
  Basis Set: CC-PVTZ
  Basis Set:
  Basis Set: CC-PVTZ
  Basis Set:
  @DF-RHF Final Energy:  -345.04382652424255
    Total Energy =                       -345.0438265242427178
  Basis Set: CC-PVTZ
  Basis Set:
  Charge       = 0
  Multiplicity = 1
  Basis Set: CC-PVTZ
  Basis Set:

    Orbital Energies (a.u.)
    -----------------------

    Doubly Occupied:

       1A    -20.604181     2A    -20.540848     3A    -11.373631
       4A    -11.240005     5A    -11.220974     6A    -11.220383
       7A    -11.212313     8A     -1.477758     9A     -1.369293
      10A     -1.091173    11A     -1.018542    12A     -0.916092
      13A     -0.828468    14A     -0.788572    15A     -0.703941
      16A     -0.691956    17A     -0.667150    18A     -0.620407
      19A     -0.608419    20A     -0.589021    21A     -0.565590
      22A     -0.531187    23A     -0.527126    24A     -0.484706
      25A     -0.478675    26A     -0.477298    27A     -0.467390
      28A     -0.445855

  @DF-RHF Final Energy:  -345.04382676277658

   => Energetics <=

    Nuclear Repulsion Energy =            306.2100057938961299
    One-Electron Energy =               -1076.9857629483713026
    Two-Electron Energy =                 425.7319303916984836
    DFT Exchange-Correlation Energy =       0.0000000000000000
    Empirical Dispersion Energy =           0.0000000000000000
    PCM Polarization Energy =               0.0000000000000000
    EFP Energy =                            0.0000000000000000
    Total Energy =                       -345.0438267627766891
    Molecular point group: c1
  Basis Set: CC-PVTZ
  Basis Set:

  -Total Gradient:
     Atom            X                  Y                   Z
    ------   -----------------  -----------------  -----------------
       1       -0.000005493906     0.000000527118     0.000004576855
       2       -0.000008145666     0.000015880369    -0.000018112544
       3        0.000017309166    -0.000007666390     0.000000198542
       4        0.000015184916    -0.000002409328     0.000011882466
       5       -0.000018017786    -0.000000524767     0.000011902295
       6       -0.001650318345    -0.002750220973     0.002808924533
       7        0.000000657417    -0.000005214065    -0.000004288529
       8       -0.000000122485    -0.000009562366    -0.000010519392
       9        0.001805626431     0.003001883225    -0.002395177239
      10        0.001108600610     0.001803411329    -0.001950049384
      11        0.000010468202     0.000001512388     0.000000270670
      12        0.000005117395     0.000017062942    -0.000004318643
      13       -0.001256694790    -0.002050115362     0.001536139643
      14       -0.000006829921     0.000005674481     0.000008722939
      15       -0.000004364437    -0.000005826673     0.000002280368
      16       -0.000003219484    -0.000007839701     0.000004119322
      17       -0.000009757319    -0.000006572224    -0.000006551896

  **** Optimization is complete! (in 6 steps) ****
    Final optimized geometry and variables:
    Molecular point group: c1

    Geometry (in Angstrom), charge = 0, multiplicity = 1:

    H           -2.719303780132     0.998821357645     1.720539436487
    O           -1.940842105792     0.462941841849     1.744806442052
    C           -1.378882680547     0.482585194451     0.539427875865
    C           -0.127306376254    -0.351658410502     0.494135673523
    O           -1.841274648831     1.094924536283    -0.360148613991
    C            0.550822023286    -0.368531284746    -0.868467101392
    H           -0.399217260768    -1.352908944219     0.811281030790
    H            0.538663728200     0.030429317386     1.261325449899
    C            1.863971673712    -1.173787493490    -0.874188361115
    H           -0.134877373948    -0.753040404628    -1.612399912974
    H            0.748407792809     0.653013987451    -1.171382744268
    C            3.115408280109    -0.302071800262    -0.859061002847
    H            1.884231765227    -1.832037203175    -1.735231739945
    H            1.887188057513    -1.836112358079    -0.013149618709
    H            3.165238428602     0.322185427544    -1.744298464974
    H            4.014705013372    -0.906308493030    -0.826415668543
    H            3.126668676435     0.353407233780     0.005935799721

  Mulliken Charges: (a.u.)
   Center  Symbol    Alpha    Beta     Spin     Total
       1     H     0.38234  0.38234  0.00000  0.23532
       2     O     4.16014  4.16014  0.00000 -0.32028
       3     C     2.80589  2.80589  0.00000  0.38822
       4     C     3.10949  3.10949  0.00000 -0.21899
       5     O     4.19092  4.19092  0.00000 -0.38184
       6     C     3.09102  3.09102  0.00000 -0.18203
       7     H     0.43717  0.43717  0.00000  0.12565
       8     H     0.43766  0.43766  0.00000  0.12468
       9     C     3.09225  3.09225  0.00000 -0.18450
      10     H     0.44032  0.44032  0.00000  0.11936
      11     H     0.44687  0.44687  0.00000  0.10627
      12     C     3.14614  3.14614  0.00000 -0.29228
      13     H     0.44580  0.44580  0.00000  0.10840
      14     H     0.45698  0.45698  0.00000  0.08604
      15     H     0.45254  0.45254  0.00000  0.09492
      16     H     0.44858  0.44858  0.00000  0.10284
      17     H     0.45588  0.45588  0.00000  0.08823

   Total alpha = 28.00000, Total beta = 28.00000, Total charge = -0.00000

*** Psi4 exiting successfully. Buy a developer a beer!
