                              Psi4 1.0.54 Driver

  ==> Input File <==

--------------------------------------------------------------------------
set {
	reference rhf
	basis cc-pvtz
}

set_num_threads( 4 )
memory 2 gb

molecule MOL {
0 1

H	 -3.434298	 -0.189393	 -0.260956
O	 -2.653438	 -0.711876	 -0.156129
C	 -1.599948	 0.099961	 -0.160000
C	 -0.310616	 -0.658853	 0.000791
O	 -1.708746	 1.271024	 -0.281426
C	 0.926581	 0.227233	 0.000178
H	 -0.270731	 -1.393076	 -0.797365
H	 -0.388074	 -1.228078	 0.921498
C	 2.220156	 -0.582071	 -0.000088
H	 0.899945	 0.878221	 -0.866390
H	 0.900542	 0.878581	 0.866486
C	 3.466689	 0.296012	 -0.000457
H	 2.239073	 -1.234095	 -0.869382
H	 2.239505	 -1.233985	 0.869270
H	 3.493549	 0.935857	 -0.875887
H	 4.368821	 -0.304526	 -0.001199
H	 3.494559	 0.935166	 0.875458

	symmetry c1
}
set optking {
	frozen_dihedral = ("
		7 4 6 10
	")
}

ee,wfn = optimize('scf', return_wfn=True)
oeprop( wfn, 'DIPOLE', 'QUADRUPOLE', 'MULLIKEN_CHARGES')
f=open( 'psi4out.xyz', 'w' )
f.write( "17  " )
f.write( str(ee) + "\n" )
f.write( MOL.save_string_xyz() )
f.close()
--------------------------------------------------------------------------

    Molecular point group: c1
  Charge       = 0
  Multiplicity = 1
  Basis Set: CC-PVTZ
  Basis Set:
  @DF-RHF Final Energy:  -345.04877773137667
    Total Energy =                       -345.0487777313767310
    Molecular point group: c1
  Basis Set: CC-PVTZ
  Basis Set:
  Basis Set: CC-PVTZ
  Basis Set:
  @DF-RHF Final Energy:  -345.04875672597132
    Total Energy =                       -345.0487567259712591
  Basis Set: CC-PVTZ
  Basis Set:
  Basis Set: CC-PVTZ
  Basis Set:
  @DF-RHF Final Energy:  -345.04868581455054
    Total Energy =                       -345.0486858145505948
  Basis Set: CC-PVTZ
  Basis Set:
  Basis Set: CC-PVTZ
  Basis Set:
  @DF-RHF Final Energy:  -345.04879947535147
    Total Energy =                       -345.0487994753515295
  Basis Set: CC-PVTZ
  Basis Set:
  Basis Set: CC-PVTZ
  Basis Set:
  @DF-RHF Final Energy:  -345.04880085475855
    Total Energy =                       -345.0488008547586674
  Basis Set: CC-PVTZ
  Basis Set:
  Charge       = 0
  Multiplicity = 1
  Basis Set: CC-PVTZ
  Basis Set:

    Orbital Energies (a.u.)
    -----------------------

    Doubly Occupied:

       1A    -20.604214     2A    -20.540820     3A    -11.373848
       4A    -11.239335     5A    -11.221320     6A    -11.220699
       7A    -11.210727     8A     -1.477817     9A     -1.369341
      10A     -1.092866    11A     -1.019909    12A     -0.915002
      13A     -0.825126    14A     -0.791212    15A     -0.704063
      16A     -0.688655    17A     -0.671635    18A     -0.631337
      19A     -0.593543    20A     -0.585471    21A     -0.574579
      22A     -0.538681    23A     -0.508926    24A     -0.484780
      25A     -0.483051    26A     -0.478712    27A     -0.472293
      28A     -0.446624

  @DF-RHF Final Energy:  -345.04880089371648

   => Energetics <=

    Nuclear Repulsion Energy =            304.7790188427992462
    One-Electron Energy =               -1074.1264624175278186
    Two-Electron Energy =                 424.2986426810120975
    DFT Exchange-Correlation Energy =       0.0000000000000000
    Empirical Dispersion Energy =           0.0000000000000000
    PCM Polarization Energy =               0.0000000000000000
    EFP Energy =                            0.0000000000000000
    Total Energy =                       -345.0488008937164750
    Molecular point group: c1
  Basis Set: CC-PVTZ
  Basis Set:

  -Total Gradient:
     Atom            X                  Y                   Z
    ------   -----------------  -----------------  -----------------
       1        0.000007600568     0.000001045367    -0.000000561702
       2        0.000000693472    -0.000012253559     0.000001329757
       3       -0.000005456353     0.000010655227     0.000007596066
       4       -0.000809115140     0.001110829669    -0.000742035554
       5        0.000011313464    -0.000004826019    -0.000008190507
       6        0.000824244666    -0.001161984517    -0.000550818910
       7        0.000527074877    -0.000733069817     0.000703587288
       8       -0.000000664585     0.000000164483    -0.000004566130
       9        0.000000146516    -0.000002152233    -0.000008844142
      10       -0.000555138865     0.000782134255     0.000604019768
      11        0.000001065091     0.000003392914     0.000001212526
      12        0.000002704246     0.000002636607    -0.000001096824
      13        0.000003356074    -0.000000008097     0.000001545838
      14       -0.000006878723     0.000005474524    -0.000004606399
      15        0.000000186858    -0.000001213358     0.000003207698
      16       -0.000000751240     0.000000902818     0.000000426157
      17       -0.000000380926    -0.000001728263    -0.000002204931

  **** Optimization is complete! (in 6 steps) ****
    Final optimized geometry and variables:
    Molecular point group: c1

    Geometry (in Angstrom), charge = 0, multiplicity = 1:

    H           -3.439444704666    -0.184579050891    -0.146556332147
    O           -2.657433911783    -0.707399482011    -0.052481964323
    C           -1.604192185144     0.104569571279    -0.069602449589
    C           -0.313360589421    -0.653704283769     0.076683403734
    O           -1.714729544220     1.275903855522    -0.186736429968
    C            0.925545910976     0.230449914626     0.068567532997
    H           -0.278042041080    -1.392141972947    -0.717808251179
    H           -0.382382237366    -1.223758529431     0.997705681289
    C            2.218842940324    -0.578289318226     0.083887012454
    H            0.898845614813     0.877824525794    -0.800247608340
    H            0.896237007300     0.890395897532     0.928978110688
    C            3.465123456344     0.299976432377     0.097692686402
    H            2.247481062943    -1.230059495119    -0.785226306416
    H            2.228443969458    -1.230331283758     0.953376692793
    H            3.500675588884     0.941008547448    -0.776537382597
    H            4.367284969438    -0.300464772957     0.105368580493
    H            3.483949266672     0.937878317777     0.974744386025

  Mulliken Charges: (a.u.)
   Center  Symbol    Alpha    Beta     Spin     Total
       1     H     0.38245  0.38245  0.00000  0.23509
       2     O     4.15967  4.15967  0.00000 -0.31935
       3     C     2.80442  2.80442  0.00000  0.39116
       4     C     3.11109  3.11109  0.00000 -0.22218
       5     O     4.19107  4.19107  0.00000 -0.38214
       6     C     3.08246  3.08246  0.00000 -0.16493
       7     H     0.43859  0.43859  0.00000  0.12282
       8     H     0.43778  0.43778  0.00000  0.12444
       9     C     3.08596  3.08596  0.00000 -0.17191
      10     H     0.44456  0.44456  0.00000  0.11087
      11     H     0.44788  0.44788  0.00000  0.10424
      12     C     3.14924  3.14924  0.00000 -0.29848
      13     H     0.45459  0.45459  0.00000  0.09082
      14     H     0.45497  0.45497  0.00000  0.09007
      15     H     0.45348  0.45348  0.00000  0.09305
      16     H     0.44801  0.44801  0.00000  0.10398
      17     H     0.45377  0.45377  0.00000  0.09245

   Total alpha = 28.00000, Total beta = 28.00000, Total charge = -0.00000

*** Psi4 exiting successfully. Buy a developer a beer!
