  ==> Input File <==

--------------------------------------------------------------------------
set {
	reference rhf
	basis cc-pvtz
}

set_num_threads( 4 )
memory 2 gb

molecule MOL {
0 1

H	 -3.162190	 0.493205	 -0.000107
C	 -2.363908	 -0.234727	 0.000005
O	 -1.158738	 0.454634	 -0.000087
H	 -2.464314	 -0.863616	 -0.882153
H	 -2.464327	 -0.863359	 0.882345
C	 -0.028611	 -0.359694	 0.000037
C	 0.647897	 -0.274519	 1.353357
H	 0.659569	 -0.044281	 -0.784540
H	 -0.310659	 -1.390680	 -0.214814
C	 1.899110	 -1.141832	 1.434518
H	 0.898552	 0.762103	 1.549599
H	 -0.063944	 -0.573641	 2.114778
H	 2.635717	 -0.843294	 0.696026
H	 2.361764	 -1.062042	 2.410533
H	 1.666751	 -2.187985	 1.265281

	symmetry c1
}
set optking {
	frozen_dihedral = ("
		8 6 3 2
	")
}

ee = optimize('scf')
oeprop('DIPOLE', 'QUADRUPOLE', 'MULLIKEN_CHARGES')
f=open( 'psi4out.xyz', 'w' )
f.write( "15  " )
f.write( str(ee) + "\n" )
f.write( MOL.save_string_xyz() )
f.close()
--------------------------------------------------------------------------

    Molecular point group: c1
  Charge       = 0
  Multiplicity = 1
  Basis Set: CC-PVTZ
  Basis Set:
  @DF-RHF Final Energy:  -232.22385329402655
    Total Energy =                       -232.2238532940266396
    Molecular point group: c1
  Basis Set: CC-PVTZ
  Basis Set:
  Basis Set: CC-PVTZ
  Basis Set:
  @DF-RHF Final Energy:  -232.22441320991038
    Total Energy =                       -232.2244132099104945
  Basis Set: CC-PVTZ
  Basis Set:
  Basis Set: CC-PVTZ
  Basis Set:
  @DF-RHF Final Energy:  -232.22452148137648
    Total Energy =                       -232.2245214813764846
  Basis Set: CC-PVTZ
  Basis Set:
  Charge       = 0
  Multiplicity = 1
  Basis Set: CC-PVTZ
  Basis Set:

    Orbital Energies (a.u.)
    -----------------------

    Doubly Occupied:

       1A    -20.544251     2A    -11.264013     3A    -11.262409
       4A    -11.213249     5A    -11.211363     6A     -1.376839
       7A     -1.057271     8A     -0.957691     9A     -0.880181
      10A     -0.808451    11A     -0.670495    12A     -0.655149
      13A     -0.638001    14A     -0.600132    15A     -0.569158
      16A     -0.536933    17A     -0.509775    18A     -0.495711
      19A     -0.482936    20A     -0.462331    21A     -0.406921

  @DF-RHF Final Energy:  -232.22452302246967

   => Energetics <=

    Nuclear Repulsion Energy =            190.6437950200534033
    One-Electron Energy =                -692.5301173851271415
    Two-Electron Energy =                 269.6617993426041835
    DFT Exchange-Correlation Energy =       0.0000000000000000
    Empirical Dispersion Energy =           0.0000000000000000
    PCM Polarization Energy =               0.0000000000000000
    EFP Energy =                            0.0000000000000000
    Total Energy =                       -232.2245230224695547
    Molecular point group: c1
  Basis Set: CC-PVTZ
  Basis Set:

  -Total Gradient:
     Atom            X                  Y                   Z
    ------   -----------------  -----------------  -----------------
       1       -0.000015163817    -0.000000313576     0.000006100978
       2       -0.000069090441     0.000004788550    -0.000714859241
       3       -0.000100780952    -0.000109536600     0.000892163138
       4        0.000027892694     0.000000704954     0.000008129244
       5        0.000045610885     0.000019048639    -0.000013758278
       6        0.000357484482     0.000669748161     0.000392555914
       7        0.000092481547    -0.000008759703    -0.000052793986
       8       -0.000345902138    -0.000554130834    -0.000483870482
       9        0.000035940024    -0.000035802232    -0.000012705640
      10       -0.000023901483    -0.000002557381     0.000011913518
      11       -0.000011258635     0.000022274721    -0.000002204417
      12       -0.000015580924    -0.000003456665    -0.000041786388
      13        0.000000142253    -0.000007740126     0.000003749810
      14        0.000008506491    -0.000004120936     0.000013462986
      15        0.000013620016     0.000009853028    -0.000006097156

  **** Optimization is complete! (in 4 steps) ****
    Final optimized geometry and variables:
    Molecular point group: c1

    Geometry (in Angstrom), charge = 0, multiplicity = 1:

    H           -2.940116833013     0.854719491059    -0.573619099277
    C           -2.164206586990     0.102535648352    -0.571850666702
    O           -0.939442183617     0.759059888019    -0.568100938755
    H           -2.281523727699    -0.519861381214    -1.455800744914
    H           -2.292027391288    -0.522831727274     0.308872754002
    C            0.195510754601    -0.058137195364    -0.520721725169
    C            0.889830232493     0.033015606199     0.827881586212
    H            0.868453551034     0.262440279070    -1.309461233575
    H           -0.070063335119    -1.091203540144    -0.733455047925
    C            2.157947973102    -0.811378339169     0.889254150612
    H            1.124004890156     1.073918298211     1.022438128840
    H            0.197824129718    -0.280138774224     1.603620855217
    H            2.874941579230    -0.499505308445     0.137025618630
    H            2.637402796480    -0.723288722776     1.856573988146
    H            1.942284577534    -1.861892931621     0.723410189126

  Mulliken Charges: (a.u.)
   Center  Symbol    Alpha    Beta     Spin     Total
       1     H     0.44896  0.44896  0.00000  0.10207
       2     C     3.03156  3.03156  0.00000 -0.06312
       3     O     4.18036  4.18036  0.00000 -0.36072
       4     H     0.46917  0.46917  0.00000  0.06167
       5     H     0.47304  0.47304  0.00000  0.05392
       6     C     2.97199  2.97199  0.00000  0.05601
       7     C     3.07872  3.07872  0.00000 -0.15745
       8     H     0.45311  0.45311  0.00000  0.09379
       9     H     0.47411  0.47411  0.00000  0.05178
      10     C     3.15452  3.15452  0.00000 -0.30905
      11     H     0.45081  0.45081  0.00000  0.09837
      12     H     0.45643  0.45643  0.00000  0.08713
      13     H     0.45471  0.45471  0.00000  0.09059
      14     H     0.44668  0.44668  0.00000  0.10664
      15     H     0.45582  0.45582  0.00000  0.08836

   Total alpha = 21.00000, Total beta = 21.00000, Total charge = -0.00000
