  ==> Input File <==

--------------------------------------------------------------------------
set {
	reference rhf
	basis 6-31G*
}

set_num_threads( 4 )
memory 2 gb

molecule MOL {
0 1

O	 -0.682937	 1.318834	 -0.186099
C	 -0.860635	 0.152188	 -0.042321
C	 -2.173363	 -0.477127	 0.338347
O	 0.083258	 -0.765189	 -0.202595
H	 -2.477673	 -1.180929	 -0.427595
H	 -2.923125	 0.290956	 0.455536
H	 -2.058825	 -1.029004	 1.264191
C	 1.010517	 -0.976910	 0.859555
C	 0.451521	 -1.923156	 1.905876
H	 1.276457	 -0.025002	 1.293476
H	 1.880547	 -1.400964	 0.379216
H	 1.206301	 -2.123978	 2.660004
H	 -0.411710	 -1.490380	 2.395677
H	 0.163340	 -2.865561	 1.452842

	symmetry c1
}
set optking {
	frozen_dihedral = ("
		8 4 2 1
	")
}

ee = optimize('scf')
oeprop('DIPOLE', 'QUADRUPOLE', 'MULLIKEN_CHARGES')
f=open( 'psi4out.xyz', 'w' )
f.write( "14  " )
f.write( str(ee) + "\n" )
f.write( MOL.save_string_xyz() )
f.close()
--------------------------------------------------------------------------

    Molecular point group: c1
  Charge       = 0
  Multiplicity = 1
  Basis Set: 6-31G*
  Basis Set:
  @DF-RHF Final Energy:  -305.85252414150932
    Total Energy =                       -305.8525241415094342
    Molecular point group: c1
  Basis Set: 6-31G*
  Basis Set:
  Basis Set: 6-31G*
  Basis Set:
  @DF-RHF Final Energy:  -305.85481140518675
    Total Energy =                       -305.8548114051869788
  Basis Set: 6-31G*
  Basis Set:
  Basis Set: 6-31G*
  Basis Set:
  @DF-RHF Final Energy:  -305.85551550801716
    Total Energy =                       -305.8555155080168788
  Basis Set: 6-31G*
  Basis Set:
  Basis Set: 6-31G*
  Basis Set:
  @DF-RHF Final Energy:  -305.85558122436890
    Total Energy =                       -305.8555812243689047
  Basis Set: 6-31G*
  Basis Set:
  Basis Set: 6-31G*
  Basis Set:
  @DF-RHF Final Energy:  -305.85559169108103
    Total Energy =                       -305.8555916910811447
  Basis Set: 6-31G*
  Basis Set:
  Basis Set: 6-31G*
  Basis Set:
  @DF-RHF Final Energy:  -305.85559333480552
    Total Energy =                       -305.8555933348055760
  Basis Set: 6-31G*
  Basis Set:
  Basis Set: 6-31G*
  Basis Set:
  @DF-RHF Final Energy:  -305.85559341184614
    Total Energy =                       -305.8555934118462005
  Basis Set: 6-31G*
  Basis Set:
  Charge       = 0
  Multiplicity = 1
  Basis Set: 6-31G*
  Basis Set:

    Orbital Energies (a.u.)
    -----------------------

    Doubly Occupied:

       1A    -20.583979     2A    -20.555250     3A    -11.377042
       4A    -11.295489     5A    -11.235650     6A    -11.231242
       7A     -1.457333     8A     -1.365180     9A     -1.049328
      10A     -1.010852    11A     -0.886553    12A     -0.764933
      13A     -0.695664    14A     -0.681080    15A     -0.665732
      16A     -0.615202    17A     -0.593661    18A     -0.574145
      19A     -0.561462    20A     -0.552985    21A     -0.509680
      22A     -0.489806    23A     -0.450979    24A     -0.438230

  @DF-RHF Final Energy:  -305.85559358007856

   => Energetics <=

    Nuclear Repulsion Energy =            247.9336104947757349
    One-Electron Energy =                -908.2954954784154324
    Two-Electron Energy =                 354.5062914035611357
    DFT Exchange-Correlation Energy =       0.0000000000000000
    Empirical Dispersion Energy =           0.0000000000000000
    PCM Polarization Energy =               0.0000000000000000
    EFP Energy =                            0.0000000000000000
    Total Energy =                       -305.8555935800785619
    Molecular point group: c1
  Basis Set: 6-31G*
  Basis Set:

  -Total Gradient:
     Atom            X                  Y                   Z
    ------   -----------------  -----------------  -----------------
       1       -0.002277801960    -0.000295312924    -0.007900031814
       2        0.001444572721    -0.001812908701     0.012924361387
       3        0.000058416609    -0.000101305011    -0.000049900198
       4        0.004655805393     0.006874930233    -0.007467672949
       5       -0.000003349709    -0.000039063613     0.000019720240
       6        0.000074385471     0.000036481969    -0.000023319520
       7        0.000026221209    -0.000010062877     0.000067033277
       8       -0.003915338327    -0.004520326485     0.002538822722
       9       -0.000059596063    -0.000107363673    -0.000074789317
      10        0.000050847531    -0.000010745902     0.000005150640
      11       -0.000025819912    -0.000032601227    -0.000010070598
      12        0.000013778535    -0.000004477349    -0.000004335494
      13       -0.000034694873     0.000044223608    -0.000038904480
      14       -0.000007426627    -0.000021468051     0.000013936108

  **** Optimization is complete! (in 8 steps) ****
    Final optimized geometry and variables:
    Molecular point group: c1

    Geometry (in Angstrom), charge = 0, multiplicity = 1:

    O           -0.345171866582     1.761648146539    -0.538812983219
    C           -0.527532192705     0.597580147076    -0.439710668058
    C           -1.879128023289    -0.028806409488    -0.219470725183
    O            0.453894356961    -0.302196845594    -0.666426518145
    H           -2.119439057978    -0.651371650742    -1.074463341941
    H           -2.627514676620     0.741078485160    -0.102550867482
    H           -1.867234648974    -0.670914186289     0.653042564423
    C            1.411323203272    -0.550374201565     0.354599206033
    C            0.879390322083    -1.441102746171     1.464691827316
    H            1.767201603225     0.395902693512     0.744869553655
    H            2.233888057313    -1.033430313134    -0.151674534562
    H            1.688645566603    -1.698415560498     2.140889194667
    H            0.109612649666    -0.947270667737     2.048346630924
    H            0.469893068365    -2.358246653015     1.056339568660

  Mulliken Charges: (a.u.)
   Center  Symbol    Alpha    Beta     Spin     Total
       1     O     4.25357  4.25357  0.00000 -0.50714
       2     C     2.62598  2.62598  0.00000  0.74805
       3     C     3.28611  3.28611  0.00000 -0.57223
       4     O     4.31828  4.31828  0.00000 -0.63656
       5     H     0.39766  0.39766  0.00000  0.20467
       6     H     0.39753  0.39753  0.00000  0.20494
       7     H     0.40573  0.40573  0.00000  0.18854
       8     C     3.00367  3.00367  0.00000 -0.00733
       9     C     3.25704  3.25704  0.00000 -0.51408
      10     H     0.40897  0.40897  0.00000  0.18205
      11     H     0.40558  0.40558  0.00000  0.18885
      12     H     0.41320  0.41320  0.00000  0.17360
      13     H     0.41710  0.41710  0.00000  0.16579
      14     H     0.40957  0.40957  0.00000  0.18085

   Total alpha = 24.00000, Total beta = 24.00000, Total charge =  0.00000
