                              Psi4 1.0.54 Driver

  ==> Input File <==

--------------------------------------------------------------------------
set {
	reference rhf
	basis cc-pvtz
}

set_num_threads( 4 )
memory 2 gb

molecule MOL {
0 1

H	 5.150051	 -0.668312	 0.988557
C	 4.540135	 -0.808232	 0.103520
C	 3.055216	 -0.709687	 0.436127
H	 4.827312	 -0.052112	 -0.618995
H	 4.785388	 -1.778047	 -0.317324
C	 2.163481	 -0.912820	 -0.786786
H	 2.850770	 0.259887	 0.875521
H	 2.805814	 -1.454126	 1.188745
C	 0.671158	 -0.825835	 -0.482989
H	 2.412725	 -0.178690	 -1.542934
H	 2.367488	 -1.889827	 -1.215297
C	 0.166485	 0.574257	 -0.177158
H	 0.099628	 -1.172167	 -1.340412
H	 0.401863	 -1.486462	 0.335895
C	 -1.180025	 0.697761	 0.509157
O	 0.787704	 1.541593	 -0.479852
C	 -2.285431	 -0.137488	 -0.145671
H	 -1.447360	 1.745713	 0.496200
H	 -1.065514	 0.394096	 1.546399
C	 -3.646545	 0.082747	 0.508954
H	 -2.348635	 0.118247	 -1.199806
H	 -2.034895	 -1.192387	 -0.096473
C	 -4.757412	 -0.737227	 -0.138149
H	 -3.900211	 1.137405	 0.459735
H	 -3.580878	 -0.166775	 1.564416
H	 -4.867876	 -0.486707	 -1.187777
H	 -4.549650	 -1.800049	 -0.072540
H	 -5.709585	 -0.556397	 0.346597

	symmetry c1
}
set optking {
	frozen_dihedral = ("
		16 12 15 17
	")
}

ee,wfn = optimize('scf', return_wfn=True)
oeprop( wfn, 'DIPOLE', 'QUADRUPOLE', 'MULLIKEN_CHARGES')
f=open( 'psi4out.xyz', 'w' )
f.write( "28  " )
f.write( str(ee) + "\n" )
f.write( MOL.save_string_xyz() )
f.close()
--------------------------------------------------------------------------

    Molecular point group: c1
  Charge       = 0
  Multiplicity = 1
  Basis Set: CC-PVTZ
  Basis Set:
  @DF-RHF Final Energy:  -426.31947516617709
    Total Energy =                       -426.3194751661771988
    Molecular point group: c1
  Basis Set: CC-PVTZ
  Basis Set:
  Basis Set: CC-PVTZ
  Basis Set:
  @DF-RHF Final Energy:  -426.31782437531297
    Total Energy =                       -426.3178243753131937
  Basis Set: CC-PVTZ
  Basis Set:
  Basis Set: CC-PVTZ
  Basis Set:
  @DF-RHF Final Energy:  -426.31963986028404
    Total Energy =                       -426.3196398602838144
  Basis Set: CC-PVTZ
  Basis Set:
  Basis Set: CC-PVTZ
  Basis Set:
  @DF-RHF Final Energy:  -426.31969122918190
    Total Energy =                       -426.3196912291814442
  Basis Set: CC-PVTZ
  Basis Set:
  Basis Set: CC-PVTZ
  Basis Set:
  @DF-RHF Final Energy:  -426.31965366938823
    Total Energy =                       -426.3196536693887992
  Basis Set: CC-PVTZ
  Basis Set:
  Basis Set: CC-PVTZ
  Basis Set:
  @DF-RHF Final Energy:  -426.31970630961553
    Total Energy =                       -426.3197063096158672
  Basis Set: CC-PVTZ
  Basis Set:
  Charge       = 0
  Multiplicity = 1
  Basis Set: CC-PVTZ
  Basis Set:

    Orbital Energies (a.u.)
    -----------------------

    Doubly Occupied:

       1A    -20.536267     2A    -11.316868     3A    -11.229468
       4A    -11.228520     5A    -11.227374     6A    -11.224015
       7A    -11.214559     8A    -11.214537     9A    -11.210656
      10A    -11.203861    11A     -1.396456    12A     -1.096704
      13A     -1.078702    14A     -1.023709    15A     -0.991708
      16A     -0.907975    17A     -0.875067    18A     -0.809690
      19A     -0.800671    20A     -0.723592    21A     -0.669606
      22A     -0.656059    23A     -0.630472    24A     -0.620977
      25A     -0.611091    26A     -0.588455    27A     -0.579458
      28A     -0.575758    29A     -0.542872    30A     -0.533261
      31A     -0.521057    32A     -0.510085    33A     -0.497938
      34A     -0.486530    35A     -0.480359    36A     -0.476253
      37A     -0.472127    38A     -0.466060    39A     -0.457327
      40A     -0.394340

  @DF-RHF Final Energy:  -426.31970649661832

   => Energetics <=

    Nuclear Repulsion Energy =            532.2775649014430428
    One-Electron Energy =               -1633.0335693199626803
    Two-Electron Energy =                 674.4362979219010867
    DFT Exchange-Correlation Energy =       0.0000000000000000
    Empirical Dispersion Energy =           0.0000000000000000
    PCM Polarization Energy =               0.0000000000000000
    EFP Energy =                            0.0000000000000000
    Total Energy =                       -426.3197064966186645
    Molecular point group: c1
  Basis Set: CC-PVTZ
  Basis Set:

  -Total Gradient:
     Atom            X                  Y                   Z
    ------   -----------------  -----------------  -----------------
       1        0.000003342117     0.000000986523     0.000001409082
       2       -0.000001500891     0.000014407560     0.000003061447
       3        0.000018853029    -0.000037302294     0.000000180122
       4        0.000002201296    -0.000000847835    -0.000003521087
       5       -0.000003470499    -0.000000841090     0.000001928460
       6        0.000010426554    -0.000004978822    -0.000009302620
       7       -0.000000453622     0.000009078899     0.000005817306
       8       -0.000001238010     0.000000865637     0.000001255805
       9       -0.000008975995    -0.000018612780     0.000029670861
      10       -0.000002189754    -0.000002099663     0.000001924761
      11       -0.000001382260    -0.000001616110     0.000002739249
      12       -0.000481104368    -0.000201379450    -0.000887493063
      13       -0.000003220447     0.000008913216    -0.000011857963
      14        0.000011754752     0.000000247171    -0.000012569842
      15       -0.000023959707     0.000687634774    -0.000261618600
      16        0.000362035476     0.000025137929     0.000743821840
      17        0.000120548800    -0.000474578445     0.000387638638
      18       -0.000007997925    -0.000001310397     0.000001974023
      19       -0.000003469208    -0.000005268777     0.000005141345
      20        0.000016697326     0.000009693194     0.000005863373
      21        0.000003311868     0.000000922150     0.000002739010
      22        0.000001106860     0.000002813224     0.000000723234
      23       -0.000020611430    -0.000015971767    -0.000011056021
      24        0.000003639493     0.000001057224    -0.000000474517
      25        0.000000919913     0.000000067911    -0.000000412942
      26        0.000000885027     0.000000572545     0.000002238467
      27       -0.000000108822     0.000001409370     0.000000601762
      28        0.000003960424     0.000001000113    -0.000000422129

  **** Optimization is complete! (in 7 steps) ****
    Final optimized geometry and variables:
    Molecular point group: c1

    Geometry (in Angstrom), charge = 0, multiplicity = 1:

    H            5.212764942710    -0.435230939705     1.094515631056
    C            4.607305528453    -0.630578639447     0.216947850692
    C            3.120264009463    -0.537763986943     0.541444036449
    H            4.884604878152     0.091203626412    -0.543537228832
    H            4.868505042935    -1.617122340151    -0.152273232147
    C            2.234912138073    -0.818890739679    -0.670663507557
    H            2.899616911587     0.450155773110     0.928722971218
    H            2.880553716525    -1.245636694771     1.331572268418
    C            0.740494207380    -0.737859155147    -0.375754579432
    H            2.476296353769    -0.123263850976    -1.464795530411
    H            2.454209311935    -1.814614950503    -1.045158817289
    C            0.212172516103     0.668731856818    -0.154774730532
    H            0.175383546809    -1.147597220190    -1.209058401970
    H            0.480658348090    -1.350284595369     0.483004384825
    C           -1.144255885931     0.816348553938     0.508176515156
    O            0.836001412114     1.627782219642    -0.477716201202
    C           -2.269322798989    -0.020834599864    -0.104960955112
    H           -1.394747540641     1.868200633544     0.482719583454
    H           -1.018897582921     0.537023403772     1.552468679929
    C           -3.616446622733     0.240258681344     0.563657410255
    H           -2.348341340194     0.202923392490    -1.165661673549
    H           -2.035227740805    -1.077428216815    -0.028636870798
    C           -4.749349306722    -0.584023106027    -0.038099064583
    H           -3.856499746818     1.296321547692     0.484686040189
    H           -3.536663231518     0.024046482820     1.625480195131
    H           -4.875012568655    -0.364970763384    -1.093072003674
    H           -4.554621961313    -1.647041806836     0.057373319959
    H           -5.690336936341    -0.374938670823     0.456956505432

  Mulliken Charges: (a.u.)
   Center  Symbol    Alpha    Beta     Spin     Total
       1     H     0.44867  0.44867  0.00000  0.10265
       2     C     3.15202  3.15202  0.00000 -0.30403
       3     C     3.08439  3.08439  0.00000 -0.16878
       4     H     0.45176  0.45176  0.00000  0.09647
       5     H     0.45691  0.45691  0.00000  0.08617
       6     C     3.08745  3.08745  0.00000 -0.17490
       7     H     0.44560  0.44560  0.00000  0.10880
       8     H     0.45874  0.45874  0.00000  0.08252
       9     C     3.13117  3.13117  0.00000 -0.26234
      10     H     0.44447  0.44447  0.00000  0.11106
      11     H     0.44778  0.44778  0.00000  0.10443
      12     C     2.86500  2.86500  0.00000  0.27001
      13     H     0.43320  0.43320  0.00000  0.13361
      14     H     0.44264  0.44264  0.00000  0.11471
      15     C     3.09202  3.09202  0.00000 -0.18405
      16     O     4.17781  4.17781  0.00000 -0.35562
      17     C     3.10194  3.10194  0.00000 -0.20388
      18     H     0.43744  0.43744  0.00000  0.12512
      19     H     0.44937  0.44937  0.00000  0.10126
      20     C     3.08728  3.08728  0.00000 -0.17456
      21     H     0.44699  0.44699  0.00000  0.10603
      22     H     0.44948  0.44948  0.00000  0.10103
      23     C     3.14912  3.14912  0.00000 -0.29824
      24     H     0.44971  0.44971  0.00000  0.10059
      25     H     0.45349  0.45349  0.00000  0.09303
      26     H     0.45373  0.45373  0.00000  0.09254
      27     H     0.45516  0.45516  0.00000  0.08967
      28     H     0.44666  0.44666  0.00000  0.10668

   Total alpha = 40.00000, Total beta = 40.00000, Total charge =  0.00000

*** Psi4 exiting successfully. Buy a developer a beer!
