  ==> Input File <==

--------------------------------------------------------------------------
set {
	reference rhf
	basis cc-pvtz
}

set_num_threads( 4 )
memory 2 gb

molecule MOL {
0 1

O	 -0.294688	 1.318815	 -0.000872
C	 -0.448732	 0.145721	 -0.000187
C	 -1.780748	 -0.548101	 0.000195
O	 0.550743	 -0.719877	 0.000412
H	 -1.859389	 -1.183260	 -0.872613
H	 -2.570236	 0.185547	 -0.001342
H	 -1.860233	 -1.180337	 0.875064
C	 1.813623	 -0.251579	 -0.429583
H	 1.762569	 0.098255	 -1.449896
H	 2.483177	 -1.093089	 -0.357185
H	 2.156399	 0.553813	 0.202769

	symmetry c1
}
set optking {
	frozen_dihedral = ("
		8 4 2 1
	")
}

ee = optimize('scf')
oeprop('DIPOLE', 'QUADRUPOLE', 'MULLIKEN_CHARGES')
f=open( 'psi4out.xyz', 'w' )
f.write( "11  " )
f.write( str(ee) + "\n" )
f.write( MOL.save_string_xyz() )
f.close()
--------------------------------------------------------------------------

    Molecular point group: c1
  Charge       = 0
  Multiplicity = 1
  Basis Set: CC-PVTZ
  Basis Set:
  @DF-RHF Final Energy:  -266.93678670457263
    Total Energy =                       -266.9367867045723415
    Molecular point group: c1
  Basis Set: CC-PVTZ
  Basis Set:
  Basis Set: CC-PVTZ
  Basis Set:
  @DF-RHF Final Energy:  -266.93385072480839
    Total Energy =                       -266.9338507248081669
  Basis Set: CC-PVTZ
  Basis Set:
  Basis Set: CC-PVTZ
  Basis Set:
  @DF-RHF Final Energy:  -266.93701923903041
    Total Energy =                       -266.9370192390304624
  Basis Set: CC-PVTZ
  Basis Set:
  Basis Set: CC-PVTZ
  Basis Set:
  @DF-RHF Final Energy:  -266.93705574896865
    Total Energy =                       -266.9370557489684757
  Basis Set: CC-PVTZ
  Basis Set:
  Basis Set: CC-PVTZ
  Basis Set:
  @DF-RHF Final Energy:  -266.93706148214721
    Total Energy =                       -266.9370614821472145
  Basis Set: CC-PVTZ
  Basis Set:
  Basis Set: CC-PVTZ
  Basis Set:
  @DF-RHF Final Energy:  -266.93706469455157
    Total Energy =                       -266.9370646945518502
  Basis Set: CC-PVTZ
  Basis Set:
  Basis Set: CC-PVTZ
  Basis Set:
  @DF-RHF Final Energy:  -266.93707308437024
    Total Energy =                       -266.9370730843702404
  Basis Set: CC-PVTZ
  Basis Set:
  Charge       = 0
  Multiplicity = 1
  Basis Set: CC-PVTZ
  Basis Set:

    Orbital Energies (a.u.)
    -----------------------

    Doubly Occupied:

       1A    -20.596788     2A    -20.536354     3A    -11.369217
       4A    -11.280936     5A    -11.233476     6A     -1.472942
       7A     -1.368020     8A     -1.036287     9A     -0.954269
      10A     -0.780111    11A     -0.697931    12A     -0.683773
      13A     -0.680655    14A     -0.597554    15A     -0.593579
      16A     -0.563065    17A     -0.530247    18A     -0.521607
      19A     -0.461779    20A     -0.445569

  @DF-RHF Final Energy:  -266.93707361481745

   => Energetics <=

    Nuclear Repulsion Energy =            183.5649508158674337
    One-Electron Energy =                -728.1957304765089702
    Two-Electron Energy =                 277.6937060458241717
    DFT Exchange-Correlation Energy =       0.0000000000000000
    Empirical Dispersion Energy =           0.0000000000000000
    PCM Polarization Energy =               0.0000000000000000
    EFP Energy =                            0.0000000000000000
    Total Energy =                       -266.9370736148173933
    Molecular point group: c1
  Basis Set: CC-PVTZ
  Basis Set:

  -Total Gradient:
     Atom            X                  Y                   Z
    ------   -----------------  -----------------  -----------------
       1       -0.000106787526     0.000241235729     0.006449394861
       2       -0.000341153833    -0.001144785809    -0.011960251558
       3        0.000019046934    -0.000011309680     0.000028882897
       4        0.001459122795     0.002501950877     0.010159090782
       5       -0.000004092956    -0.000002914992     0.000000326534
       6        0.000002861085    -0.000008903133     0.000000012330
       7       -0.000006257767    -0.000009193113     0.000004562992
       8       -0.001049055344    -0.001606763195    -0.004740531554
       9        0.000000819316     0.000009447233     0.000025574333
      10        0.000002638808     0.000003244649     0.000014393116
      11        0.000022858490     0.000027991434     0.000018545267

  **** Optimization is complete! (in 8 steps) ****
    Final optimized geometry and variables:
    Molecular point group: c1

    Geometry (in Angstrom), charge = 0, multiplicity = 1:

    O           -0.296843422343     1.330083144037    -0.004727563749
    C           -0.442763348300     0.158357960033     0.057879339602
    C           -1.769723191105    -0.541271966213     0.123077067153
    O            0.565429806164    -0.697985083972     0.134100894809
    H           -1.901186835174    -1.141324971126    -0.768906547609
    H           -2.561093166279     0.186787023579     0.196157832466
    H           -1.790498329703    -1.209099613167     0.973892368656
    C            1.835835966151    -0.242224809762    -0.287852305214
    H            1.783746328048     0.135571784617    -1.298871748290
    H            2.489364279499    -1.098254713469    -0.245278551125
    H            2.201720753387     0.537886359018     0.362549148012

  Mulliken Charges: (a.u.)
   Center  Symbol    Alpha    Beta     Spin     Total
       1     O     4.19399  4.19399  0.00000 -0.38797
       2     C     2.80185  2.80185  0.00000  0.39629
       3     C     3.13753  3.13753  0.00000 -0.27506
       4     O     4.14962  4.14962  0.00000 -0.29923
       5     H     0.44741  0.44741  0.00000  0.10517
       6     H     0.43806  0.43806  0.00000  0.12389
       7     H     0.44418  0.44418  0.00000  0.11165
       8     C     3.03301  3.03301  0.00000 -0.06602
       9     H     0.45837  0.45837  0.00000  0.08326
      10     H     0.44540  0.44540  0.00000  0.10920
      11     H     0.45058  0.45058  0.00000  0.09883

   Total alpha = 20.00000, Total beta = 20.00000, Total charge = -0.00000
