                              Psi4 1.0.54 Driver

  ==> Input File <==

--------------------------------------------------------------------------
set {
	reference rhf
	basis cc-pvtz
}

set_num_threads( 4 )
memory 2 gb

molecule MOL {
0 1

H	 1.991542	 2.108619	 1.033262
N	 1.136048	 1.600586	 0.958278
C	 1.263552	 0.494993	 0.021953
H	 0.436167	 2.245312	 0.655241
C	 -0.016533	 -0.325589	 -0.026925
H	 2.079072	 -0.134634	 0.361792
H	 1.519456	 0.820830	 -0.987170
C	 -1.280353	 0.525521	 0.047747
H	 -0.016686	 -0.912532	 -0.939714
H	 -0.014099	 -1.037598	 0.796369
C	 -2.560681	 -0.301323	 -0.007747
H	 -1.279957	 1.241025	 -0.770189
H	 -1.270445	 1.110526	 0.963468
H	 -2.617064	 -0.872870	 -0.928010
H	 -3.439525	 0.331102	 0.043462
H	 -2.609427	 -1.002736	 0.818585

	symmetry c1
}
set optking {
	frozen_dihedral = ("
		6 3 5 9
	")
}

ee,wfn = optimize('scf', return_wfn=True)
oeprop( wfn, 'DIPOLE', 'QUADRUPOLE', 'MULLIKEN_CHARGES')
f=open( 'psi4out.xyz', 'w' )
f.write( "16  " )
f.write( str(ee) + "\n" )
f.write( MOL.save_string_xyz() )
f.close()
--------------------------------------------------------------------------

    Molecular point group: c1
  Charge       = 0
  Multiplicity = 1
  Basis Set: CC-PVTZ
  Basis Set:
  @DF-RHF Final Energy:  -212.39503506243838
    Total Energy =                       -212.3950350624385237
    Molecular point group: c1
  Basis Set: CC-PVTZ
  Basis Set:
  Basis Set: CC-PVTZ
  Basis Set:
  @DF-RHF Final Energy:  -212.39576759474866
    Total Energy =                       -212.3957675947487473
  Basis Set: CC-PVTZ
  Basis Set:
  Basis Set: CC-PVTZ
  Basis Set:
  @DF-RHF Final Energy:  -212.39672433875279
    Total Energy =                       -212.3967243387528470
  Basis Set: CC-PVTZ
  Basis Set:
  Basis Set: CC-PVTZ
  Basis Set:
  @DF-RHF Final Energy:  -212.39679245839707
    Total Energy =                       -212.3967924583971012
  Basis Set: CC-PVTZ
  Basis Set:
  Basis Set: CC-PVTZ
  Basis Set:
  @DF-RHF Final Energy:  -212.39680362086514
    Total Energy =                       -212.3968036208652279
  Basis Set: CC-PVTZ
  Basis Set:
  Basis Set: CC-PVTZ
  Basis Set:
  @DF-RHF Final Energy:  -212.39680626786915
    Total Energy =                       -212.3968062678691240
  Basis Set: CC-PVTZ
  Basis Set:
  Charge       = 0
  Multiplicity = 1
  Basis Set: CC-PVTZ
  Basis Set:

    Orbital Energies (a.u.)
    -----------------------

    Doubly Occupied:

       1A    -15.526247     2A    -11.239083     3A    -11.210098
       4A    -11.208042     5A    -11.204511     6A     -1.177939
       7A     -1.056171     8A     -0.960243     9A     -0.852414
      10A     -0.777701    11A     -0.665793    12A     -0.649667
      13A     -0.596478    14A     -0.585259    15A     -0.547280
      16A     -0.525435    17A     -0.512690    18A     -0.471867
      19A     -0.466127    20A     -0.452436    21A     -0.382881

  @DF-RHF Final Energy:  -212.39680638141186

   => Energetics <=

    Nuclear Repulsion Energy =            189.6407473486071353
    One-Electron Energy =                -661.9383809611535980
    Two-Electron Energy =                 259.9008272311344854
    DFT Exchange-Correlation Energy =       0.0000000000000000
    Empirical Dispersion Energy =           0.0000000000000000
    PCM Polarization Energy =               0.0000000000000000
    EFP Energy =                            0.0000000000000000
    Total Energy =                       -212.3968063814119773
    Molecular point group: c1
  Basis Set: CC-PVTZ
  Basis Set:

  -Total Gradient:
     Atom            X                  Y                   Z
    ------   -----------------  -----------------  -----------------
       1        0.000004724525    -0.000001064411    -0.000002196451
       2        0.000000777183    -0.000008581342     0.000008596493
       3        0.000303845966    -0.000806618011    -0.007280270171
       4       -0.000004115236    -0.000001830047    -0.000004936644
       5        0.003101919851    -0.004945328193     0.004289659954
       6       -0.000729840604     0.001439422912     0.005496373694
       7        0.000002546697    -0.000000423202     0.000000843079
       8        0.000011495122     0.000007097779     0.000014856972
       9       -0.002686151099     0.004330526788    -0.002518580507
      10       -0.000004099671     0.000002395067     0.000000033087
      11       -0.000008748234    -0.000015531311    -0.000005677902
      12        0.000005675311    -0.000004030329     0.000003396140
      13        0.000001777946     0.000004285842    -0.000000712884
      14       -0.000002954152    -0.000001883255     0.000001362480
      15        0.000004731629     0.000000368924    -0.000001328112
      16       -0.000001585235     0.000001192789    -0.000001419228

  **** Optimization is complete! (in 7 steps) ****
    Final optimized geometry and variables:
    Molecular point group: c1

    Geometry (in Angstrom), charge = 0, multiplicity = 1:

    H            2.465072995162     1.515459398761     0.830315919095
    N            1.546551473124     1.135472222755     0.746044261669
    C            1.526804122787     0.057580506813    -0.235820836842
    H            0.944254030101     1.884989190669     0.480565349212
    C            0.218254456024    -0.735330669276    -0.201679961113
    H            2.335890739786    -0.606184044436     0.045026539339
    H            1.715009313316     0.409162627021    -1.249532247244
    C           -1.044596061951     0.123511733299    -0.123234752295
    H            0.153231738857    -1.310646364176    -1.121546048832
    H            0.230236749737    -1.428692516284     0.632160336160
    C           -2.321356678379    -0.706727002121    -0.208953337120
    H           -1.038689765458     0.851532169019    -0.932337004501
    H           -1.047217588292     0.684985691454     0.803256080446
    H           -2.373430782872    -1.254228788031    -1.144260323938
    H           -3.202967924952    -0.079320083233    -0.143533642783
    H           -2.370008285363    -1.429606697311     0.598638477375

  Mulliken Charges: (a.u.)
   Center  Symbol    Alpha    Beta     Spin     Total
       1     H     0.42923  0.42923  0.00000  0.14154
       2     N     3.69286  3.69286  0.00000 -0.38573
       3     C     3.03774  3.03774  0.00000 -0.07548
       4     H     0.42732  0.42732  0.00000  0.14537
       5     C     3.07373  3.07373  0.00000 -0.14745
       6     H     0.45380  0.45380  0.00000  0.09240
       7     H     0.46361  0.46361  0.00000  0.07277
       8     C     3.09465  3.09465  0.00000 -0.18930
       9     H     0.45787  0.45787  0.00000  0.08427
      10     H     0.45431  0.45431  0.00000  0.09138
      11     C     3.15049  3.15049  0.00000 -0.30097
      12     H     0.45673  0.45673  0.00000  0.08654
      13     H     0.44816  0.44816  0.00000  0.10367
      14     H     0.45622  0.45622  0.00000  0.08757
      15     H     0.44913  0.44913  0.00000  0.10174
      16     H     0.45416  0.45416  0.00000  0.09169

   Total alpha = 21.00000, Total beta = 21.00000, Total charge = -0.00000

*** Psi4 exiting successfully. Buy a developer a beer!
