  ==> Input File <==

--------------------------------------------------------------------------
set {
	reference rhf
	basis 6-31G*
}

set_num_threads( 1 )
memory 2 gb

molecule MOL {
0 1

O	 -1.985612	 0.172542	 -2.063205
C	 -2.225610	 -0.472536	 -1.093210
C	 -3.407683	 -1.399583	 -0.972568
O	 -1.481751	 -0.454642	 0.000584
H	 -3.350784	 -2.140366	 -1.761153
H	 -3.439325	 -1.889110	 -0.010383
H	 -4.315246	 -0.827763	 -1.124988
C	 -0.334255	 0.388708	 0.000906
C	 0.891947	 -0.504646	 0.000751
H	 -0.365390	 1.025305	 -0.873475
H	 -0.365484	 1.024911	 0.875569
C	 2.191998	 0.301789	 0.000897
H	 0.855148	 -1.151283	 -0.871571
H	 0.855132	 -1.151660	 0.872805
C	 3.441114	 -0.581407	 0.000108
H	 2.215074	 0.954890	 -0.869742
H	 2.215465	 0.953923	 0.872248
C	 4.739576	 0.224112	 -0.001102
H	 3.419457	 -1.233487	 -0.870178
H	 3.420834	 -1.233096	 0.870717
H	 4.804918	 0.861552	 -0.878265
H	 5.606527	 -0.429058	 -0.001824
H	 4.806469	 0.861674	 0.875853

	symmetry c1
}
set optking {
	frozen_dihedral = ("
		13 9 8 10,
		16 12 9 13,
		19 15 12 16,
		1 2 4 8
	")
}

ee = energy('scf')
oeprop('DIPOLE', 'QUADRUPOLE', 'MULLIKEN_CHARGES')
f=open( 'psi4out.xyz', 'w' )
f.write( "23  " )
f.write( str(ee) + "\n" )
f.write( MOL.save_string_xyz() )
f.close()
--------------------------------------------------------------------------

    Molecular point group: c1

    Geometry (in Angstrom), charge = 0, multiplicity = 1:

       Center              X                  Y                   Z               Mass
    ------------   -----------------  -----------------  -----------------  -----------------
           O         -2.174665193909     0.429597128197    -1.596799252301    15.994914619560
           C         -2.414663193909    -0.215480871803    -0.626804252301    12.000000000000
           C         -3.596736193909    -1.142527871803    -0.506162252301    12.000000000000
           O         -1.670804193909    -0.197586871803     0.466989747699    15.994914619560
           H         -3.539837193909    -1.883310871803    -1.294747252301     1.007825032070
           H         -3.628378193909    -1.632054871803     0.456022747699     1.007825032070
           H         -4.504299193909    -0.570707871803    -0.658582252301     1.007825032070
           C         -0.523308193909     0.645763128197     0.467311747699    12.000000000000
           C          0.702893806091    -0.247590871803     0.467156747699    12.000000000000
           H         -0.554443193909     1.282360128197    -0.407069252301     1.007825032070
           H         -0.554537193909     1.281966128197     1.341974747699     1.007825032070
           C          2.002944806091     0.558844128197     0.467302747699    12.000000000000
           H          0.666094806091    -0.894227871803    -0.405165252301     1.007825032070
           H          0.666078806091    -0.894604871803     1.339210747699     1.007825032070
           C          3.252060806091    -0.324351871803     0.466513747699    12.000000000000
           H          2.026020806091     1.211945128197    -0.403336252301     1.007825032070
           H          2.026411806091     1.210978128197     1.338653747699     1.007825032070
           C          4.550522806091     0.481167128197     0.465303747699    12.000000000000
           H          3.230403806091    -0.976431871803    -0.403772252301     1.007825032070
           H          3.231780806091    -0.976040871803     1.337122747699     1.007825032070
           H          4.615864806091     1.118607128197    -0.411859252301     1.007825032070
           H          5.417473806091    -0.172002871803     0.464581747699     1.007825032070
           H          4.617415806091     1.118729128197     1.342258747699     1.007825032070

  Charge       = 0
  Multiplicity = 1
  Basis Set: 6-31G*
  Basis Set:

    Orbital Energies (a.u.)
    -----------------------

    Doubly Occupied:

       1A    -20.603177     2A    -20.540416     3A    -11.376093
       4A    -11.277538     5A    -11.233286     6A    -11.221641
       7A    -11.221010     8A    -11.219724     9A    -11.211382
      10A     -1.469074    11A     -1.361583    12A     -1.091737
      13A     -1.041347    14A     -1.002715    15A     -0.930120
      16A     -0.845435    17A     -0.799588    18A     -0.771909
      19A     -0.700325    20A     -0.680877    21A     -0.658310
      22A     -0.647992    23A     -0.603790    24A     -0.587300
      25A     -0.585413    26A     -0.572344    27A     -0.549735
      28A     -0.539631    29A     -0.521926    30A     -0.509810
      31A     -0.486352    32A     -0.478109    33A     -0.473369
      34A     -0.468847    35A     -0.439955    36A     -0.434270

  @DF-RHF Final Energy:  -422.97675767642409

   => Energetics <=

    Nuclear Repulsion Energy =            454.6170195184446357
    One-Electron Energy =               -1476.8753084790171215
    Two-Electron Energy =                 599.2815312841486275
    DFT Exchange-Correlation Energy =       0.0000000000000000
    Empirical Dispersion Energy =           0.0000000000000000
    PCM Polarization Energy =               0.0000000000000000
    EFP Energy =                            0.0000000000000000
    Total Energy =                       -422.9767576764238584

  Mulliken Charges: (a.u.)
   Center  Symbol    Alpha    Beta     Spin     Total
       1     O     4.28497  4.28497  0.00000 -0.56995
       2     C     2.61505  2.61505  0.00000  0.76991
       3     C     3.28869  3.28869  0.00000 -0.57738
       4     O     4.31062  4.31062  0.00000 -0.62125
       5     H     0.39745  0.39745  0.00000  0.20510
       6     H     0.39945  0.39945  0.00000  0.20111
       7     H     0.39704  0.39704  0.00000  0.20592
       8     C     3.01315  3.01315  0.00000 -0.02630
       9     C     3.16148  3.16148  0.00000 -0.32295
      10     H     0.39122  0.39122  0.00000  0.21756
      11     H     0.41305  0.41305  0.00000  0.17391
      12     C     3.16142  3.16142  0.00000 -0.32285
      13     H     0.41472  0.41472  0.00000  0.17057
      14     H     0.41530  0.41530  0.00000  0.16940
      15     C     3.15135  3.15135  0.00000 -0.30270
      16     H     0.41907  0.41907  0.00000  0.16186
      17     H     0.42279  0.42279  0.00000  0.15442
      18     C     3.23981  3.23981  0.00000 -0.47961
      19     H     0.42091  0.42091  0.00000  0.15818
      20     H     0.42202  0.42202  0.00000  0.15597
      21     H     0.42059  0.42059  0.00000  0.15882
      22     H     0.41831  0.41831  0.00000  0.16339
      23     H     0.42155  0.42155  0.00000  0.15689

   Total alpha = 36.00000, Total beta = 36.00000, Total charge = -0.00000
