                              Psi4 1.0.54 Driver

  ==> Input File <==

--------------------------------------------------------------------------
set {
	reference rhf
	basis cc-pvtz
}

set_num_threads( 4 )
memory 2 gb

molecule MOL {
0 1

H	 -0.801147	 1.580879	 -0.418388
O	 0.057669	 1.301365	 -0.158528
C	 0.004145	 -0.005141	 0.363049
C	 1.199168	 -0.827145	 -0.096690
C	 -1.316386	 -0.602081	 -0.083515
H	 0.012026	 0.043363	 1.450619
H	 1.216685	 -0.896776	 -1.178167
H	 2.129940	 -0.372354	 0.228035
H	 1.160783	 -1.829622	 0.314294
H	 -1.357882	 -0.655920	 -1.165207
H	 -2.140147	 0.011735	 0.257253
H	 -1.440790	 -1.601175	 0.317669

	symmetry c1
}
set optking {
	frozen_dihedral = ("
		1 2 3 4
	")
}

ee,wfn = optimize('scf', return_wfn=True)
oeprop( wfn, 'DIPOLE', 'QUADRUPOLE', 'MULLIKEN_CHARGES')
f=open( 'psi4out.xyz', 'w' )
f.write( "12  " )
f.write( str(ee) + "\n" )
f.write( MOL.save_string_xyz() )
f.close()
--------------------------------------------------------------------------

    Molecular point group: c1
  Charge       = 0
  Multiplicity = 1
  Basis Set: CC-PVTZ
  Basis Set:
  @DF-RHF Final Energy:  -193.19262303283489
    Total Energy =                       -193.1926230328349163
    Molecular point group: c1
  Basis Set: CC-PVTZ
  Basis Set:
  Basis Set: CC-PVTZ
  Basis Set:
  @DF-RHF Final Energy:  -193.14481633658858
    Total Energy =                       -193.1448163365884056
  Basis Set: CC-PVTZ
  Basis Set:
  Basis Set: CC-PVTZ
  Basis Set:
  @DF-RHF Final Energy:  -193.19098155680379
    Total Energy =                       -193.1909815568037629
  Basis Set: CC-PVTZ
  Basis Set:
  Basis Set: CC-PVTZ
  Basis Set:
  @DF-RHF Final Energy:  -193.19428469533855
    Total Energy =                       -193.1942846953386379
  Basis Set: CC-PVTZ
  Basis Set:
  Basis Set: CC-PVTZ
  Basis Set:
  @DF-RHF Final Energy:  -193.19439047856605
    Total Energy =                       -193.1943904785658788
  Basis Set: CC-PVTZ
  Basis Set:
  Basis Set: CC-PVTZ
  Basis Set:
  @DF-RHF Final Energy:  -193.19440255498697
    Total Energy =                       -193.1944025549867661
  Basis Set: CC-PVTZ
  Basis Set:
  Charge       = 0
  Multiplicity = 1
  Basis Set: CC-PVTZ
  Basis Set:

    Orbital Energies (a.u.)
    -----------------------

    Doubly Occupied:

       1A    -20.542548     2A    -11.274065     3A    -11.217198
       4A    -11.204837     5A     -1.363248     6A     -1.044281
       7A     -0.943447     8A     -0.810738     9A     -0.681621
      10A     -0.644877    11A     -0.608591    12A     -0.549524
      13A     -0.542827    14A     -0.522897    15A     -0.515268
      16A     -0.469119    17A     -0.431453

  @DF-RHF Final Energy:  -193.19440265043377

   => Energetics <=

    Nuclear Repulsion Energy =            135.7535453313604137
    One-Electron Energy =                -531.1628205422272231
    Two-Electron Energy =                 202.2148725604330366
    DFT Exchange-Correlation Energy =       0.0000000000000000
    Empirical Dispersion Energy =           0.0000000000000000
    PCM Polarization Energy =               0.0000000000000000
    EFP Energy =                            0.0000000000000000
    Total Energy =                       -193.1944026504337444
    Molecular point group: c1
  Basis Set: CC-PVTZ
  Basis Set:

  -Total Gradient:
     Atom            X                  Y                   Z
    ------   -----------------  -----------------  -----------------
       1        0.000105185628     0.000057109439    -0.001666774365
       2       -0.000352204795    -0.000065439118     0.001778533304
       3        0.000854087976     0.000138702871     0.000723602256
       4       -0.000625143121    -0.000097913681    -0.000814794985
       5        0.000006172750    -0.000017002229    -0.000020175878
       6        0.000006797261    -0.000017719414    -0.000007155019
       7       -0.000000231562     0.000000173124     0.000001663278
       8       -0.000015315200    -0.000004399442     0.000008798963
       9        0.000004535477    -0.000001099499    -0.000006301486
      10       -0.000001633382     0.000001836319     0.000002721976
      11        0.000018150780     0.000000853093    -0.000001286930
      12       -0.000000401813     0.000004898535     0.000001168885

  **** Optimization is complete! (in 7 steps) ****
    Final optimized geometry and variables:
    Molecular point group: c1

    Geometry (in Angstrom), charge = 0, multiplicity = 1:

    H           -1.040683016475     1.472415730219     0.307397325325
    O           -0.126110999661     1.268037390372     0.357454327554
    C            0.074864649075    -0.127366679040     0.334792712382
    C            1.290521333598    -0.408522069250    -0.529565434656
    C           -1.163605451305    -0.857267093934    -0.161259916053
    H            0.284177622525    -0.455547645626     1.349983436647
    H            1.099901658601    -0.118584169211    -1.556513783193
    H            2.141565811184     0.156810279635    -0.171566499139
    H            1.544885198731    -1.462386499792    -0.506639925387
    H           -1.406614623461    -0.553529973736    -1.174328914707
    H           -2.017793765110    -0.646748875887     0.474936754693
    H           -1.006532023594    -1.929034479812    -0.157108340369

  Mulliken Charges: (a.u.)
   Center  Symbol    Alpha    Beta     Spin     Total
       1     H     0.39199  0.39199  0.00000  0.21603
       2     O     4.20983  4.20983  0.00000 -0.41967
       3     C     2.91910  2.91910  0.00000  0.16179
       4     C     3.13796  3.13796  0.00000 -0.27593
       5     C     3.15741  3.15741  0.00000 -0.31482
       6     H     0.46432  0.46432  0.00000  0.07136
       7     H     0.45693  0.45693  0.00000  0.08614
       8     H     0.44635  0.44635  0.00000  0.10731
       9     H     0.45993  0.45993  0.00000  0.08014
      10     H     0.45149  0.45149  0.00000  0.09702
      11     H     0.45286  0.45286  0.00000  0.09429
      12     H     0.45183  0.45183  0.00000  0.09634

   Total alpha = 17.00000, Total beta = 17.00000, Total charge =  0.00000

*** Psi4 exiting successfully. Buy a developer a beer!
