                              Psi4 1.0.54 Driver

  ==> Input File <==

--------------------------------------------------------------------------
set {
	reference rhf
	basis cc-pvtz
}

set_num_threads( 4 )
memory 2 gb

molecule MOL {
0 1

H	 -1.106518	 -2.003079	 -1.120962
C	 -1.024878	 -1.044518	 -1.623097
O	 -0.775228	 0.000056	 -0.739966
H	 -1.972485	 -0.831710	 -2.097339
H	 -0.269576	 -1.123009	 -2.398333
C	 0.406133	 -0.000384	 0.036994
C	 1.526415	 -0.003194	 -0.997339
C	 0.498772	 1.259027	 0.900673
C	 0.495883	 -1.257378	 0.904465
H	 1.452279	 0.872071	 -1.630204
H	 1.451276	 -0.881020	 -1.626529
H	 2.497919	 -0.002741	 -0.517601
H	 0.368981	 2.144239	 0.289753
H	 1.470064	 1.313479	 1.377660
H	 -0.248448	 1.271586	 1.684297
H	 0.363971	 -2.144195	 0.296316
H	 1.467114	 -1.312636	 1.381470
H	 -0.251246	 -1.265768	 1.688235

	symmetry c1
}
set optking {
	frozen_dihedral = ("
		2 3 6 7
	")
}

ee,wfn = optimize('scf', return_wfn=True)
oeprop( wfn, 'DIPOLE', 'QUADRUPOLE', 'MULLIKEN_CHARGES')
f=open( 'psi4out.xyz', 'w' )
f.write( "18  " )
f.write( str(ee) + "\n" )
f.write( MOL.save_string_xyz() )
f.close()
--------------------------------------------------------------------------

    Molecular point group: c1
  Charge       = 0
  Multiplicity = 1
  Basis Set: CC-PVTZ
  Basis Set:
  @DF-RHF Final Energy:  -271.26838705633565
    Total Energy =                       -271.2683870563353707
    Molecular point group: c1
  Basis Set: CC-PVTZ
  Basis Set:
  Basis Set: CC-PVTZ
  Basis Set:
  @DF-RHF Final Energy:  -271.21109544343733
    Total Energy =                       -271.2110954434374435
  Basis Set: CC-PVTZ
  Basis Set:
  Basis Set: CC-PVTZ
  Basis Set:
  @DF-RHF Final Energy:  -271.27106012470614
    Total Energy =                       -271.2710601247061959
  Basis Set: CC-PVTZ
  Basis Set:
  Basis Set: CC-PVTZ
  Basis Set:
  @DF-RHF Final Energy:  -271.27628429582222
    Total Energy =                       -271.2762842958225633
  Basis Set: CC-PVTZ
  Basis Set:
  Basis Set: CC-PVTZ
  Basis Set:
  @DF-RHF Final Energy:  -271.27665059533513
    Total Energy =                       -271.2766505953348997
  Basis Set: CC-PVTZ
  Basis Set:
  Basis Set: CC-PVTZ
  Basis Set:
  @DF-RHF Final Energy:  -271.27671915090031
    Total Energy =                       -271.2767191509001350
  Basis Set: CC-PVTZ
  Basis Set:
  Basis Set: CC-PVTZ
  Basis Set:
  @DF-RHF Final Energy:  -271.27675396479435
    Total Energy =                       -271.2767539647941248
  Basis Set: CC-PVTZ
  Basis Set:
  Charge       = 0
  Multiplicity = 1
  Basis Set: CC-PVTZ
  Basis Set:

    Orbital Energies (a.u.)
    -----------------------

    Doubly Occupied:

       1A    -20.540671     2A    -11.280078     3A    -11.258063
       4A    -11.207243     5A    -11.206791     6A    -11.201762
       7A     -1.373721     8A     -1.074739     9A     -0.946758
      10A     -0.940826    11A     -0.913235    12A     -0.753525
      13A     -0.656686    14A     -0.646697    15A     -0.639447
      16A     -0.593882    17A     -0.576000    18A     -0.553366
      19A     -0.534357    20A     -0.524912    21A     -0.515064
      22A     -0.488304    23A     -0.487961    24A     -0.440763
      25A     -0.407702

  @DF-RHF Final Energy:  -271.27675436844112

   => Energetics <=

    Nuclear Repulsion Energy =            272.6781224377104422
    One-Electron Energy =                -908.3846478691722268
    Two-Electron Energy =                 364.4297710630206666
    DFT Exchange-Correlation Energy =       0.0000000000000000
    Empirical Dispersion Energy =           0.0000000000000000
    PCM Polarization Energy =               0.0000000000000000
    EFP Energy =                            0.0000000000000000
    Total Energy =                       -271.2767543684411748
    Molecular point group: c1
  Basis Set: CC-PVTZ
  Basis Set:

  -Total Gradient:
     Atom            X                  Y                   Z
    ------   -----------------  -----------------  -----------------
       1        0.000007737476     0.000020657976    -0.000005507537
       2       -0.000002906353     0.000046731528    -0.000028046583
       3        0.000031282560    -0.000084656625    -0.000087053672
       4        0.000019897141    -0.000007740017     0.000016748930
       5       -0.000004082664     0.000007301479     0.000010910471
       6       -0.000230702170     0.000086901985    -0.000100687155
       7       -0.000036896559    -0.000014858513     0.000100898579
       8        0.000135481875    -0.000026456304     0.000058328481
       9        0.000099822471    -0.000038052476     0.000087231122
      10       -0.000020422712    -0.000010929435     0.000009652796
      11       -0.000031699252    -0.000007170557     0.000026987397
      12       -0.000010035357     0.000009832189    -0.000003243032
      13       -0.000027556671    -0.000040827717     0.000013286932
      14       -0.000008085209     0.000039980738    -0.000024206134
      15        0.000054538584    -0.000052454581    -0.000043051203
      16       -0.000002565444     0.000074156410     0.000065004751
      17       -0.000067142925    -0.000021113945    -0.000066039484
      18        0.000093335206     0.000018697862    -0.000031214660

  **** Optimization is complete! (in 8 steps) ****
    Final optimized geometry and variables:
    Molecular point group: c1

    Geometry (in Angstrom), charge = 0, multiplicity = 1:

    H           -1.315405262103    -1.305477567449    -1.507161669944
    C           -1.019477224303    -0.283574713067    -1.721060019535
    O           -0.785949963910     0.457091693117    -0.567698760623
    H           -1.833549828603     0.199911520919    -2.242188269909
    H           -0.159445635239    -0.303447774901    -2.382495510048
    C            0.212776666215     0.045766495606     0.344625016757
    C            1.589600359331     0.007325305409    -0.320817916894
    C            0.189743298087     1.120595569372     1.425780552722
    C           -0.128109253411    -1.314335002566     0.956683443886
    H            1.796953668268     0.950412576726    -0.812084410484
    H            1.664994751579    -0.784983222778    -1.055091167060
    H            2.358005022841    -0.165292698665     0.423124631096
    H            0.406603018104     2.089312963022     0.993888883663
    H            0.922618927624     0.912548707352     2.196124082648
    H           -0.790052669554     1.167761891605     1.883695193987
    H           -0.073923813645    -2.113768106714     0.228540618491
    H            0.568866157171    -1.551848830047     1.751354871545
    H           -1.127787880287    -1.298363543466     1.373393140679

  Mulliken Charges: (a.u.)
   Center  Symbol    Alpha    Beta     Spin     Total
       1     H     0.47004  0.47004  0.00000  0.05992
       2     C     3.04427  3.04427  0.00000 -0.08853
       3     O     4.18982  4.18982  0.00000 -0.37964
       4     H     0.44025  0.44025  0.00000  0.11951
       5     H     0.46949  0.46949  0.00000  0.06103
       6     C     2.87274  2.87274  0.00000  0.25452
       7     C     3.16548  3.16548  0.00000 -0.33096
       8     C     3.14156  3.14156  0.00000 -0.28313
       9     C     3.16351  3.16351  0.00000 -0.32702
      10     H     0.44498  0.44498  0.00000  0.11004
      11     H     0.44935  0.44935  0.00000  0.10130
      12     H     0.44805  0.44805  0.00000  0.10389
      13     H     0.44891  0.44891  0.00000  0.10218
      14     H     0.45936  0.45936  0.00000  0.08129
      15     H     0.44873  0.44873  0.00000  0.10254
      16     H     0.44947  0.44947  0.00000  0.10107
      17     H     0.44870  0.44870  0.00000  0.10260
      18     H     0.44529  0.44529  0.00000  0.10941

   Total alpha = 25.00000, Total beta = 25.00000, Total charge =  0.00000

*** Psi4 exiting successfully. Buy a developer a beer!
