  ==> Input File <==

--------------------------------------------------------------------------
set {
	reference rhf
	basis 6-31G*
}

set_num_threads( 4 )
memory 2 gb

molecule MOL {
0 1

H	 -1.967604	 0.121897	 -2.380284
O	 -2.117472	 0.007597	 -1.452457
C	 -1.081918	 0.616390	 -0.728589
C	 0.193962	 -0.204142	 -0.795851
H	 -0.886369	 1.625703	 -1.079881
H	 -1.413817	 0.683892	 0.297928
O	 1.171513	 0.459272	 -0.058250
H	 0.510160	 -0.320564	 -1.834333
H	 0.009150	 -1.200174	 -0.397920
C	 2.397842	 -0.198080	 -0.002151
H	 2.508049	 -0.905315	 -0.822092
H	 3.173794	 0.550865	 -0.078850
H	 2.517602	 -0.735921	 0.936026

	symmetry c1
}
set optking {
	frozen_dihedral = ("
		4 7 10 13
	")
}

ee = optimize('scf')
oeprop('DIPOLE', 'QUADRUPOLE', 'MULLIKEN_CHARGES')
f=open( 'psi4out.xyz', 'w' )
f.write( "13  " )
f.write( str(ee) + "\n" )
f.write( MOL.save_string_xyz() )
f.close()
--------------------------------------------------------------------------

    Molecular point group: c1
  Charge       = 0
  Multiplicity = 1
  Basis Set: 6-31G*
  Basis Set:
  @DF-RHF Final Energy:  -267.94756443311280
    Total Energy =                       -267.9475644331125181
    Molecular point group: c1
  Basis Set: 6-31G*
  Basis Set:
  Basis Set: 6-31G*
  Basis Set:
  @DF-RHF Final Energy:  -267.94773742539661
    Total Energy =                       -267.9477374253965536
  Basis Set: 6-31G*
  Basis Set:
  Basis Set: 6-31G*
  Basis Set:
  @DF-RHF Final Energy:  -267.94777665600589
    Total Energy =                       -267.9477766560058285
  Basis Set: 6-31G*
  Basis Set:
  Charge       = 0
  Multiplicity = 1
  Basis Set: 6-31G*
  Basis Set:

    Orbital Energies (a.u.)
    -----------------------

    Doubly Occupied:

       1A    -20.559891     2A    -20.559573     3A    -11.271187
       4A    -11.269875     5A    -11.268525     6A     -1.385206
       7A     -1.364474     8A     -1.018347     9A     -0.913572
      10A     -0.841518    11A     -0.708612    12A     -0.671887
      13A     -0.659347    14A     -0.635391    15A     -0.596858
      16A     -0.568031    17A     -0.548576    18A     -0.489081
      19A     -0.481804    20A     -0.438017    21A     -0.417606

  @DF-RHF Final Energy:  -267.94777708604539

   => Energetics <=

    Nuclear Repulsion Energy =            189.9660869893817789
    One-Electron Energy =                -742.4929693608987691
    Two-Electron Energy =                 284.5791052854714280
    DFT Exchange-Correlation Energy =       0.0000000000000000
    Empirical Dispersion Energy =           0.0000000000000000
    PCM Polarization Energy =               0.0000000000000000
    EFP Energy =                            0.0000000000000000
    Total Energy =                       -267.9477770860455621
    Molecular point group: c1
  Basis Set: 6-31G*
  Basis Set:

  -Total Gradient:
     Atom            X                  Y                   Z
    ------   -----------------  -----------------  -----------------
       1       -0.000020007113    -0.000008083609    -0.000011952263
       2       -0.000063084747     0.000007735459    -0.000055424314
       3        0.000006023694    -0.000038856685    -0.000002483428
       4        0.000612701673     0.001067269523    -0.001742675323
       5       -0.000005327289     0.000004590276     0.000007758764
       6        0.000029087244     0.000001087134    -0.000002130131
       7       -0.000519900911    -0.000944684851     0.002895519991
       8        0.000011137349     0.000015154750     0.000016233170
       9       -0.000002926892     0.000012884849    -0.000011926880
      10       -0.001138850436    -0.002352901756    -0.002192987469
      11       -0.000005576126     0.000002844630    -0.000006763556
      12        0.000013073548     0.000000980344    -0.000001044290
      13        0.001083650003     0.002231979934     0.001107875731

  **** Optimization is complete! (in 4 steps) ****
    Final optimized geometry and variables:
    Molecular point group: c1

    Geometry (in Angstrom), charge = 0, multiplicity = 1:

    H           -2.076312160660     0.008465400684    -1.747201299124
    O           -2.223352393840    -0.108498825702    -0.819269846620
    C           -1.179819276010     0.488771528306    -0.096636330170
    C            0.088000243000    -0.343658245158    -0.168341847241
    H           -0.974682099507     1.496408232509    -0.447130875842
    H           -1.508347602943     0.558523003183     0.930765161016
    O            1.073669349698     0.316583193320     0.563433586091
    H            0.398504751925    -0.462786029176    -1.207473938293
    H           -0.107619876015    -1.336762513080     0.230944500199
    C            2.313701810433    -0.323561672770     0.629682791632
    H            2.452874864543    -1.024797499518    -0.187524083601
    H            3.088183965239     0.431486941910     0.571190709687
    H            2.424953470050    -0.848233049594     1.574261574678

  Mulliken Charges: (a.u.)
   Center  Symbol    Alpha    Beta     Spin     Total
       1     H     0.28131  0.28131  0.00000  0.43739
       2     O     4.37093  4.37093  0.00000 -0.74186
       3     C     3.00494  3.00494  0.00000 -0.00987
       4     C     2.99642  2.99642  0.00000  0.00716
       5     H     0.42234  0.42234  0.00000  0.15532
       6     H     0.40846  0.40846  0.00000  0.18308
       7     O     4.31111  4.31111  0.00000 -0.62222
       8     H     0.43712  0.43712  0.00000  0.12576
       9     H     0.42343  0.42343  0.00000  0.15315
      10     C     3.07740  3.07740  0.00000 -0.15480
      11     H     0.42861  0.42861  0.00000  0.14279
      12     H     0.41545  0.41545  0.00000  0.16910
      13     H     0.42249  0.42249  0.00000  0.15501

   Total alpha = 21.00000, Total beta = 21.00000, Total charge = -0.00000
