                              Psi4 1.0.54 Driver

  ==> Input File <==

--------------------------------------------------------------------------
set {
	reference rhf
	basis cc-pvtz
}

set_num_threads( 4 )
memory 2 gb

molecule MOL {
0 1

H	 2.614283	 2.028610	 0.296620
O	 3.358864	 1.662087	 -0.142800
C	 3.565468	 0.338079	 0.273842
C	 2.533667	 -0.637565	 -0.272227
H	 4.548038	 0.064914	 -0.086598
H	 3.593945	 0.282242	 1.360360
C	 1.312851	 0.028476	 -0.902979
H	 3.017795	 -1.279803	 -1.001821
H	 2.211858	 -1.276523	 0.546657
C	 0.284381	 -0.981518	 -1.409929
H	 1.633542	 0.660738	 -1.724200
H	 0.840530	 0.681565	 -0.171082
C	 -0.993811	 -0.368887	 -1.985397
H	 0.747830	 -1.616275	 -2.161278
H	 0.010740	 -1.637326	 -0.588038
C	 -0.807238	 0.416895	 -3.282116
H	 -1.704390	 -1.170600	 -2.166671
H	 -1.450997	 0.275022	 -1.237388
C	 -2.122740	 0.922985	 -3.868408
H	 -0.309054	 -0.214537	 -4.014628
H	 -0.149940	 1.264667	 -3.114054
C	 -1.939741	 1.711162	 -5.161150
H	 -2.781912	 0.078951	 -4.051920
H	 -2.625767	 1.547168	 -3.134636
H	 -1.467772	 1.103757	 -5.926357
H	 -2.891646	 2.052872	 -5.551300
H	 -1.315208	 2.584200	 -5.002672

	symmetry c1
}
set optking {
	frozen_dihedral = ("
		8 4 3 2
	")
}

ee,wfn = optimize('scf', return_wfn=True)
oeprop( wfn, 'DIPOLE', 'QUADRUPOLE', 'MULLIKEN_CHARGES')
f=open( 'psi4out.xyz', 'w' )
f.write( "27  " )
f.write( str(ee) + "\n" )
f.write( MOL.save_string_xyz() )
f.close()
--------------------------------------------------------------------------

    Molecular point group: c1
  Charge       = 0
  Multiplicity = 1
  Basis Set: CC-PVTZ
  Basis Set:
  @DF-RHF Final Energy:  -388.41907988058125
    Total Energy =                       -388.4190798805805116
    Molecular point group: c1
  Basis Set: CC-PVTZ
  Basis Set:
  Basis Set: CC-PVTZ
  Basis Set:
  @DF-RHF Final Energy:  -388.41966010990819
    Total Energy =                       -388.4196601099080226
  Basis Set: CC-PVTZ
  Basis Set:
  Basis Set: CC-PVTZ
  Basis Set:
  @DF-RHF Final Energy:  -388.42021700922845
    Total Energy =                       -388.4202170092279403
  Basis Set: CC-PVTZ
  Basis Set:
  Basis Set: CC-PVTZ
  Basis Set:
  @DF-RHF Final Energy:  -388.42023401475433
    Total Energy =                       -388.4202340147542145
  Basis Set: CC-PVTZ
  Basis Set:
  Basis Set: CC-PVTZ
  Basis Set:
  @DF-RHF Final Energy:  -388.42023822718511
    Total Energy =                       -388.4202382271852230
  Basis Set: CC-PVTZ
  Basis Set:
  Basis Set: CC-PVTZ
  Basis Set:
  @DF-RHF Final Energy:  -388.42024046442856
    Total Energy =                       -388.4202404644287299
  Basis Set: CC-PVTZ
  Basis Set:
  Charge       = 0
  Multiplicity = 1
  Basis Set: CC-PVTZ
  Basis Set:

    Orbital Energies (a.u.)
    -----------------------

    Doubly Occupied:

       1A    -20.545283     2A    -11.265841     3A    -11.214219
       4A    -11.213617     5A    -11.212697     6A    -11.211987
       7A    -11.211423     8A    -11.209370     9A    -11.205358
      10A     -1.363178    11A     -1.093698    12A     -1.059034
      13A     -1.008727    14A     -0.947654    15A     -0.888778
      16A     -0.819726    17A     -0.799485    18A     -0.775714
      19A     -0.693441    20A     -0.647410    21A     -0.637694
      22A     -0.616555    23A     -0.603333    24A     -0.586065
      25A     -0.574862    26A     -0.556524    27A     -0.542506
      28A     -0.526656    29A     -0.502057    30A     -0.496965
      31A     -0.481289    32A     -0.471409    33A     -0.465686
      34A     -0.459168    35A     -0.444464    36A     -0.443684
      37A     -0.424383

  @DF-RHF Final Energy:  -388.42024023433021

   => Energetics <=

    Nuclear Repulsion Energy =            461.2796428395948851
    One-Electron Energy =               -1440.9598956670802181
    Two-Electron Energy =                 591.2600125931548973
    DFT Exchange-Correlation Energy =       0.0000000000000000
    Empirical Dispersion Energy =           0.0000000000000000
    PCM Polarization Energy =               0.0000000000000000
    EFP Energy =                            0.0000000000000000
    Total Energy =                       -388.4202402343304357
    Molecular point group: c1
  Basis Set: CC-PVTZ
  Basis Set:

  -Total Gradient:
     Atom            X                  Y                   Z
    ------   -----------------  -----------------  -----------------
       1       -0.000060015713     0.000135138855    -0.000018712882
       2       -0.001810882788     0.000637292845     0.002333576953
       3        0.002671743438    -0.001370182318    -0.002680227551
       4       -0.001570419472     0.003070435213    -0.002371182557
       5        0.000018095851    -0.000124147933     0.000035456982
       6       -0.000015389203    -0.000042999109     0.000009836715
       7       -0.000004317632     0.000013678628    -0.000027366266
       8        0.000779144959    -0.002307692100     0.002684314659
       9       -0.000009585683    -0.000019584748     0.000014996271
      10       -0.000018391404    -0.000005662764     0.000030046541
      11       -0.000021174750     0.000027333662    -0.000038484853
      12        0.000000436194    -0.000001095878     0.000000194024
      13       -0.000000121744    -0.000015082949    -0.000003070286
      14       -0.000006124088    -0.000007315333     0.000005654866
      15        0.000005410279     0.000004833728     0.000012154083
      16        0.000008554973    -0.000013839319     0.000002191110
      17        0.000015921139    -0.000003250283    -0.000007660363
      18       -0.000012531530    -0.000010558189    -0.000000428688
      19        0.000005330120     0.000016568154     0.000002384209
      20       -0.000010041956    -0.000002103438     0.000003442489
      21        0.000034679279     0.000011350604     0.000010593832
      22       -0.000003256954     0.000006313698     0.000003311873
      23        0.000007442140    -0.000001770296     0.000000550257
      24       -0.000004355984     0.000001554648    -0.000000112276
      25        0.000000125352    -0.000001982070     0.000001438536
      26        0.000000889441     0.000001726085    -0.000001376235
      27       -0.000001164263     0.000001040605    -0.000001521442

  **** Optimization is complete! (in 7 steps) ****
    Final optimized geometry and variables:
    Molecular point group: c1

    Geometry (in Angstrom), charge = 0, multiplicity = 1:

    H            2.062358577426     1.731307623306     2.079177750414
    O            2.827733624519     1.348259953210     1.693314103758
    C            2.970964105054     0.018191717999     2.117211986778
    C            1.910447572013    -0.963670004695     1.568796191691
    H            3.956422237443    -0.286752966873     1.796525116673
    H            2.968069838115    -0.015411564235     3.203066858619
    C            0.678368078435    -0.322835118468     0.934891110459
    H            2.377129516704    -1.636292229294     0.856253277612
    H            1.587784430606    -1.601709792493     2.386896718762
    C           -0.320436351426    -1.365078864176     0.434249408477
    H            0.988307456792     0.321624301356     0.123335738474
    H            0.178792380871     0.314658894776     1.662839886574
    C           -1.614020863045    -0.788752120607    -0.144478526788
    H            0.160171578380    -1.988878567182    -0.315668263573
    H           -0.577051707301    -2.026622151445     1.257136835202
    C           -1.445107858031     0.001920888519    -1.440565683856
    H           -2.301940423378    -1.609651863051    -0.327474070288
    H           -2.090938553677    -0.157604410061     0.602178104396
    C           -2.771222384236     0.481331691524    -2.025147581647
    H           -0.935347788420    -0.619182223066    -2.173922200506
    H           -0.804341743224     0.861924309475    -1.272693744971
    C           -2.605686188556     1.273096327314    -3.318011949758
    H           -3.413929984656    -0.375565364660    -2.207809801000
    H           -3.285589353783     1.095537059095    -1.290816548129
    H           -2.123910105258     0.674748421633    -4.084223673902
    H           -3.564577659652     1.596976869050    -3.706299361541
    H           -1.997106853873     2.157371221345    -3.160480725511

  Mulliken Charges: (a.u.)
   Center  Symbol    Alpha    Beta     Spin     Total
       1     H     0.39131  0.39131  0.00000  0.21737
       2     O     4.20284  4.20284  0.00000 -0.40569
       3     C     2.97367  2.97367  0.00000  0.05266
       4     C     3.10989  3.10989  0.00000 -0.21978
       5     H     0.45312  0.45312  0.00000  0.09376
       6     H     0.46660  0.46660  0.00000  0.06681
       7     C     3.09519  3.09519  0.00000 -0.19039
       8     H     0.45160  0.45160  0.00000  0.09679
       9     H     0.45351  0.45351  0.00000  0.09298
      10     C     3.10053  3.10053  0.00000 -0.20106
      11     H     0.43832  0.43832  0.00000  0.12337
      12     H     0.46330  0.46330  0.00000  0.07340
      13     C     3.09783  3.09783  0.00000 -0.19565
      14     H     0.45259  0.45259  0.00000  0.09482
      15     H     0.44881  0.44881  0.00000  0.10238
      16     C     3.08840  3.08840  0.00000 -0.17681
      17     H     0.44843  0.44843  0.00000  0.10313
      18     H     0.45466  0.45466  0.00000  0.09069
      19     C     3.08410  3.08410  0.00000 -0.16820
      20     H     0.45488  0.45488  0.00000  0.09024
      21     H     0.45246  0.45246  0.00000  0.09508
      22     C     3.14963  3.14963  0.00000 -0.29926
      23     H     0.45428  0.45428  0.00000  0.09143
      24     H     0.45509  0.45509  0.00000  0.08981
      25     H     0.45515  0.45515  0.00000  0.08970
      26     H     0.44873  0.44873  0.00000  0.10254
      27     H     0.45506  0.45506  0.00000  0.08988

   Total alpha = 37.00000, Total beta = 37.00000, Total charge =  0.00000

*** Psi4 exiting successfully. Buy a developer a beer!
