  ==> Input File <==

--------------------------------------------------------------------------
set {
	reference rhf
	basis 6-31G*
}

set_num_threads( 1 )
memory 2 gb

molecule MOL {
0 1

O	 -0.750612	 -1.332194	 0.095278
C	 0.405764	 -1.268246	 0.363170
C	 1.245376	 -0.013843	 0.345420
O	 1.126917	 -2.323021	 0.722362
C	 0.455112	 1.231400	 -0.050772
H	 1.692330	 0.083916	 1.329221
H	 2.071170	 -0.187526	 -0.339851
C	 -0.998893	 1.219485	 0.433193
H	 0.482531	 1.345121	 -1.130325
H	 0.957290	 2.103070	 0.354729
C	 -1.883438	 0.145884	 -0.207175
H	 -1.431207	 2.195402	 0.224832
H	 -1.019646	 1.105716	 1.516076
C	 -3.347647	 0.245583	 0.225435
H	 -1.822183	 0.231698	 -1.291012
H	 -1.510341	 -0.844814	 0.042401
C	 -4.239992	 -0.825570	 -0.404234
H	 -3.732888	 1.230466	 -0.033079
H	 -3.408585	 0.170602	 1.310038
C	 -5.701275	 -0.716658	 0.029921
H	 -4.179496	 -0.752714	 -1.488058
H	 -3.859041	 -1.810759	 -0.143352
H	 -6.308102	 -1.488908	 -0.432678
H	 -6.122175	 0.245478	 -0.248167
H	 -5.799072	 -0.820114	 1.106957
C	 0.458110	 -3.569806	 0.778128
H	 -0.348738	 -3.536532	 1.496037
H	 1.201106	 -4.289896	 1.083796
H	 0.059933	 -3.831322	 -0.191718

	symmetry c1
}
set optking {
	frozen_dihedral = ("
		21 17 14 11,
		17 14 11 15,
		15 11 8 5,
		11 8 5 9,
		2 4 26 27,
		1 2 4 26,
		6 3 2 1
	")
}

ee = energy('scf')
oeprop('DIPOLE', 'QUADRUPOLE', 'MULLIKEN_CHARGES')
f=open( 'psi4out.xyz', 'w' )
f.write( "29  " )
f.write( str(ee) + "\n" )
f.write( MOL.save_string_xyz() )
f.close()
--------------------------------------------------------------------------

    Molecular point group: c1

    Geometry (in Angstrom), charge = 0, multiplicity = 1:

       Center              X                  Y                   Z               Mass
    ------------   -----------------  -----------------  -----------------  -----------------
           O          0.454717499331    -0.636525833421    -0.122426330898    15.994914619560
           C          1.611093499331    -0.572577833421     0.145465669102    12.000000000000
           C          2.450705499331     0.681825166579     0.127715669102    12.000000000000
           O          2.332246499331    -1.627352833421     0.504657669102    15.994914619560
           C          1.660441499331     1.927068166579    -0.268476330898    12.000000000000
           H          2.897659499331     0.779584166579     1.111516669102     1.007825032070
           H          3.276499499331     0.508142166579    -0.557555330898     1.007825032070
           C          0.206436499331     1.915153166579     0.215488669102    12.000000000000
           H          1.687860499331     2.040789166579    -1.348029330898     1.007825032070
           H          2.162619499331     2.798738166579     0.137024669102     1.007825032070
           C         -0.678108500669     0.841552166579    -0.424879330898    12.000000000000
           H         -0.225877500669     2.891070166579     0.007127669102     1.007825032070
           H          0.185683499331     1.801384166579     1.298371669102     1.007825032070
           C         -2.142317500669     0.941251166579     0.007730669102    12.000000000000
           H         -0.616853500669     0.927366166579    -1.508716330898     1.007825032070
           H         -0.305011500669    -0.149145833421    -0.175303330898     1.007825032070
           C         -3.034662500669    -0.129901833421    -0.621938330898    12.000000000000
           H         -2.527558500669     1.926134166579    -0.250783330898     1.007825032070
           H         -2.203255500669     0.866270166579     1.092333669102     1.007825032070
           C         -4.495945500669    -0.020989833421    -0.187783330898    12.000000000000
           H         -2.974166500669    -0.057045833421    -1.705762330898     1.007825032070
           H         -2.653711500669    -1.115090833421    -0.361056330898     1.007825032070
           H         -5.102772500669    -0.793239833421    -0.650382330898     1.007825032070
           H         -4.916845500669     0.941146166579    -0.465871330898     1.007825032070
           H         -4.593742500669    -0.124445833421     0.889252669102     1.007825032070
           C          1.663439499331    -2.874137833421     0.560423669102    12.000000000000
           H          0.856591499331    -2.840863833421     1.278332669102     1.007825032070
           H          2.406435499331    -3.594227833421     0.866091669102     1.007825032070
           H          1.265262499331    -3.135653833421    -0.409422330898     1.007825032070

  Charge       = 0
  Multiplicity = 1
  Basis Set: 6-31G*
  Basis Set:

    Orbital Energies (a.u.)
    -----------------------

    Doubly Occupied:

       1A    -20.641462     2A    -20.577953     3A    -11.427364
       4A    -11.305021     5A    -11.256492     6A    -11.221481
       7A    -11.188707     8A    -11.183213     9A    -11.181353
      10A    -11.160507    11A    -11.078158    12A     -1.538390
      13A     -1.444531    14A     -1.098699    15A     -1.065321
      16A     -1.018052    17A     -0.986860    18A     -0.942063
      19A     -0.904059    20A     -0.843877    21A     -0.776309
      22A     -0.769453    23A     -0.729624    24A     -0.717311
      25A     -0.703029    26A     -0.651865    27A     -0.633102
      28A     -0.599706    29A     -0.591762    30A     -0.573666
      31A     -0.565919    32A     -0.558391    33A     -0.548929
      34A     -0.526212    35A     -0.508411    36A     -0.504406
      37A     -0.492002    38A     -0.482189    39A     -0.475196
      40A     -0.447702    41A     -0.435655    42A     -0.409892
      43A     -0.393569    44A     -0.235031

  @DF-RHF Final Energy:  -500.73138315626318

   => Energetics <=

    Nuclear Repulsion Energy =            670.3969933406193604
    One-Electron Energy =               -2011.4709380036033508
    Two-Electron Energy =                 840.3425615067197896
    DFT Exchange-Correlation Energy =       0.0000000000000000
    Empirical Dispersion Energy =           0.0000000000000000
    PCM Polarization Energy =               0.0000000000000000
    EFP Energy =                            0.0000000000000000
    Total Energy =                       -500.7313831562643145

  Mulliken Charges: (a.u.)
   Center  Symbol    Alpha    Beta     Spin     Total
       1     O     4.22973  4.22973  0.00000 -0.45945
       2     C     2.59926  2.59926  0.00000  0.80149
       3     C     3.21026  3.21026  0.00000 -0.42052
       4     O     4.29653  4.29653  0.00000 -0.59305
       5     C     3.16056  3.16056  0.00000 -0.32113
       6     H     0.39126  0.39126  0.00000  0.21749
       7     H     0.39108  0.39108  0.00000  0.21784
       8     C     3.16201  3.16201  0.00000 -0.32402
       9     H     0.41393  0.41393  0.00000  0.17214
      10     H     0.41440  0.41440  0.00000  0.17120
      11     C     3.24645  3.24645  0.00000 -0.49290
      12     H     0.42207  0.42207  0.00000  0.15585
      13     H     0.43720  0.43720  0.00000  0.12560
      14     C     3.12846  3.12846  0.00000 -0.25691
      15     H     0.45334  0.45334  0.00000  0.09331
      16     H     0.31671  0.31671  0.00000  0.36658
      17     C     3.14480  3.14480  0.00000 -0.28961
      18     H     0.44782  0.44782  0.00000  0.10436
      19     H     0.44561  0.44561  0.00000  0.10879
      20     C     3.23562  3.23562  0.00000 -0.47123
      21     H     0.42887  0.42887  0.00000  0.14227
      22     H     0.43556  0.43556  0.00000  0.12888
      23     H     0.42791  0.42791  0.00000  0.14419
      24     H     0.42385  0.42385  0.00000  0.15229
      25     H     0.42718  0.42718  0.00000  0.14563
      26     C     3.10091  3.10091  0.00000 -0.20181
      27     H     0.40420  0.40420  0.00000  0.19160
      28     H     0.40048  0.40048  0.00000  0.19904
      29     H     0.40396  0.40396  0.00000  0.19207

   Total alpha = 44.00000, Total beta = 44.00000, Total charge =  0.00000
