  ==> Input File <==

--------------------------------------------------------------------------
set {
	reference rhf
	basis cc-pvtz
}

set_num_threads( 4 )
memory 2 gb

molecule MOL {
0 1

H	 5.269878	 0.195679	 1.068175
C	 4.673900	 -0.208485	 0.258034
C	 3.190199	 -0.204714	 0.610086
H	 4.865136	 0.391893	 -0.624684
H	 5.027838	 -1.214511	 0.056939
C	 2.319208	 -0.778154	 -0.505491
H	 2.876954	 0.809861	 0.827925
H	 3.035335	 -0.782733	 1.518235
C	 2.518707	 -2.272631	 -0.737065
H	 1.275892	 -0.592108	 -0.282543
H	 2.542290	 -0.257113	 -1.432063
C	 1.949512	 -3.165109	 0.352883
H	 2.027111	 -2.571585	 -1.659412
H	 3.569994	 -2.507866	 -0.874822
C	 2.437596	 -4.599729	 0.407754
O	 1.136736	 -2.767540	 1.123991
C	 2.074294	 -5.423115	 -0.832573
H	 2.005626	 -5.047793	 1.292333
H	 3.517448	 -4.590247	 0.530336
C	 2.495139	 -6.884693	 -0.704717
H	 1.000904	 -5.371485	 -0.993085
H	 2.541096	 -4.995595	 -1.714232
C	 2.132719	 -7.717327	 -1.929665
H	 2.028185	 -7.315207	 0.176013
H	 3.567553	 -6.935258	 -0.537546
H	 1.062074	 -7.711354	 -2.103923
H	 2.614590	 -7.332414	 -2.822246
H	 2.441574	 -8.748694	 -1.806366

	symmetry c1
}
set optking {
	frozen_dihedral = ("
		10 6 3 2
	")
}

ee = optimize('scf')
oeprop('DIPOLE', 'QUADRUPOLE', 'MULLIKEN_CHARGES')
f=open( 'psi4out.xyz', 'w' )
f.write( "28  " )
f.write( str(ee) + "\n" )
f.write( MOL.save_string_xyz() )
f.close()
--------------------------------------------------------------------------

    Molecular point group: c1
  Charge       = 0
  Multiplicity = 1
  Basis Set: CC-PVTZ
  Basis Set:
  @DF-RHF Final Energy:  -426.31739840239470
    Total Energy =                       -426.3173984023950425
    Molecular point group: c1
  Basis Set: CC-PVTZ
  Basis Set:
  Basis Set: CC-PVTZ
  Basis Set:
  @DF-RHF Final Energy:  -426.31786886957457
    Total Energy =                       -426.3178688695742267
  Basis Set: CC-PVTZ
  Basis Set:
  Basis Set: CC-PVTZ
  Basis Set:
  @DF-RHF Final Energy:  -426.31785536999541
    Total Energy =                       -426.3178553699951863
  Basis Set: CC-PVTZ
  Basis Set:
  Basis Set: CC-PVTZ
  Basis Set:
  @DF-RHF Final Energy:  -426.31788618346127
    Total Energy =                       -426.3178861834614963
  Basis Set: CC-PVTZ
  Basis Set:
  Basis Set: CC-PVTZ
  Basis Set:
  @DF-RHF Final Energy:  -426.31799377162622
    Total Energy =                       -426.3179937716251970
  Basis Set: CC-PVTZ
  Basis Set:
  Charge       = 0
  Multiplicity = 1
  Basis Set: CC-PVTZ
  Basis Set:

    Orbital Energies (a.u.)
    -----------------------

    Doubly Occupied:

       1A    -20.536491     2A    -11.316379     3A    -11.229792
       4A    -11.227678     5A    -11.226853     6A    -11.223771
       7A    -11.215219     8A    -11.214192     9A    -11.211041
      10A    -11.207850    11A     -1.396405    12A     -1.096136
      13A     -1.078724    14A     -1.022841    15A     -0.990327
      16A     -0.911454    17A     -0.880459    18A     -0.809146
      19A     -0.796215    20A     -0.720811    21A     -0.667518
      22A     -0.653230    23A     -0.640479    24A     -0.622205
      25A     -0.607543    26A     -0.598286    27A     -0.577643
      28A     -0.562247    29A     -0.542756    30A     -0.540028
      31A     -0.527967    32A     -0.510066    33A     -0.502574
      34A     -0.485655    35A     -0.480012    36A     -0.476525
      37A     -0.469418    38A     -0.462256    39A     -0.458908
      40A     -0.393742

  @DF-RHF Final Energy:  -426.31799332192122

   => Energetics <=

    Nuclear Repulsion Energy =            537.1491645827848060
    One-Electron Energy =               -1642.7526279141279701
    Two-Electron Energy =                 679.2854700094221698
    DFT Exchange-Correlation Energy =       0.0000000000000000
    Empirical Dispersion Energy =           0.0000000000000000
    PCM Polarization Energy =               0.0000000000000000
    EFP Energy =                            0.0000000000000000
    Total Energy =                       -426.3179933219209943
    Molecular point group: c1
  Basis Set: CC-PVTZ
  Basis Set:

  -Total Gradient:
     Atom            X                  Y                   Z
    ------   -----------------  -----------------  -----------------
       1        0.000008886052    -0.000004552271    -0.000008355978
       2        0.000015872325     0.000174247936    -0.000072234220
       3        0.000012898336    -0.000167426512     0.000076208587
       4        0.000007402112    -0.000000253033     0.000003058592
       5       -0.000005893180     0.000010436281    -0.000002432214
       6       -0.000011542547    -0.000214242020     0.000121038496
       7        0.000000741847    -0.000009002035     0.000003886461
       8       -0.000002480648    -0.000008034178     0.000022693254
       9       -0.000048134088    -0.000000290722    -0.000026738202
      10       -0.000002022218     0.000211561765    -0.000132475913
      11       -0.000007579908    -0.000002511271    -0.000013612423
      12        0.000039026403     0.000022535955     0.000106821769
      13        0.000005381832     0.000026369778     0.000020677992
      14        0.000002002332     0.000007832495     0.000003120103
      15       -0.000095837510    -0.000045359469    -0.000072521811
      16       -0.000025377565     0.000009466023    -0.000038550250
      17        0.000082014517    -0.000012433313     0.000011781772
      18        0.000024617316    -0.000015929763     0.000005607152
      19        0.000003995313     0.000034164559    -0.000026854670
      20       -0.000025231904    -0.000006722878     0.000000159473
      21        0.000019147378     0.000048163029     0.000000068963
      22        0.000019301413    -0.000039705994     0.000006206338
      23       -0.000010641470    -0.000010062433     0.000010239528
      24        0.000003681194    -0.000011665325     0.000013516274
      25       -0.000008867354     0.000004757987    -0.000009561489
      26       -0.000000175397    -0.000002126995    -0.000002745682
      27        0.000000499777     0.000003104853     0.000002991722
      28       -0.000001684366    -0.000002322448    -0.000001993621

  **** Optimization is complete! (in 6 steps) ****
    Final optimized geometry and variables:
    Molecular point group: c1

    Geometry (in Angstrom), charge = 0, multiplicity = 1:

    H            2.709432258269     3.750625532533     1.316939715513
    C            2.174666750019     3.259226011878     0.512363595885
    C            0.675723427006     3.223317168443     0.802612059307
    H            2.383502223468     3.803840559492    -0.402954981764
    H            2.595967895358     2.265663792999     0.407343263032
    C           -0.174622915623     2.620376514447    -0.318479683013
    H            0.333007395158     4.239036328734     0.971980332034
    H            0.491908207298     2.687076978520     1.726491902545
    C            0.021119598411     1.124181015370    -0.553696558050
    H           -1.219546834172     2.798336525325    -0.101004043282
    H            0.045739553927     3.140655413283    -1.246400630039
    C           -0.525314349875     0.232952244417     0.548856361035
    H           -0.499839691663     0.831578126552    -1.461925587232
    H            1.062716618406     0.877137989362    -0.726157552614
    C           -0.038324215951    -1.202496189306     0.593004163508
    O           -1.321897677294     0.630724821468     1.336543502089
    C           -0.435547049780    -2.025870098764    -0.636868792769
    H           -0.448412476414    -1.649004879432     1.488711226919
    H            1.044375631247    -1.195571688087     0.687518117183
    C           -0.023600384588    -3.490421921724    -0.514813999962
    H           -1.511797549911    -1.965982204257    -0.773204951217
    H            0.014634596786    -1.604049582911    -1.529836058328
    C           -0.417738121863    -4.322272590009    -1.730409639189
    H           -0.475589094344    -3.915721398141     0.376198680689
    H            1.051609975580    -3.549068226939    -0.369824599196
    H           -1.491784619424    -4.309205380392    -1.881763307670
    H            0.047581962357    -3.941914399289    -2.633652340125
    H           -0.113326518793    -5.355533232506    -1.612068044562

  Mulliken Charges: (a.u.)
   Center  Symbol    Alpha    Beta     Spin     Total
       1     H     0.44532  0.44532  0.00000  0.10936
       2     C     3.15163  3.15163  0.00000 -0.30326
       3     C     3.09525  3.09525  0.00000 -0.19050
       4     H     0.45550  0.45550  0.00000  0.08901
       5     H     0.45852  0.45852  0.00000  0.08297
       6     C     3.09410  3.09410  0.00000 -0.18821
       7     H     0.44738  0.44738  0.00000  0.10524
       8     H     0.44375  0.44375  0.00000  0.11251
       9     C     3.13427  3.13427  0.00000 -0.26854
      10     H     0.43942  0.43942  0.00000  0.12117
      11     H     0.44738  0.44738  0.00000  0.10524
      12     C     2.86402  2.86402  0.00000  0.27197
      13     H     0.43226  0.43226  0.00000  0.13548
      14     H     0.44011  0.44011  0.00000  0.11978
      15     C     3.09387  3.09387  0.00000 -0.18775
      16     O     4.17811  4.17811  0.00000 -0.35623
      17     C     3.10055  3.10055  0.00000 -0.20110
      18     H     0.43790  0.43790  0.00000  0.12421
      19     H     0.44924  0.44924  0.00000  0.10153
      20     C     3.08730  3.08730  0.00000 -0.17459
      21     H     0.44566  0.44566  0.00000  0.10868
      22     H     0.45045  0.45045  0.00000  0.09909
      23     C     3.14920  3.14920  0.00000 -0.29840
      24     H     0.44978  0.44978  0.00000  0.10044
      25     H     0.45363  0.45363  0.00000  0.09273
      26     H     0.45342  0.45342  0.00000  0.09315
      27     H     0.45519  0.45519  0.00000  0.08962
      28     H     0.44680  0.44680  0.00000  0.10641

   Total alpha = 40.00000, Total beta = 40.00000, Total charge = -0.00000
