  ==> Input File <==

--------------------------------------------------------------------------
set {
	reference rhf
	basis cc-pvtz
}

set_num_threads( 4 )
memory 2 gb

molecule MOL {
0 1

H	 -2.842260	 2.178746	 0.887048
C	 -2.196523	 1.825681	 1.687831
O	 -0.885058	 1.679542	 1.256273
H	 -2.202847	 2.553618	 2.485926
H	 -2.599811	 0.888284	 2.066686
C	 -0.718530	 0.758693	 0.228682
C	 0.718529	 0.758687	 -0.228709
H	 -0.979341	 -0.242055	 0.572851
H	 -1.361995	 1.001812	 -0.614097
O	 1.401606	 -0.295166	 0.366636
H	 0.748705	 0.673477	 -1.312803
H	 1.176496	 1.708671	 0.046552
C	 2.714315	 -0.441627	 -0.061017
H	 2.765292	 -0.641548	 -1.128869
H	 3.305661	 0.447341	 0.150952
H	 3.143725	 -1.278506	 0.470147

	symmetry c1
}
set optking {
	frozen_dihedral = ("
		3 6 7 11
	")
}

ee = optimize('scf')
oeprop('DIPOLE', 'QUADRUPOLE', 'MULLIKEN_CHARGES')
f=open( 'psi4out.xyz', 'w' )
f.write( "16  " )
f.write( str(ee) + "\n" )
f.write( MOL.save_string_xyz() )
f.close()
--------------------------------------------------------------------------

    Molecular point group: c1
  Charge       = 0
  Multiplicity = 1
  Basis Set: CC-PVTZ
  Basis Set:
  @DF-RHF Final Energy:  -307.09512639736926
    Total Energy =                       -307.0951263973694267
    Molecular point group: c1
  Basis Set: CC-PVTZ
  Basis Set:
  Basis Set: CC-PVTZ
  Basis Set:
  @DF-RHF Final Energy:  -307.09566123296122
    Total Energy =                       -307.0956612329611062
  Basis Set: CC-PVTZ
  Basis Set:
  Basis Set: CC-PVTZ
  Basis Set:
  @DF-RHF Final Energy:  -307.09572889554312
    Total Energy =                       -307.0957288955432887
  Basis Set: CC-PVTZ
  Basis Set:
  Charge       = 0
  Multiplicity = 1
  Basis Set: CC-PVTZ
  Basis Set:

    Orbital Energies (a.u.)
    -----------------------

    Doubly Occupied:

       1A    -20.549993     2A    -20.549488     3A    -11.266942
       4A    -11.266238     5A    -11.262589     6A    -11.262403
       7A     -1.390995     8A     -1.376903     9A     -1.030180
      10A     -0.939036    11A     -0.888972    12A     -0.829008
      13A     -0.685523    14A     -0.682824    15A     -0.659167
      16A     -0.639806    17A     -0.633741    18A     -0.599977
      19A     -0.547033    20A     -0.537303    21A     -0.509708
      22A     -0.481966    23A     -0.466083    24A     -0.425320
      25A     -0.412970

  @DF-RHF Final Energy:  -307.09573260383382

   => Energetics <=

    Nuclear Repulsion Energy =            256.9911290517525799
    One-Electron Energy =                -928.3853776550752173
    Two-Electron Energy =                 364.2985159994886999
    DFT Exchange-Correlation Energy =       0.0000000000000000
    Empirical Dispersion Energy =           0.0000000000000000
    PCM Polarization Energy =               0.0000000000000000
    EFP Energy =                            0.0000000000000000
    Total Energy =                       -307.0957326038339943
    Molecular point group: c1
  Basis Set: CC-PVTZ
  Basis Set:

  -Total Gradient:
     Atom            X                  Y                   Z
    ------   -----------------  -----------------  -----------------
       1       -0.000011049684    -0.000015292139     0.000001447178
       2        0.000011593165     0.000087166452     0.000045643791
       3       -0.000508071057     0.001802660674    -0.001956834526
       4       -0.000046585162    -0.000007428240     0.000029423136
       5        0.000002152888     0.000003350401    -0.000002809998
       6        0.000694467780    -0.001593602760     0.002430061739
       7       -0.000268416290    -0.003809348155    -0.000286442202
       8        0.000000281744     0.000043305780     0.000048421340
       9       -0.000007582935    -0.000034299230    -0.000062416679
      10        0.000007725458     0.000051044418     0.000005464450
      11        0.000058833870     0.003574020161    -0.000300106666
      12        0.000020384827    -0.000046307134     0.000024227023
      13       -0.000040664915    -0.000069762857     0.000028694307
      14        0.000013781343     0.000012050131    -0.000000259199
      15        0.000010019344     0.000003994344    -0.000002099088
      16        0.000063129618    -0.000001551851    -0.000002414606

  **** Optimization is complete! (in 4 steps) ****
    Final optimized geometry and variables:
    Molecular point group: c1

    Geometry (in Angstrom), charge = 0, multiplicity = 1:

    H           -3.048787665582     1.367827051903     0.473502145647
    C           -2.303324215187     1.092011401125     1.217030283658
    O           -1.033660009789     1.013266335543     0.659938554373
    H           -2.281643453822     1.851562186306     1.984903258531
    H           -2.600521323631     0.147535410231     1.666860723134
    C           -0.914778167332     0.075331372245    -0.363627741250
    C            0.527246321949     0.011254035507    -0.830378316210
    H           -1.221669935070    -0.910414083046    -0.026346257183
    H           -1.558874261456     0.361849530933    -1.193613491114
    O            1.178250170782    -1.054253624424    -0.215764161788
    H            0.568553670822    -0.083630540607    -1.914187724413
    H            1.008711162558     0.951592029136    -0.574944104772
    C            2.534094479746    -1.138471793045    -0.504795520681
    H            2.707532686557    -1.265077264457    -1.571683394109
    H            3.067513775197    -0.250643892093    -0.173194735193
    H            2.930967850023    -1.997864099469     0.015701907863

  Mulliken Charges: (a.u.)
   Center  Symbol    Alpha    Beta     Spin     Total
       1     H     0.47326  0.47326  0.00000  0.05348
       2     C     3.03017  3.03017  0.00000 -0.06034
       3     O     4.17280  4.17280  0.00000 -0.34559
       4     H     0.44650  0.44650  0.00000  0.10699
       5     H     0.47001  0.47001  0.00000  0.05998
       6     C     2.96267  2.96267  0.00000  0.07467
       7     C     2.96223  2.96223  0.00000  0.07554
       8     H     0.46808  0.46808  0.00000  0.06385
       9     H     0.47656  0.47656  0.00000  0.04687
      10     O     4.17267  4.17267  0.00000 -0.34533
      11     H     0.47643  0.47643  0.00000  0.04714
      12     H     0.46887  0.46887  0.00000  0.06226
      13     C     3.03048  3.03048  0.00000 -0.06096
      14     H     0.47285  0.47285  0.00000  0.05431
      15     H     0.46997  0.46997  0.00000  0.06007
      16     H     0.44646  0.44646  0.00000  0.10707

   Total alpha = 25.00000, Total beta = 25.00000, Total charge = -0.00000
