  ==> Input File <==

--------------------------------------------------------------------------
set {
	reference rhf
	basis 6-31G*
}

set_num_threads( 1 )
memory 2 gb

molecule MOL {
0 1

H	 2.037100	 3.563734	 4.201836
C	 1.883323	 2.913994	 3.358643
C	 0.970804	 3.262946	 2.374423
C	 2.598014	 1.730640	 3.259528
H	 0.417184	 4.180974	 2.452508
C	 0.773624	 2.426997	 1.290545
H	 3.304951	 1.461799	 4.023445
C	 2.402278	 0.892293	 2.175445
H	 0.071664	 2.680903	 0.519536
C	 1.488442	 1.239181	 1.187348
H	 2.953164	 -0.024399	 2.094690
C	 1.239129	 0.373821	 0.000060
O	 1.970282	 -0.730723	 0.000018
O	 0.464685	 0.638339	 -0.865460
C	 3.377318	 -0.566646	 -0.000065
H	 3.695437	 -0.028981	 -0.881264
H	 3.789299	 -1.563704	 0.000236
H	 3.695516	 -0.028316	 0.880770

	symmetry c1
}
set optking {
	frozen_dihedral = ("
		12 13 15 16,
		13 12 10 6
	")
}

ee = energy('scf')
oeprop('DIPOLE', 'QUADRUPOLE', 'MULLIKEN_CHARGES')
f=open( 'psi4out.xyz', 'w' )
f.write( "18  " )
f.write( str(ee) + "\n" )
f.write( MOL.save_string_xyz() )
f.close()
--------------------------------------------------------------------------

    Molecular point group: c1

    Geometry (in Angstrom), charge = 0, multiplicity = 1:

       Center              X                  Y                   Z               Mass
    ------------   -----------------  -----------------  -----------------  -----------------
           H          0.303482963201     2.416211736390     3.001532417536     1.007825032070
           C          0.149705963201     1.766471736390     2.158339417536    12.000000000000
           C         -0.762813036799     2.115423736390     1.174119417536    12.000000000000
           C          0.864396963201     0.583117736390     2.059224417536    12.000000000000
           H         -1.316433036799     3.033451736390     1.252204417536     1.007825032070
           C         -0.959993036799     1.279474736390     0.090241417536    12.000000000000
           H          1.571333963201     0.314276736390     2.823141417536     1.007825032070
           C          0.668660963201    -0.255229263610     0.975141417536    12.000000000000
           H         -1.661953036799     1.533380736390    -0.680767582464     1.007825032070
           C         -0.245175036799     0.091658736390    -0.012955582464    12.000000000000
           H          1.219546963201    -1.171921263610     0.894386417536     1.007825032070
           C         -0.494488036799    -0.773701263610    -1.200243582464    12.000000000000
           O          0.236664963201    -1.878245263610    -1.200285582464    15.994914619560
           O         -1.268932036799    -0.509183263610    -2.065763582464    15.994914619560
           C          1.643700963201    -1.714168263610    -1.200368582464    12.000000000000
           H          1.961819963201    -1.176503263610    -2.081567582464     1.007825032070
           H          2.055681963201    -2.711226263610    -1.200067582464     1.007825032070
           H          1.961898963201    -1.175838263610    -0.319533582464     1.007825032070

  Charge       = 0
  Multiplicity = 1
  Basis Set: 6-31G*
  Basis Set:

    Orbital Energies (a.u.)
    -----------------------

    Doubly Occupied:

       1A    -20.596180     2A    -20.551946     3A    -11.379529
       4A    -11.289902     5A    -11.252993     6A    -11.252265
       7A    -11.249821     8A    -11.247491     9A    -11.246074
      10A    -11.243296    11A     -1.467800    12A     -1.370063
      13A     -1.172832    14A     -1.048120    15A     -1.034535
      16A     -0.988719    17A     -0.875111    18A     -0.850627
      19A     -0.787094    20A     -0.740193    21A     -0.700293
      22A     -0.674409    23A     -0.671047    24A     -0.649770
      25A     -0.629264    26A     -0.613286    27A     -0.580659
      28A     -0.563429    29A     -0.544686    30A     -0.523636
      31A     -0.509479    32A     -0.488999    33A     -0.459780
      34A     -0.441697    35A     -0.350515    36A     -0.348100

  @DF-RHF Final Energy:  -457.30433243127226

   => Energetics <=

    Nuclear Repulsion Energy =            502.5592502971823592
    One-Electron Energy =               -1618.9396848759051863
    Two-Electron Energy =                 659.0761021474509107
    DFT Exchange-Correlation Energy =       0.0000000000000000
    Empirical Dispersion Energy =           0.0000000000000000
    PCM Polarization Energy =               0.0000000000000000
    EFP Energy =                            0.0000000000000000
    Total Energy =                       -457.3043324312718596

  Mulliken Charges: (a.u.)
   Center  Symbol    Alpha    Beta     Spin     Total
       1     H     0.39393  0.39393  0.00000  0.21214
       2     C     3.09040  3.09040  0.00000 -0.18080
       3     C     3.10601  3.10601  0.00000 -0.21202
       4     C     3.10733  3.10733  0.00000 -0.21466
       5     H     0.39368  0.39368  0.00000  0.21264
       6     C     3.08430  3.08430  0.00000 -0.16860
       7     H     0.39534  0.39534  0.00000  0.20931
       8     C     3.10865  3.10865  0.00000 -0.21730
       9     H     0.37411  0.37411  0.00000  0.25178
      10     C     3.07621  3.07621  0.00000 -0.15241
      11     H     0.37637  0.37637  0.00000  0.24727
      12     C     2.58639  2.58639  0.00000  0.82722
      13     O     4.31257  4.31257  0.00000 -0.62513
      14     O     4.26616  4.26616  0.00000 -0.53233
      15     C     3.10132  3.10132  0.00000 -0.20264
      16     H     0.40758  0.40758  0.00000  0.18483
      17     H     0.40087  0.40087  0.00000  0.19826
      18     H     0.41878  0.41878  0.00000  0.16244

   Total alpha = 36.00000, Total beta = 36.00000, Total charge =  0.00000
