  ==> Input File <==

--------------------------------------------------------------------------
set {
	reference rhf
	basis 6-31G*
}

set_num_threads( 4 )
memory 2 gb

molecule MOL {
0 1

H	 3.262799	 1.355642	 -0.236311
O	 2.336202	 1.239877	 -0.049838
C	 2.077727	 -0.067559	 -0.035091
C	 0.624473	 -0.343591	 0.253101
O	 2.921695	 -0.880247	 -0.230723
C	 -0.265902	 0.883932	 0.072916
H	 0.324016	 -1.163849	 -0.390541
H	 0.565024	 -0.726111	 1.268924
C	 -1.728698	 0.646073	 0.462102
H	 -0.209144	 1.219470	 -0.958188
H	 0.135059	 1.692851	 0.673903
C	 -2.482460	 -0.343073	 -0.431425
H	 -2.245265	 1.602650	 0.432430
H	 -1.779332	 0.308348	 1.496285
C	 -3.960546	 -0.461025	 -0.060175
H	 -2.395034	 -0.026811	 -1.468912
H	 -2.024850	 -1.327147	 -0.371646
H	 -4.472726	 -1.168004	 -0.705284
H	 -4.465146	 0.496508	 -0.151489
H	 -4.081218	 -0.800940	 0.964585

	symmetry c1
}
set optking {
	frozen_dihedral = ("
		5 3 4 7
	")
}

ee = optimize('scf')
oeprop('DIPOLE', 'QUADRUPOLE', 'MULLIKEN_CHARGES')
f=open( 'psi4out.xyz', 'w' )
f.write( "20  " )
f.write( str(ee) + "\n" )
f.write( MOL.save_string_xyz() )
f.close()
--------------------------------------------------------------------------

    Molecular point group: c1
  Charge       = 0
  Multiplicity = 1
  Basis Set: 6-31G*
  Basis Set:
  @DF-RHF Final Energy:  -383.94470208204905
    Total Energy =                       -383.9447020820490479
    Molecular point group: c1
  Basis Set: 6-31G*
  Basis Set:
  Basis Set: 6-31G*
  Basis Set:
  @DF-RHF Final Energy:  -383.94513485205482
    Total Energy =                       -383.9451348520549345
  Basis Set: 6-31G*
  Basis Set:
  Basis Set: 6-31G*
  Basis Set:
  @DF-RHF Final Energy:  -383.94596241549976
    Total Energy =                       -383.9459624154995367
  Basis Set: 6-31G*
  Basis Set:
  Basis Set: 6-31G*
  Basis Set:
  @DF-RHF Final Energy:  -383.94600769914024
    Total Energy =                       -383.9460076991402389
  Basis Set: 6-31G*
  Basis Set:
  @DF-RHF Final Energy:  -383.94604646395197
    Total Energy =                       -383.9460464639519159
  Basis Set: 6-31G*
  Basis Set:
  @DF-RHF Final Energy:  -383.94605460916250
    Total Energy =                       -383.9460546091624451
  Basis Set: 6-31G*
  Basis Set:
  Basis Set: 6-31G*
  Basis Set:
  @DF-RHF Final Energy:  -383.94605658455254
    Total Energy =                       -383.9460565845528777
  Basis Set: 6-31G*
  Basis Set:
  Basis Set: 6-31G*
  Basis Set:
  @DF-RHF Final Energy:  -383.94605876347413
    Total Energy =                       -383.9460587634740136
  Basis Set: 6-31G*
  Basis Set:
  Charge       = 0
  Multiplicity = 1
  Basis Set: 6-31G*
  Basis Set:

    Orbital Energies (a.u.)
    -----------------------

    Doubly Occupied:

       1A    -20.615090     2A    -20.546802     3A    -11.381347
       4A    -11.240367     5A    -11.226990     6A    -11.222733
       7A    -11.221386     8A    -11.213226     9A     -1.475465
      10A     -1.363827    11A     -1.097980    12A     -1.041331
      13A     -0.959414    14A     -0.861877    15A     -0.826810
      16A     -0.791498    17A     -0.699311    18A     -0.681679
      19A     -0.659087    20A     -0.634992    21A     -0.604500
      22A     -0.591282    23A     -0.576949    24A     -0.551881
      25A     -0.544127    26A     -0.520032    27A     -0.502502
      28A     -0.482736    29A     -0.474312    30A     -0.467499
      31A     -0.457552    32A     -0.433441

  @DF-RHF Final Energy:  -383.94605905200024

   => Energetics <=

    Nuclear Repulsion Energy =            376.3310388412264729
    One-Electron Energy =               -1268.6181456812028046
    Two-Electron Energy =                 508.3410477879763221
    DFT Exchange-Correlation Energy =       0.0000000000000000
    Empirical Dispersion Energy =           0.0000000000000000
    PCM Polarization Energy =               0.0000000000000000
    EFP Energy =                            0.0000000000000000
    Total Energy =                       -383.9460590520000096
    Molecular point group: c1
  Basis Set: 6-31G*
  Basis Set:

  -Total Gradient:
     Atom            X                  Y                   Z
    ------   -----------------  -----------------  -----------------
       1       -0.000006394684    -0.000007379904     0.000002924505
       2       -0.000005776702     0.000006635013     0.000028122165
       3       -0.000270404514     0.000104294383    -0.001258726648
       4        0.000334238802    -0.000602157718     0.001015669622
       5        0.000156023092    -0.000017651642     0.000780379336
       6       -0.000022332532    -0.000003821021    -0.000071640947
       7       -0.000162120312     0.000501357340    -0.000539447020
       8       -0.000002372902     0.000010602967     0.000004352276
       9        0.000010475107     0.000001683770     0.000040837134
      10       -0.000007206524     0.000013856462     0.000006554197
      11        0.000012204198     0.000002782907    -0.000000880295
      12       -0.000007248802    -0.000024591612    -0.000002211199
      13        0.000001002004    -0.000008424984    -0.000003972744
      14       -0.000012882955     0.000003903313     0.000005181899
      15        0.000003624984     0.000005013211    -0.000009017565
      16       -0.000004297088    -0.000000575104     0.000003435136
      17       -0.000016673888     0.000011755918    -0.000001442179
      18        0.000001049687     0.000004200757    -0.000002446182
      19       -0.000002303695     0.000001550756     0.000004575996
      20        0.000001396708    -0.000003034807    -0.000002247488

  **** Optimization is complete! (in 9 steps) ****
    Final optimized geometry and variables:
    Molecular point group: c1

    Geometry (in Angstrom), charge = 0, multiplicity = 1:

    H            3.400599679077     1.150254086082    -0.263998529803
    O            2.465754720292     1.120970782169    -0.083608657660
    C            2.101372470022    -0.157560321802    -0.038636897839
    C            0.639247123669    -0.373700823398     0.275224119289
    O            2.881667400049    -1.039121951620    -0.204081801952
    C           -0.277284918564     0.838861804671     0.097517983147
    H            0.327165831654    -1.207083286422    -0.341242720046
    H            0.603821233883    -0.725597247009     1.303800612842
    C           -1.735281561960     0.560747293335     0.481006941232
    H           -0.232121120223     1.181085210784    -0.933017112823
    H            0.096315921145     1.655135614115     0.705089096666
    C           -2.468343300484    -0.427425944508    -0.430755513068
    H           -2.272747222575     1.506163976440     0.469074457626
    H           -1.777367208720     0.203296358526     1.508866374996
    C           -3.942976862866    -0.583719688101    -0.059965099553
    H           -2.389569979135    -0.088997801363    -1.461930319448
    H           -1.990243939776    -1.402355905416    -0.391112503806
    H           -4.441005752449    -1.287956222674    -0.718881377027
    H           -4.467926243947     0.364605307907    -0.130896821351
    H           -4.054703647138    -0.947282918172     0.957630795717

  Mulliken Charges: (a.u.)
   Center  Symbol    Alpha    Beta     Spin     Total
       1     H     0.26721  0.26721  0.00000  0.46557
       2     O     4.34807  4.34807  0.00000 -0.69615
       3     C     2.62146  2.62146  0.00000  0.75708
       4     C     3.21545  3.21545  0.00000 -0.43090
       5     O     4.28295  4.28295  0.00000 -0.56591
       6     C     3.15602  3.15602  0.00000 -0.31204
       7     H     0.39390  0.39390  0.00000  0.21221
       8     H     0.39768  0.39768  0.00000  0.20465
       9     C     3.15588  3.15588  0.00000 -0.31176
      10     H     0.41592  0.41592  0.00000  0.16815
      11     H     0.40740  0.40740  0.00000  0.18520
      12     C     3.15506  3.15506  0.00000 -0.31012
      13     H     0.41804  0.41804  0.00000  0.16392
      14     H     0.42293  0.42293  0.00000  0.15414
      15     C     3.23938  3.23938  0.00000 -0.47875
      16     H     0.42174  0.42174  0.00000  0.15653
      17     H     0.42113  0.42113  0.00000  0.15774
      18     H     0.41782  0.41782  0.00000  0.16436
      19     H     0.42095  0.42095  0.00000  0.15810
      20     H     0.42101  0.42101  0.00000  0.15798

   Total alpha = 32.00000, Total beta = 32.00000, Total charge = -0.00000
