                              Psi4 1.0.54 Driver

  ==> Input File <==

--------------------------------------------------------------------------
set {
	reference rhf
	basis cc-pvtz
}

set_num_threads( 4 )
memory 2 gb

molecule MOL {
0 1

H	 1.963186	 1.514781	 0.702896
O	 1.086524	 1.162440	 0.735403
C	 1.050374	 0.054877	 0.000135
C	 -0.318151	 -0.570512	 0.000144
O	 2.002721	 -0.354242	 -0.568745
C	 -1.454884	 0.441630	 -0.000560
H	 -0.371613	 -1.223646	 -0.864985
H	 -0.371920	 -1.222758	 0.865929
C	 -2.822577	 -0.232186	 0.000063
H	 -1.359760	 1.084704	 -0.867077
H	 -1.359641	 1.085996	 0.864983
H	 -2.954352	 -0.858985	 -0.875745
H	 -3.615886	 0.505352	 0.000019
H	 -2.953878	 -0.858359	 0.876394

	symmetry c1
}
set optking {
	frozen_dihedral = ("
		2 3 4 7
	")
}

ee,wfn = optimize('scf', return_wfn=True)
oeprop( wfn, 'DIPOLE', 'QUADRUPOLE', 'MULLIKEN_CHARGES')
f=open( 'psi4out.xyz', 'w' )
f.write( "14  " )
f.write( str(ee) + "\n" )
f.write( MOL.save_string_xyz() )
f.close()
--------------------------------------------------------------------------

    Molecular point group: c1
  Charge       = 0
  Multiplicity = 1
  Basis Set: CC-PVTZ
  Basis Set:
  @DF-RHF Final Energy:  -305.99844064751278
    Total Energy =                       -305.9984406475126661
    Molecular point group: c1
  Basis Set: CC-PVTZ
  Basis Set:
  Basis Set: CC-PVTZ
  Basis Set:
  @DF-RHF Final Energy:  -305.99805806849747
    Total Energy =                       -305.9980580684975280
  Basis Set: CC-PVTZ
  Basis Set:
  Basis Set: CC-PVTZ
  Basis Set:
  @DF-RHF Final Energy:  -305.99883642529051
    Total Energy =                       -305.9988364252906194
  Basis Set: CC-PVTZ
  Basis Set:
  Basis Set: CC-PVTZ
  Basis Set:
  @DF-RHF Final Energy:  -305.99870737152702
    Total Energy =                       -305.9987073715269617
  Basis Set: CC-PVTZ
  Basis Set:
  Basis Set: CC-PVTZ
  Basis Set:
  @DF-RHF Final Energy:  -305.99903070382658
    Total Energy =                       -305.9990307038268611
  Basis Set: CC-PVTZ
  Basis Set:
  Basis Set: CC-PVTZ
  Basis Set:
  @DF-RHF Final Energy:  -305.99903199035214
    Total Energy =                       -305.9990319903520799
  Basis Set: CC-PVTZ
  Basis Set:
  Charge       = 0
  Multiplicity = 1
  Basis Set: CC-PVTZ
  Basis Set:

    Orbital Energies (a.u.)
    -----------------------

    Doubly Occupied:

       1A    -20.606036     2A    -20.538409     3A    -11.373748
       4A    -11.239603     5A    -11.230032     6A    -11.218288
       7A     -1.478591     8A     -1.368307     9A     -1.086890
      10A     -0.979920    11A     -0.848940    12A     -0.818965
      13A     -0.704280    14A     -0.685987    15A     -0.661507
      16A     -0.624096    17A     -0.594269    18A     -0.565585
      19A     -0.552173    20A     -0.524689    21A     -0.499370
      22A     -0.490078    23A     -0.475714    24A     -0.440304

  @DF-RHF Final Energy:  -305.99903225307395

   => Energetics <=

    Nuclear Repulsion Energy =            240.8927593498726196
    One-Electron Energy =                -894.5720189359401502
    Two-Electron Energy =                 347.6802273329935247
    DFT Exchange-Correlation Energy =       0.0000000000000000
    Empirical Dispersion Energy =           0.0000000000000000
    PCM Polarization Energy =               0.0000000000000000
    EFP Energy =                            0.0000000000000000
    Total Energy =                       -305.9990322530739491
    Molecular point group: c1
  Basis Set: CC-PVTZ
  Basis Set:

  -Total Gradient:
     Atom            X                  Y                   Z
    ------   -----------------  -----------------  -----------------
       1       -0.000000348579     0.000001390723     0.000002059313
       2       -0.000116852170     0.000432279541    -0.000708796210
       3        0.000106723621    -0.000436831437     0.000837235597
       4        0.000222720184    -0.000732489095     0.000470207477
       5        0.000005663741     0.000001396693    -0.000003143788
       6       -0.000005029318    -0.000010749723    -0.000003897993
       7       -0.000225942644     0.000750449190    -0.000590175797
       8       -0.000002458797    -0.000005468906    -0.000000868420
       9        0.000008175908     0.000003480402    -0.000002034681
      10       -0.000004747492    -0.000004175540     0.000000701343
      11        0.000005474438     0.000000073025     0.000001536029
      12       -0.000002721707    -0.000001732713    -0.000005164110
      13        0.000002987782     0.000001644572     0.000002443274
      14        0.000006355031     0.000000733267    -0.000000102032

  **** Optimization is complete! (in 7 steps) ****
    Final optimized geometry and variables:
    Molecular point group: c1

    Geometry (in Angstrom), charge = 0, multiplicity = 1:

    H            2.183973648644     1.183580826088     0.709141133992
    O            1.261447820410     0.976438531723     0.707068702104
    C            1.090814475418    -0.154083778371     0.029923601954
    C           -0.342487529796    -0.616378066303    -0.014610766262
    O            1.998150667444    -0.731993349824    -0.462266251613
    C           -1.389176601067     0.491934818872    -0.116554881180
    H           -0.417900271588    -1.298093102127    -0.850093061402
    H           -0.504661930494    -1.197368394476     0.889204254420
    C           -2.802800404017    -0.071735137814    -0.208570570504
    H           -1.184131929846     1.101052080651    -0.991062161465
    H           -1.309838262331     1.147467620994     0.740691510478
    H           -2.917700758483    -0.708377225904    -1.079117383461
    H           -3.532324685401     0.725574846434    -0.282926709327
    H           -3.046657940476    -0.662847501331     0.667855621380

  Mulliken Charges: (a.u.)
   Center  Symbol    Alpha    Beta     Spin     Total
       1     H     0.38127  0.38127  0.00000  0.23746
       2     O     4.15850  4.15850  0.00000 -0.31699
       3     C     2.81201  2.81201  0.00000  0.37598
       4     C     3.08987  3.08987  0.00000 -0.17975
       5     O     4.19428  4.19428  0.00000 -0.38857
       6     C     3.08790  3.08790  0.00000 -0.17579
       7     H     0.43536  0.43536  0.00000  0.12928
       8     H     0.44420  0.44420  0.00000  0.11160
       9     C     3.15071  3.15071  0.00000 -0.30142
      10     H     0.44920  0.44920  0.00000  0.10160
      11     H     0.44324  0.44324  0.00000  0.11351
      12     H     0.45343  0.45343  0.00000  0.09314
      13     H     0.44554  0.44554  0.00000  0.10892
      14     H     0.45448  0.45448  0.00000  0.09103

   Total alpha = 24.00000, Total beta = 24.00000, Total charge =  0.00000

*** Psi4 exiting successfully. Buy a developer a beer!
