  ==> Input File <==

--------------------------------------------------------------------------
set {
	reference rhf
	basis 6-31G*
}

set_num_threads( 4 )
memory 2 gb

molecule MOL {
0 1

H	 -2.798360	 -0.862255	 -0.071053
N	 -1.863561	 -0.715187	 0.256814
C	 -1.344686	 0.554728	 -0.219830
H	 -1.300452	 -1.461917	 -0.101532
C	 -1.970319	 0.900547	 -1.554794
H	 -1.517707	 1.384941	 0.466328
H	 -0.271395	 0.462226	 -0.354995
O	 -3.341741	 1.095435	 -1.359074
H	 -1.517661	 1.805404	 -1.959730
H	 -1.801290	 0.088974	 -2.259076
C	 -4.059689	 1.338003	 -2.526672
H	 -5.097031	 1.472681	 -2.251934
H	 -3.709757	 2.237907	 -3.029366
H	 -3.983878	 0.503448	 -3.220631

	symmetry c1
}
set optking {
	frozen_dihedral = ("
		6 3 2 4
	")
}

ee = optimize('scf')
oeprop('DIPOLE', 'QUADRUPOLE', 'MULLIKEN_CHARGES')
f=open( 'psi4out.xyz', 'w' )
f.write( "14  " )
f.write( str(ee) + "\n" )
f.write( MOL.save_string_xyz() )
f.close()
--------------------------------------------------------------------------

    Molecular point group: c1
  Charge       = 0
  Multiplicity = 1
  Basis Set: 6-31G*
  Basis Set:
  @DF-RHF Final Energy:  -248.12053489874060
    Total Energy =                       -248.1205348987404022
    Molecular point group: c1
  Basis Set: 6-31G*
  Basis Set:
  Basis Set: 6-31G*
  Basis Set:
  @DF-RHF Final Energy:  -248.12277778037304
    Total Energy =                       -248.1227777803728713
  Basis Set: 6-31G*
  Basis Set:
  Basis Set: 6-31G*
  Basis Set:
  @DF-RHF Final Energy:  -248.12307912786673
    Total Energy =                       -248.1230791278666175
  Basis Set: 6-31G*
  Basis Set:
  Basis Set: 6-31G*
  Basis Set:
  @DF-RHF Final Energy:  -248.12308750302640
    Total Energy =                       -248.1230875030267384
  Basis Set: 6-31G*
  Basis Set:
  Charge       = 0
  Multiplicity = 1
  Basis Set: 6-31G*
  Basis Set:

    Orbital Energies (a.u.)
    -----------------------

    Doubly Occupied:

       1A    -20.561284     2A    -15.526125     3A    -11.269721
       4A    -11.269269     5A    -11.240976     6A     -1.385506
       7A     -1.171657     8A     -0.999982     9A     -0.910099
      10A     -0.822306    11A     -0.685166    12A     -0.674480
      13A     -0.647793    14A     -0.628403    15A     -0.587370
      16A     -0.556579    17A     -0.518512    18A     -0.502225
      19A     -0.481852    20A     -0.421319    21A     -0.373735

  @DF-RHF Final Energy:  -248.12308842847344

   => Energetics <=

    Nuclear Repulsion Energy =            194.3038950992074945
    One-Electron Energy =                -722.3852483691014186
    Two-Electron Energy =                 279.9582648414206005
    DFT Exchange-Correlation Energy =       0.0000000000000000
    Empirical Dispersion Energy =           0.0000000000000000
    PCM Polarization Energy =               0.0000000000000000
    EFP Energy =                            0.0000000000000000
    Total Energy =                       -248.1230884284733520
    Molecular point group: c1
  Basis Set: 6-31G*
  Basis Set:

  -Total Gradient:
     Atom            X                  Y                   Z
    ------   -----------------  -----------------  -----------------
       1        0.000010853644    -0.000035678600     0.000003224202
       2       -0.002569555198    -0.000647410989    -0.003432515457
       3       -0.003429457364     0.000878137190    -0.001006595033
       4        0.002613787502     0.000396329494     0.002996884471
       5        0.000029705808     0.000024097399     0.000128322186
       6        0.003274854907    -0.000622893958     0.001338549594
       7        0.000030918857     0.000018963647    -0.000047000965
       8        0.000036924656    -0.000033469008    -0.000009211653
       9        0.000023776818     0.000030643493    -0.000027774011
      10       -0.000032991798     0.000010838276     0.000056679726
      11        0.000003970718    -0.000010902690    -0.000017567267
      12        0.000002370808    -0.000005093776     0.000003615409
      13        0.000008364123    -0.000004650596     0.000014248562
      14       -0.000003523482     0.000001090116    -0.000000859763

  **** Optimization is complete! (in 5 steps) ****
    Final optimized geometry and variables:
    Molecular point group: c1

    Geometry (in Angstrom), charge = 0, multiplicity = 1:

    H           -0.278503560470    -1.436450500692     1.252084460244
    N            0.698754931374    -1.319029419413     1.428312075320
    C            1.191095577766    -0.081455002877     0.853696292524
    H            1.195773780727    -2.114258731807     1.082752293240
    C            0.558310962843     0.302374241284    -0.473247339785
    H            1.052018991793     0.723171224365     1.568522930501
    H            2.263995778866    -0.170959932025     0.709405699289
    O           -0.821282636549     0.420620010351    -0.286939554984
    H            0.974099197246     1.244248525644    -0.832143390844
    H            0.768478965310    -0.460262741401    -1.224456539319
    C           -1.534392707873     0.736598221671    -1.440091104063
    H           -2.580150306560     0.798489001884    -1.172007900073
    H           -1.219356440370     1.693114707273    -1.852383945252
    H           -1.410883613642    -0.026575945154    -2.206325348435

  Mulliken Charges: (a.u.)
   Center  Symbol    Alpha    Beta     Spin     Total
       1     H     0.32149  0.32149  0.00000  0.35701
       2     N     3.92777  3.92777  0.00000 -0.85555
       3     C     3.06518  3.06518  0.00000 -0.13036
       4     H     0.33391  0.33391  0.00000  0.33218
       5     C     2.99583  2.99583  0.00000  0.00834
       6     H     0.41214  0.41214  0.00000  0.17571
       7     H     0.42243  0.42243  0.00000  0.15514
       8     O     4.30662  4.30662  0.00000 -0.61324
       9     H     0.43099  0.43099  0.00000  0.13803
      10     H     0.43513  0.43513  0.00000  0.12975
      11     C     3.07921  3.07921  0.00000 -0.15842
      12     H     0.41107  0.41107  0.00000  0.17785
      13     H     0.42857  0.42857  0.00000  0.14287
      14     H     0.42965  0.42965  0.00000  0.14070

   Total alpha = 21.00000, Total beta = 21.00000, Total charge =  0.00000
