  ==> Input File <==

--------------------------------------------------------------------------
set {
	reference rhf
	basis 6-31G*
}

set_num_threads( 1 )
memory 2 gb

molecule MOL {
0 1

H	 2.591676	 2.013956	 0.335017
O	 3.341076	 1.666752	 -0.126416
C	 3.569581	 0.339145	 0.272707
C	 2.539767	 -0.640285	 -0.279495
H	 4.553106	 0.084646	 -0.100901
H	 3.608576	 0.269204	 1.359154
C	 1.115811	 -0.397273	 0.226630
H	 2.556196	 -0.582511	 -1.364741
H	 2.852081	 -1.648031	 -0.010655
C	 0.894264	 -0.927254	 1.646086
H	 0.410402	 -0.869723	 -0.451275
H	 0.902024	 0.671488	 0.207024
C	 -0.490849	 -0.633886	 2.234081
H	 1.070422	 -2.001338	 1.658738
H	 1.645572	 -0.489620	 2.300084
C	 -1.651824	 -1.346744	 1.535190
H	 -0.485785	 -0.925327	 3.282343
H	 -0.666764	 0.440688	 2.220612
C	 -2.998321	 -1.106990	 2.221412
H	 -1.450411	 -2.416628	 1.505352
H	 -1.722389	 -1.021024	 0.500187
C	 -4.159876	 -1.812231	 1.522064
H	 -2.941039	 -1.444172	 3.254134
H	 -3.196739	 -0.037896	 2.260838
H	 -4.006790	 -2.887440	 1.495325
H	 -5.099317	 -1.624793	 2.032900
H	 -4.267180	 -1.469294	 0.496762

	symmetry c1
}
set optking {
	frozen_dihedral = ("
		14 10 7 4,
		14 10 13 16,
		8 4 3 2,
		10 13 16 20,
		20 16 19 22,
		4 3 2 1
	")
}

ee = energy('scf')
oeprop('DIPOLE', 'QUADRUPOLE', 'MULLIKEN_CHARGES')
f=open( 'psi4out.xyz', 'w' )
f.write( "27  " )
f.write( str(ee) + "\n" )
f.write( MOL.save_string_xyz() )
f.close()
--------------------------------------------------------------------------

    Molecular point group: c1

    Geometry (in Angstrom), charge = 0, multiplicity = 1:

       Center              X                  Y                   Z               Mass
    ------------   -----------------  -----------------  -----------------  -----------------
           H          2.318207984289     2.518763719984    -0.676750678732     1.007825032070
           O          3.067607984289     2.171559719984    -1.138183678732    15.994914619560
           C          3.296112984289     0.843952719984    -0.739060678732    12.000000000000
           C          2.266298984289    -0.135477280016    -1.291262678732    12.000000000000
           H          4.279637984289     0.589453719984    -1.112668678732     1.007825032070
           H          3.335107984289     0.774011719984     0.347386321268     1.007825032070
           C          0.842342984289     0.107534719984    -0.785137678732    12.000000000000
           H          2.282727984289    -0.077703280016    -2.376508678732     1.007825032070
           H          2.578612984289    -1.143223280016    -1.022422678732     1.007825032070
           C          0.620795984289    -0.422446280016     0.634318321268    12.000000000000
           H          0.136933984289    -0.364915280016    -1.463042678732     1.007825032070
           H          0.628555984289     1.176295719984    -0.804743678732     1.007825032070
           C         -0.764317015711    -0.129078280016     1.222313321268    12.000000000000
           H          0.796953984289    -1.496530280016     0.646970321268     1.007825032070
           H          1.372103984289     0.015187719984     1.288316321268     1.007825032070
           C         -1.925292015711    -0.841936280016     0.523422321268    12.000000000000
           H         -0.759253015711    -0.420519280016     2.270575321268     1.007825032070
           H         -0.940232015711     0.945495719984     1.208844321268     1.007825032070
           C         -3.271789015711    -0.602182280016     1.209644321268    12.000000000000
           H         -1.723879015711    -1.911820280016     0.493584321268     1.007825032070
           H         -1.995857015711    -0.516216280016    -0.511580678732     1.007825032070
           C         -4.433344015711    -1.307423280016     0.510296321268    12.000000000000
           H         -3.214507015711    -0.939364280016     2.242366321268     1.007825032070
           H         -3.470207015711     0.466911719984     1.249070321268     1.007825032070
           H         -4.280258015711    -2.382632280016     0.483557321268     1.007825032070
           H         -5.372785015711    -1.119985280016     1.021132321268     1.007825032070
           H         -4.540648015711    -0.964486280016    -0.515005678732     1.007825032070

  Charge       = 0
  Multiplicity = 1
  Basis Set: 6-31G*
  Basis Set:

    Orbital Energies (a.u.)
    -----------------------

    Doubly Occupied:

       1A    -20.552336     2A    -11.266740     3A    -11.219887
       4A    -11.218712     5A    -11.217328     6A    -11.216746
       7A    -11.215115     8A    -11.215023     9A    -11.209855
      10A     -1.359221    11A     -1.096867    12A     -1.062504
      13A     -1.011094    14A     -0.947319    15A     -0.892117
      16A     -0.825525    17A     -0.799067    18A     -0.774879
      19A     -0.697456    20A     -0.647140    21A     -0.642950
      22A     -0.608958    23A     -0.605866    24A     -0.586709
      25A     -0.573686    26A     -0.562155    27A     -0.543325
      28A     -0.525961    29A     -0.509621    30A     -0.495741
      31A     -0.489956    32A     -0.472992    33A     -0.469222
      34A     -0.461689    35A     -0.449676    36A     -0.440124
      37A     -0.424437

  @DF-RHF Final Energy:  -388.27907226783111

   => Energetics <=

    Nuclear Repulsion Energy =            462.3976751636137124
    One-Electron Energy =               -1442.7376050099537679
    Two-Electron Energy =                 592.0608575785103085
    DFT Exchange-Correlation Energy =       0.0000000000000000
    Empirical Dispersion Energy =           0.0000000000000000
    PCM Polarization Energy =               0.0000000000000000
    EFP Energy =                            0.0000000000000000
    Total Energy =                       -388.2790722678297470

  Mulliken Charges: (a.u.)
   Center  Symbol    Alpha    Beta     Spin     Total
       1     H     0.27969  0.27969  0.00000  0.44062
       2     O     4.37094  4.37094  0.00000 -0.74187
       3     C     2.99894  2.99894  0.00000  0.00212
       4     C     3.16379  3.16379  0.00000 -0.32759
       5     H     0.41388  0.41388  0.00000  0.17223
       6     H     0.43061  0.43061  0.00000  0.13878
       7     C     3.16221  3.16221  0.00000 -0.32443
       8     H     0.41280  0.41280  0.00000  0.17441
       9     H     0.42375  0.42375  0.00000  0.15251
      10     C     3.15607  3.15607  0.00000 -0.31214
      11     H     0.41421  0.41421  0.00000  0.17158
      12     H     0.43120  0.43120  0.00000  0.13761
      13     C     3.15226  3.15226  0.00000 -0.30453
      14     H     0.42192  0.42192  0.00000  0.15615
      15     H     0.42295  0.42295  0.00000  0.15410
      16     C     3.15292  3.15292  0.00000 -0.30584
      17     H     0.42128  0.42128  0.00000  0.15744
      18     H     0.42539  0.42539  0.00000  0.14922
      19     C     3.15123  3.15123  0.00000 -0.30245
      20     H     0.42419  0.42419  0.00000  0.15162
      21     H     0.42184  0.42184  0.00000  0.15633
      22     C     3.23929  3.23929  0.00000 -0.47857
      23     H     0.42301  0.42301  0.00000  0.15399
      24     H     0.42308  0.42308  0.00000  0.15384
      25     H     0.42171  0.42171  0.00000  0.15658
      26     H     0.41912  0.41912  0.00000  0.16177
      27     H     0.42173  0.42173  0.00000  0.15655

   Total alpha = 37.00000, Total beta = 37.00000, Total charge = -0.00000
