  ==> Input File <==

--------------------------------------------------------------------------
set {
	reference rhf
	basis 6-31G*
}

set_num_threads( 4 )
memory 2 gb

molecule MOL {
0 1

O	 -2.439739	 -0.935931	 -0.423848
C	 -1.921153	 0.064240	 -0.045697
C	 -2.624470	 1.379923	 0.150949
O	 -0.632575	 0.154573	 0.251549
H	 -2.168117	 2.136577	 -0.476876
H	 -3.669540	 1.273223	 -0.098610
H	 -2.519365	 1.700893	 1.180846
C	 0.160891	 -1.019931	 0.106212
C	 1.589627	 -0.672828	 0.480843
H	 0.089836	 -1.367806	 -0.916050
H	 -0.238459	 -1.792301	 0.749618
C	 2.380193	 -1.844138	 1.066878
H	 1.549697	 0.139008	 1.204210
H	 2.098504	 -0.284576	 -0.397544
C	 3.804756	 -1.452827	 1.457385
H	 1.857837	 -2.227279	 1.941205
H	 2.410335	 -2.653715	 0.345051
H	 4.344423	 -2.299810	 1.868981
H	 3.805938	 -0.664853	 2.205297
H	 4.361881	 -1.092424	 0.597269

	symmetry c1
}
set optking {
	frozen_dihedral = ("
		12 9 8 10
	")
}

ee = optimize('scf')
oeprop('DIPOLE', 'QUADRUPOLE', 'MULLIKEN_CHARGES')
f=open( 'psi4out.xyz', 'w' )
f.write( "20  " )
f.write( str(ee) + "\n" )
f.write( MOL.save_string_xyz() )
f.close()
--------------------------------------------------------------------------

    Molecular point group: c1
  Charge       = 0
  Multiplicity = 1
  Basis Set: 6-31G*
  Basis Set:
  @DF-RHF Final Energy:  -383.94255360692711
    Total Energy =                       -383.9425536069273903
    Molecular point group: c1
  Basis Set: 6-31G*
  Basis Set:
  Basis Set: 6-31G*
  Basis Set:
  @DF-RHF Final Energy:  -383.94276060433089
    Total Energy =                       -383.9427606043308288
  Basis Set: 6-31G*
  Basis Set:
  Basis Set: 6-31G*
  Basis Set:
  @DF-RHF Final Energy:  -383.94275238472073
    Total Energy =                       -383.9427523847207340
  Basis Set: 6-31G*
  Basis Set:
  Basis Set: 6-31G*
  Basis Set:
  @DF-RHF Final Energy:  -383.94293437436141
    Total Energy =                       -383.9429343743613003
  Basis Set: 6-31G*
  Basis Set:
  Basis Set: 6-31G*
  Basis Set:
  @DF-RHF Final Energy:  -383.94293366104409
    Total Energy =                       -383.9429336610442078
  Basis Set: 6-31G*
  Basis Set:
  Basis Set: 6-31G*
  Basis Set:
  @DF-RHF Final Energy:  -383.94293877218445
    Total Energy =                       -383.9429387721848457
  Basis Set: 6-31G*
  Basis Set:
  Charge       = 0
  Multiplicity = 1
  Basis Set: 6-31G*
  Basis Set:

    Orbital Energies (a.u.)
    -----------------------

    Doubly Occupied:

       1A    -20.600425     2A    -20.543046     3A    -11.373364
       4A    -11.282121     5A    -11.232571     6A    -11.226245
       7A    -11.224269     8A    -11.215747     9A     -1.466654
      10A     -1.360844    11A     -1.087014    12A     -1.029188
      13A     -0.980075    14A     -0.881511    15A     -0.808352
      16A     -0.775928    17A     -0.691055    18A     -0.684514
      19A     -0.667265    20A     -0.636905    21A     -0.596526
      22A     -0.593621    23A     -0.570029    24A     -0.558670
      25A     -0.544853    26A     -0.518943    27A     -0.509636
      28A     -0.483964    29A     -0.481823    30A     -0.474913
      31A     -0.451104    32A     -0.436334

  @DF-RHF Final Energy:  -383.94293873644170

   => Energetics <=

    Nuclear Repulsion Energy =            378.9119299517296326
    One-Electron Energy =               -1273.7347244224854421
    Two-Electron Energy =                 510.8798557343142193
    DFT Exchange-Correlation Energy =       0.0000000000000000
    Empirical Dispersion Energy =           0.0000000000000000
    PCM Polarization Energy =               0.0000000000000000
    EFP Energy =                            0.0000000000000000
    Total Energy =                       -383.9429387364415334
    Molecular point group: c1
  Basis Set: 6-31G*
  Basis Set:

  -Total Gradient:
     Atom            X                  Y                   Z
    ------   -----------------  -----------------  -----------------
       1        0.000019586200     0.000013479378     0.000000097704
       2       -0.000026831001    -0.000020632707    -0.000010686136
       3        0.000002783478     0.000000548217     0.000006757702
       4        0.000021524505    -0.000006026771    -0.000018013124
       5       -0.000001426442     0.000000718123    -0.000001777040
       6       -0.000000770403     0.000001706807    -0.000000358336
       7        0.000002177358    -0.000000854587    -0.000002179471
       8        0.000533196977    -0.005129166327     0.002854932658
       9        0.001199103863     0.000159776504    -0.004448903186
      10       -0.000761431672     0.004269295177    -0.001306070014
      11        0.000000604638    -0.000001047665    -0.000006837282
      12       -0.000990411554     0.000721426990     0.002937462160
      13        0.000007929221    -0.000000874755    -0.000007342005
      14        0.000003871374    -0.000002207372     0.000006479581
      15       -0.000003982743    -0.000000449751     0.000014691750
      16       -0.000005755912    -0.000003207987    -0.000008579574
      17        0.000006724155    -0.000003238559    -0.000010573427
      18       -0.000005424766     0.000002151415     0.000007930005
      19        0.000001603833     0.000007000379    -0.000004765079
      20       -0.000003071106    -0.000008396508    -0.000002266884

  **** Optimization is complete! (in 7 steps) ****
    Final optimized geometry and variables:
    Molecular point group: c1

    Geometry (in Angstrom), charge = 0, multiplicity = 1:

    O           -2.459799461334    -0.406601806482    -0.824998927489
    C           -1.951853915991     0.596155339996    -0.438150539372
    C           -2.665685750004     1.908002894762    -0.252362437655
    O           -0.670965298249     0.691897678443    -0.113906409180
    H           -2.200750944894     2.668212294319    -0.869429936069
    H           -3.705128151047     1.796551934480    -0.522621248061
    H           -2.582347242074     2.227147339172     0.780117290476
    C            0.131532917614    -0.481318571496    -0.246404617061
    C            1.557453031018    -0.108420199287     0.140956457515
    H            0.064877906934    -0.807427675258    -1.274930995474
    H           -0.274674582240    -1.254591318868     0.391219216591
    C            2.344365407928    -1.297525074831     0.697220312368
    H            1.508706737989     0.666738937600     0.899599314789
    H            2.071259077164     0.323189797227    -0.713061333806
    C            3.788262686638    -0.938248578643     1.043626857568
    H            1.840193168019    -1.670988619337     1.585123196241
    H            2.340290302948    -2.113780372671    -0.022816748726
    H            4.317568805050    -1.793606050620     1.450988984041
    H            3.826967025612    -0.141991332455     1.781442245451
    H            4.330181871956    -0.600998174566     0.164882929421

  Mulliken Charges: (a.u.)
   Center  Symbol    Alpha    Beta     Spin     Total
       1     O     4.28402  4.28402  0.00000 -0.56803
       2     C     2.62014  2.62014  0.00000  0.75971
       3     C     3.28147  3.28147  0.00000 -0.56295
       4     O     4.31132  4.31132  0.00000 -0.62263
       5     H     0.40069  0.40069  0.00000  0.19862
       6     H     0.39714  0.39714  0.00000  0.20572
       7     H     0.40080  0.40080  0.00000  0.19839
       8     C     2.99725  2.99725  0.00000  0.00549
       9     C     3.16649  3.16649  0.00000 -0.33297
      10     H     0.40894  0.40894  0.00000  0.18211
      11     H     0.40975  0.40975  0.00000  0.18050
      12     C     3.16050  3.16050  0.00000 -0.32100
      13     H     0.40994  0.40994  0.00000  0.18012
      14     H     0.41533  0.41533  0.00000  0.16933
      15     C     3.23986  3.23986  0.00000 -0.47972
      16     H     0.41901  0.41901  0.00000  0.16199
      17     H     0.42033  0.42033  0.00000  0.15935
      18     H     0.41697  0.41697  0.00000  0.16606
      19     H     0.41998  0.41998  0.00000  0.16005
      20     H     0.42008  0.42008  0.00000  0.15984

   Total alpha = 32.00000, Total beta = 32.00000, Total charge =  0.00000
