  ==> Input File <==

--------------------------------------------------------------------------
set {
	reference rhf
	basis cc-pvtz
}

set_num_threads( 4 )
memory 2 gb

molecule MOL {
0 1

O	 -2.374409	 1.338660	 -0.336961
C	 -2.104891	 0.204655	 -0.107126
C	 -0.881910	 -0.448129	 -0.720509
C	 -2.949910	 -0.638219	 0.818225
C	 0.347158	 -0.269973	 0.179766
H	 -0.702925	 0.025463	 -1.677476
H	 -1.064432	 -1.503838	 -0.890889
C	 1.600887	 -0.904629	 -0.418467
H	 0.498726	 0.789760	 0.341691
H	 0.154519	 -0.711415	 1.154608
C	 2.846057	 -0.807864	 0.464764
H	 1.807967	 -0.445477	 -1.381938
H	 1.399674	 -1.953501	 -0.618429
C	 3.368626	 0.610925	 0.676515
H	 3.631844	 -1.404498	 0.012135
H	 2.638120	 -1.264106	 1.429097
H	 3.579551	 1.093503	 -0.272284
H	 4.287370	 0.598870	 1.251436
H	 2.658975	 1.230287	 1.211367
H	 -3.440322	 -1.417144	 0.243099
H	 -3.694377	 -0.025850	 1.303346
H	 -2.331085	 -1.129829	 1.560495

	symmetry c1
}
set optking {
	frozen_dihedral = ("
		6 3 2 1
	")
}

ee = optimize('scf')
oeprop('DIPOLE', 'QUADRUPOLE', 'MULLIKEN_CHARGES')
f=open( 'psi4out.xyz', 'w' )
f.write( "22  " )
f.write( str(ee) + "\n" )
f.write( MOL.save_string_xyz() )
f.close()
--------------------------------------------------------------------------

    Molecular point group: c1
  Charge       = 0
  Multiplicity = 1
  Basis Set: CC-PVTZ
  Basis Set:
  @DF-RHF Final Energy:  -348.22346269136074
    Total Energy =                       -348.2234626913605098
    Molecular point group: c1
  Basis Set: CC-PVTZ
  Basis Set:
  Basis Set: CC-PVTZ
  Basis Set:
  @DF-RHF Final Energy:  -348.22334881739533
    Total Energy =                       -348.2233488173959586
  Basis Set: CC-PVTZ
  Basis Set:
  Basis Set: CC-PVTZ
  Basis Set:
  @DF-RHF Final Energy:  -348.22347221081964
    Total Energy =                       -348.2234722108195797
  Basis Set: CC-PVTZ
  Basis Set:
  Basis Set: CC-PVTZ
  Basis Set:
  @DF-RHF Final Energy:  -348.22345675822100
    Total Energy =                       -348.2234567582208911
  Basis Set: CC-PVTZ
  Basis Set:
  Basis Set: CC-PVTZ
  Basis Set:
  @DF-RHF Final Energy:  -348.22347640328968
    Total Energy =                       -348.2234764032896805
  Basis Set: CC-PVTZ
  Basis Set:
  Charge       = 0
  Multiplicity = 1
  Basis Set: CC-PVTZ
  Basis Set:

    Orbital Energies (a.u.)
    -----------------------

    Doubly Occupied:

       1A    -20.536819     2A    -11.319136     3A    -11.228600
       4A    -11.227583     5A    -11.226682     6A    -11.221135
       7A    -11.219518     8A    -11.209994     9A     -1.396775
      10A     -1.097997    11A     -1.046097    12A     -0.999824
      13A     -0.939331    14A     -0.859320    15A     -0.787843
      16A     -0.734301    17A     -0.664544    18A     -0.646660
      19A     -0.629048    20A     -0.622092    21A     -0.598626
      22A     -0.585051    23A     -0.563803    24A     -0.539501
      25A     -0.536900    26A     -0.522087    27A     -0.499076
      28A     -0.491438    29A     -0.472266    30A     -0.465495
      31A     -0.462899    32A     -0.398489

  @DF-RHF Final Energy:  -348.22347622895768

   => Energetics <=

    Nuclear Repulsion Energy =            373.5765687564610289
    One-Electron Energy =               -1212.1022303601287149
    Two-Electron Energy =                 490.3021853747105752
    DFT Exchange-Correlation Energy =       0.0000000000000000
    Empirical Dispersion Energy =           0.0000000000000000
    PCM Polarization Energy =               0.0000000000000000
    EFP Energy =                            0.0000000000000000
    Total Energy =                       -348.2234762289571108
    Molecular point group: c1
  Basis Set: CC-PVTZ
  Basis Set:

  -Total Gradient:
     Atom            X                  Y                   Z
    ------   -----------------  -----------------  -----------------
       1       -0.000172432249    -0.000109505414    -0.000286727913
       2        0.000337042668     0.000175396711     0.000510409575
       3       -0.000282391315    -0.000342916658    -0.000242668776
       4       -0.000077147493     0.000002964184    -0.000074052310
       5       -0.000022517746     0.000072570513    -0.000002934650
       6        0.000211344102     0.000220522226     0.000130170801
       7        0.000019181307     0.000027105461    -0.000025697694
       8       -0.000010933252    -0.000006792728    -0.000056477608
       9       -0.000045929535    -0.000035823248    -0.000026150370
      10       -0.000039794467     0.000001586195     0.000012870609
      11       -0.000041904765     0.000005260348     0.000047494619
      12        0.000000278069     0.000017105106    -0.000000308109
      13        0.000027547021    -0.000013493895    -0.000022650781
      14        0.000021194060     0.000001201827    -0.000005592491
      15       -0.000009084122    -0.000012769081     0.000004784670
      16       -0.000004177595     0.000010712391     0.000011479141
      17       -0.000005285469     0.000010760233    -0.000005280744
      18        0.000006113539    -0.000004766916    -0.000010451208
      19        0.000041244825    -0.000017087753     0.000003750376
      20        0.000003308957    -0.000022370216     0.000018258223
      21       -0.000004319582     0.000012030461     0.000008793589
      22        0.000048663044     0.000008310249     0.000010981050

  **** Optimization is complete! (in 6 steps) ****
    Final optimized geometry and variables:
    Molecular point group: c1

    Geometry (in Angstrom), charge = 0, multiplicity = 1:

    O           -2.365314948696     1.438193312723    -0.419786693812
    C           -2.091112745648     0.306323816478    -0.185078885302
    C           -0.865512473926    -0.345441366869    -0.792714052603
    C           -2.941974099382    -0.538190717853     0.734232588564
    C            0.365039902445    -0.163187173847     0.105217396354
    H           -0.686930030987     0.124298423092    -1.751171353832
    H           -1.047637841553    -1.402621423975    -0.956113409223
    C            1.618081969227    -0.796980557051    -0.495779163905
    H            0.516808376135     0.897360202721     0.264061706673
    H            0.177221756026    -0.602411699017     1.081590493718
    C            2.864505388820    -0.702527716747     0.385852263755
    H            1.824058496451    -0.336448897081    -1.458741328257
    H            1.415901878885    -1.845387002605    -0.697116755822
    C            3.392953855136     0.714700145960     0.593436963261
    H            3.647399504812    -1.303236972015    -0.066345888282
    H            2.656127545144    -1.155701668286     1.351536488710
    H            3.603565450458     1.194543565308    -0.356808293183
    H            4.312938477749     0.700273056559     1.166272233799
    H            2.687047302850     1.337940525865     1.128757210404
    H           -3.446030599017    -1.300909127021     0.149208422308
    H           -3.676882859535     0.077973008959     1.229053682551
    H           -2.329898788150    -1.049315238801     1.468290605435

  Mulliken Charges: (a.u.)
   Center  Symbol    Alpha    Beta     Spin     Total
       1     O     4.17730  4.17730  0.00000 -0.35459
       2     C     2.85868  2.85868  0.00000  0.28265
       3     C     3.09584  3.09584  0.00000 -0.19167
       4     C     3.15552  3.15552  0.00000 -0.31104
       5     C     3.10612  3.10612  0.00000 -0.21224
       6     H     0.43876  0.43876  0.00000  0.12248
       7     H     0.44875  0.44875  0.00000  0.10251
       8     C     3.09657  3.09657  0.00000 -0.19313
       9     H     0.43935  0.43935  0.00000  0.12129
      10     H     0.45166  0.45166  0.00000  0.09668
      11     C     3.09075  3.09075  0.00000 -0.18150
      12     H     0.45047  0.45047  0.00000  0.09906
      13     H     0.44873  0.44873  0.00000  0.10254
      14     C     3.15166  3.15166  0.00000 -0.30333
      15     H     0.44751  0.44751  0.00000  0.10498
      16     H     0.45469  0.45469  0.00000  0.09062
      17     H     0.45368  0.45368  0.00000  0.09263
      18     H     0.44610  0.44610  0.00000  0.10780
      19     H     0.45263  0.45263  0.00000  0.09474
      20     H     0.44845  0.44845  0.00000  0.10311
      21     H     0.43589  0.43589  0.00000  0.12823
      22     H     0.45090  0.45090  0.00000  0.09819

   Total alpha = 32.00000, Total beta = 32.00000, Total charge = -0.00000
