  ==> Input File <==

--------------------------------------------------------------------------
set {
	reference rhf
	basis 6-31G*
}

set_num_threads( 1 )
memory 2 gb

molecule MOL {
0 1

H	 -1.310591	 1.296991	 -2.973230
O	 -1.661867	 0.789011	 -2.255630
C	 -0.871036	 0.977020	 -1.112727
C	 0.444260	 0.226350	 -1.222994
H	 -0.676667	 2.029868	 -0.928093
H	 -1.435481	 0.594678	 -0.273879
O	 1.171513	 0.459272	 -0.058250
H	 0.999953	 0.570723	 -2.097404
H	 0.248511	 -0.835637	 -1.358827
C	 2.397842	 -0.198080	 -0.002151
H	 2.508049	 -0.905315	 -0.822092
H	 3.173794	 0.550865	 -0.078850
H	 2.517602	 -0.735921	 0.936026

	symmetry c1
}
set optking {
	frozen_dihedral = ("
		8 4 3 5,
		1 2 3 5,
		10 7 4 8
	")
}

ee = energy('scf')
oeprop('DIPOLE', 'QUADRUPOLE', 'MULLIKEN_CHARGES')
f=open( 'psi4out.xyz', 'w' )
f.write( "13  " )
f.write( str(ee) + "\n" )
f.write( MOL.save_string_xyz() )
f.close()
--------------------------------------------------------------------------

    Molecular point group: c1

    Geometry (in Angstrom), charge = 0, multiplicity = 1:

       Center              X                  Y                   Z               Mass
    ------------   -----------------  -----------------  -----------------  -----------------
           H         -1.598312758926     0.841831404971    -2.017040063706     1.007825032070
           O         -1.949588758926     0.333851404971    -1.299440063706    15.994914619560
           C         -1.158757758926     0.521860404971    -0.156537063706    12.000000000000
           C          0.156538241074    -0.228809595029    -0.266804063706    12.000000000000
           H         -0.964388758926     1.574708404971     0.028096936294     1.007825032070
           H         -1.723202758926     0.139518404971     0.682310936294     1.007825032070
           O          0.883791241074     0.004112404971     0.897939936294    15.994914619560
           H          0.712231241074     0.115563404971    -1.141214063706     1.007825032070
           H         -0.039210758926    -1.290796595029    -0.402637063706     1.007825032070
           C          2.110120241074    -0.653239595029     0.954038936294    12.000000000000
           H          2.220327241074    -1.360474595029     0.134097936294     1.007825032070
           H          2.886072241074     0.095705404971     0.877339936294     1.007825032070
           H          2.229880241074    -1.191080595029     1.892215936294     1.007825032070

  Charge       = 0
  Multiplicity = 1
  Basis Set: 6-31G*
  Basis Set:

    Orbital Energies (a.u.)
    -----------------------

    Doubly Occupied:

       1A    -20.559977     2A    -20.559214     3A    -11.271516
       4A    -11.269332     5A    -11.268606     6A     -1.387737
       7A     -1.364953     8A     -1.017921     9A     -0.913018
      10A     -0.842888    11A     -0.709169    12A     -0.673126
      13A     -0.658063    14A     -0.637340    15A     -0.597502
      16A     -0.568529    17A     -0.546682    18A     -0.490196
      19A     -0.482924    20A     -0.438198    21A     -0.416504

  @DF-RHF Final Energy:  -267.94631207600537

   => Energetics <=

    Nuclear Repulsion Energy =            190.2871202202479139
    One-Electron Energy =                -743.1200921448637473
    Two-Electron Energy =                 284.8866598486102362
    DFT Exchange-Correlation Energy =       0.0000000000000000
    Empirical Dispersion Energy =           0.0000000000000000
    PCM Polarization Energy =               0.0000000000000000
    EFP Energy =                            0.0000000000000000
    Total Energy =                       -267.9463120760055403

  Mulliken Charges: (a.u.)
   Center  Symbol    Alpha    Beta     Spin     Total
       1     H     0.28131  0.28131  0.00000  0.43738
       2     O     4.37086  4.37086  0.00000 -0.74172
       3     C     3.00497  3.00497  0.00000 -0.00995
       4     C     2.99826  2.99826  0.00000  0.00348
       5     H     0.42234  0.42234  0.00000  0.15532
       6     H     0.40843  0.40843  0.00000  0.18314
       7     O     4.30945  4.30945  0.00000 -0.61889
       8     H     0.43750  0.43750  0.00000  0.12501
       9     H     0.42252  0.42252  0.00000  0.15496
      10     C     3.07791  3.07791  0.00000 -0.15581
      11     H     0.42820  0.42820  0.00000  0.14360
      12     H     0.42096  0.42096  0.00000  0.15808
      13     H     0.41729  0.41729  0.00000  0.16542

   Total alpha = 21.00000, Total beta = 21.00000, Total charge =  0.00000
