                              Psi4 1.0.54 Driver

  ==> Input File <==

--------------------------------------------------------------------------
set {
	reference rhf
	basis cc-pvtz
}

set_num_threads( 4 )
memory 2 gb

molecule MOL {
0 1

H	 -3.258660	 -0.290394	 1.471450
C	 -3.307964	 -0.275695	 0.374072
C	 -2.653809	 0.914422	 -0.273689
O	 -3.855140	 -1.148880	 -0.205112
C	 -1.154777	 0.710131	 -0.512107
H	 -3.177655	 1.136748	 -1.194281
H	 -2.796785	 1.753732	 0.403380
C	 -0.840553	 -0.356853	 -1.558525
H	 -0.724814	 1.656428	 -0.821934
H	 -0.672639	 0.453122	 0.427938
C	 0.656350	 -0.541364	 -1.793081
H	 -1.322956	 -0.088487	 -2.494674
H	 -1.275896	 -1.306439	 -1.258205
C	 0.967234	 -1.600606	 -2.848829
H	 1.086704	 0.411683	 -2.084360
H	 1.134604	 -0.819412	 -0.856459
C	 2.456444	 -1.879095	 -3.060009
H	 0.521152	 -1.305077	 -3.795644
H	 0.480745	 -2.528887	 -2.562601
C	 3.246689	 -0.713699	 -3.650305
H	 2.553847	 -2.734763	 -3.720871
H	 2.903290	 -2.175459	 -2.114598
H	 2.818386	 -0.391266	 -4.594015
H	 3.265756	 0.142111	 -2.986293
H	 4.274669	 -1.002362	 -3.837111

	symmetry c1
}
set optking {
	frozen_dihedral = ("
		6 3 2 4
	")
}

ee,wfn = optimize('scf', return_wfn=True)
oeprop( wfn, 'DIPOLE', 'QUADRUPOLE', 'MULLIKEN_CHARGES')
f=open( 'psi4out.xyz', 'w' )
f.write( "25  " )
f.write( str(ee) + "\n" )
f.write( MOL.save_string_xyz() )
f.close()
--------------------------------------------------------------------------

    Molecular point group: c1
  Charge       = 0
  Multiplicity = 1
  Basis Set: CC-PVTZ
  Basis Set:
  @DF-RHF Final Energy:  -387.25870038434334
    Total Energy =                       -387.2587003843432285
    Molecular point group: c1
  Basis Set: CC-PVTZ
  Basis Set:
  Basis Set: CC-PVTZ
  Basis Set:
  @DF-RHF Final Energy:  -387.25685194872733
    Total Energy =                       -387.2568519487273306
  Basis Set: CC-PVTZ
  Basis Set:
  Basis Set: CC-PVTZ
  Basis Set:
  @DF-RHF Final Energy:  -387.25881088057713
    Total Energy =                       -387.2588108805771299
  Basis Set: CC-PVTZ
  Basis Set:
  Basis Set: CC-PVTZ
  Basis Set:
  @DF-RHF Final Energy:  -387.25897854629619
    Total Energy =                       -387.2589785462959071
  Basis Set: CC-PVTZ
  Basis Set:
  Basis Set: CC-PVTZ
  Basis Set:
  @DF-RHF Final Energy:  -387.25898127164652
    Total Energy =                       -387.2589812716463484
  Basis Set: CC-PVTZ
  Basis Set:
  Basis Set: CC-PVTZ
  Basis Set:
  @DF-RHF Final Energy:  -387.25898359500661
    Total Energy =                       -387.2589835950067254
  Basis Set: CC-PVTZ
  Basis Set:
  Charge       = 0
  Multiplicity = 1
  Basis Set: CC-PVTZ
  Basis Set:

    Orbital Energies (a.u.)
    -----------------------

    Doubly Occupied:

       1A    -20.552240     2A    -11.321369     3A    -11.233773
       4A    -11.233021     5A    -11.215664     6A    -11.214050
       7A    -11.213753     8A    -11.211824     9A    -11.206863
      10A     -1.407110    11A     -1.101469    12A     -1.068091
      13A     -1.012332    14A     -0.942262    15A     -0.874753
      16A     -0.816700    17A     -0.786129    18A     -0.777857
      19A     -0.676348    20A     -0.662815    21A     -0.633240
      22A     -0.619787    23A     -0.597233    24A     -0.587739
      25A     -0.581121    26A     -0.551812    27A     -0.537511
      28A     -0.519955    29A     -0.509602    30A     -0.496293
      31A     -0.488480    32A     -0.476420    33A     -0.461969
      34A     -0.456432    35A     -0.440264    36A     -0.410861

  @DF-RHF Final Energy:  -387.25898363682626

   => Energetics <=

    Nuclear Repulsion Energy =            442.2820686769558165
    One-Electron Energy =               -1401.2878203183913683
    Two-Electron Energy =                 571.7467680046087253
    DFT Exchange-Correlation Energy =       0.0000000000000000
    Empirical Dispersion Energy =           0.0000000000000000
    PCM Polarization Energy =               0.0000000000000000
    EFP Energy =                            0.0000000000000000
    Total Energy =                       -387.2589836368268834
    Molecular point group: c1
  Basis Set: CC-PVTZ
  Basis Set:

  -Total Gradient:
     Atom            X                  Y                   Z
    ------   -----------------  -----------------  -----------------
       1        0.000011738771    -0.000002804506     0.000000960144
       2       -0.003283093532     0.001936139171     0.000256053262
       3        0.002652725525    -0.002174635697    -0.001215959217
       4        0.002018961487    -0.001127830966    -0.000024813915
       5       -0.000000970959    -0.000001116597     0.000001327319
       6       -0.001406097050     0.001351349782     0.000988869126
       7        0.000009083224     0.000006449550     0.000005334224
       8        0.000009916858     0.000011691878    -0.000019247259
       9       -0.000005060653    -0.000000613819    -0.000005374192
      10       -0.000004663260     0.000003476648     0.000006674660
      11       -0.000004390963     0.000001171562     0.000011269541
      12       -0.000000866431     0.000002102713    -0.000000976518
      13       -0.000002311146    -0.000001156404    -0.000001629038
      14        0.000004425891     0.000003182497    -0.000006562294
      15       -0.000015415527    -0.000009768497    -0.000000991118
      16        0.000006106205     0.000003783704     0.000001596147
      17        0.000002344365     0.000002284162     0.000015469540
      18        0.000000770713     0.000006324692     0.000002147562
      19       -0.000000801913    -0.000001536786    -0.000005044487
      20        0.000002051987    -0.000002831768    -0.000005404578
      21        0.000000253297    -0.000001734256     0.000003363105
      22        0.000000980513     0.000003320508     0.000001224396
      23       -0.000000882664     0.000003285628    -0.000000465934
      24        0.000006945184    -0.000008823137    -0.000004574239
      25       -0.000001749920    -0.000001710061    -0.000003246237

  **** Optimization is complete! (in 7 steps) ****
    Final optimized geometry and variables:
    Molecular point group: c1

    Geometry (in Angstrom), charge = 0, multiplicity = 1:

    H           -2.776380152478     0.313486484716     2.953050986596
    C           -2.848667050009     0.290246128840     1.857920030087
    C           -2.219713946939     1.458541162498     1.145263074767
    O           -3.355854919714    -0.633374987722     1.320745451692
    C           -0.710835998246     1.255379020995     0.935127572127
    H           -2.730632245563     1.607738898978     0.202251000668
    H           -2.375048330189     2.344896257735     1.752559524517
    C           -0.360299473397     0.189309985093    -0.099958004418
    H           -0.285460827511     2.205629264175     0.630667796394
    H           -0.246321795954     1.009388962524     1.887274837072
    C            1.145625148557     0.011596565832    -0.276977923422
    H           -0.806109148685     0.462668928561    -1.052648195549
    H           -0.806754519582    -0.758404703240     0.180248501813
    C            1.499078452311    -1.040873916120    -1.326143656124
    H            1.586325442446     0.966801421653    -0.545545474564
    H            1.587911475795    -0.272273113653     0.675567271702
    C            2.995369339833    -1.320082964812    -1.477592527864
    H            1.092922969232    -0.738361335179    -2.288637269022
    H            0.999843579851    -1.970027409552    -1.066473861271
    C            3.810760616935    -0.152095104251    -2.027243230746
    H            3.119139859376    -2.171676844146    -2.139400697611
    H            3.402526691717    -1.623077331649    -0.516476746045
    H            3.421230378710     0.177876914493    -2.985080940768
    H            3.804333301150     0.698961428603    -1.356896421448
    H            4.845040884808    -0.441281180749    -2.174683822981

  Mulliken Charges: (a.u.)
   Center  Symbol    Alpha    Beta     Spin     Total
       1     H     0.46031  0.46031  0.00000  0.07937
       2     C     2.90917  2.90917  0.00000  0.18167
       3     C     3.08977  3.08977  0.00000 -0.17955
       4     O     4.16791  4.16791  0.00000 -0.33581
       5     C     3.11059  3.11059  0.00000 -0.22118
       6     H     0.44345  0.44345  0.00000  0.11310
       7     H     0.44265  0.44265  0.00000  0.11470
       8     C     3.08761  3.08761  0.00000 -0.17522
       9     H     0.44399  0.44399  0.00000  0.11203
      10     H     0.45125  0.45125  0.00000  0.09751
      11     C     3.09288  3.09288  0.00000 -0.18577
      12     H     0.45289  0.45289  0.00000  0.09422
      13     H     0.44212  0.44212  0.00000  0.11576
      14     C     3.09549  3.09549  0.00000 -0.19098
      15     H     0.45290  0.45290  0.00000  0.09420
      16     H     0.45480  0.45480  0.00000  0.09041
      17     C     3.09058  3.09058  0.00000 -0.18116
      18     H     0.45347  0.45347  0.00000  0.09306
      19     H     0.44726  0.44726  0.00000  0.10549
      20     C     3.15267  3.15267  0.00000 -0.30534
      21     H     0.44795  0.44795  0.00000  0.10411
      22     H     0.45485  0.45485  0.00000  0.09030
      23     H     0.45479  0.45479  0.00000  0.09043
      24     H     0.45447  0.45447  0.00000  0.09106
      25     H     0.44620  0.44620  0.00000  0.10760

   Total alpha = 36.00000, Total beta = 36.00000, Total charge = -0.00000

*** Psi4 exiting successfully. Buy a developer a beer!
