  ==> Input File <==

--------------------------------------------------------------------------
set {
	reference rhf
	basis cc-pvtz
}

set_num_threads( 4 )
memory 2 gb

molecule MOL {
0 1

H	 -2.816458	 -0.841657	 -0.064679
N	 -1.878861	 -0.711874	 0.250184
C	 -1.341419	 0.551458	 -0.220231
H	 -1.333674	 -1.468530	 -0.105118
C	 0.082190	 0.731516	 0.254705
H	 -1.357065	 0.652078	 -1.304747
H	 -1.939897	 1.357530	 0.189797
O	 0.776860	 -0.462793	 0.057813
H	 0.558398	 1.537365	 -0.302078
H	 0.084730	 0.997852	 1.309213
C	 2.086818	 -0.450167	 0.519410
H	 2.521715	 -1.417239	 0.311994
H	 2.677871	 0.313237	 0.017846
H	 2.129375	 -0.269156	 1.590851

	symmetry c1
}
set optking {
	frozen_dihedral = ("
		8 5 3 6
	")
}

ee = optimize('scf')
oeprop('DIPOLE', 'QUADRUPOLE', 'MULLIKEN_CHARGES')
f=open( 'psi4out.xyz', 'w' )
f.write( "14  " )
f.write( str(ee) + "\n" )
f.write( MOL.save_string_xyz() )
f.close()
--------------------------------------------------------------------------

    Molecular point group: c1
  Charge       = 0
  Multiplicity = 1
  Basis Set: CC-PVTZ
  Basis Set:
  @DF-RHF Final Energy:  -248.22336404839584
    Total Energy =                       -248.2233640483956947
    Molecular point group: c1
  Basis Set: CC-PVTZ
  Basis Set:
  Basis Set: CC-PVTZ
  Basis Set:
  @DF-RHF Final Energy:  -248.22382094189268
    Total Energy =                       -248.2238209418928818
  Basis Set: CC-PVTZ
  Basis Set:
  Basis Set: CC-PVTZ
  Basis Set:
  @DF-RHF Final Energy:  -248.22395943446830
    Total Energy =                       -248.2239594344683837
  Basis Set: CC-PVTZ
  Basis Set:
  Basis Set: CC-PVTZ
  Basis Set:
  @DF-RHF Final Energy:  -248.22396495851646
    Total Energy =                       -248.2239649585166035
  Basis Set: CC-PVTZ
  Basis Set:
  Charge       = 0
  Multiplicity = 1
  Basis Set: CC-PVTZ
  Basis Set:

    Orbital Energies (a.u.)
    -----------------------

    Doubly Occupied:

       1A    -20.550687     2A    -15.522088     3A    -11.265228
       4A    -11.263782     5A    -11.240276     6A     -1.385178
       7A     -1.175113     8A     -0.999717     9A     -0.909547
      10A     -0.814206    11A     -0.685541    12A     -0.677412
      13A     -0.647666    14A     -0.611115    15A     -0.607512
      16A     -0.545757    17A     -0.527867    18A     -0.495609
      19A     -0.474736    20A     -0.421034    21A     -0.380327

  @DF-RHF Final Energy:  -248.22396521097252

   => Energetics <=

    Nuclear Repulsion Energy =            195.1566359065522249
    One-Electron Energy =                -724.3604083023251405
    Two-Electron Energy =                 280.9798071848002223
    DFT Exchange-Correlation Energy =       0.0000000000000000
    Empirical Dispersion Energy =           0.0000000000000000
    PCM Polarization Energy =               0.0000000000000000
    EFP Energy =                            0.0000000000000000
    Total Energy =                       -248.2239652109727217
    Molecular point group: c1
  Basis Set: CC-PVTZ
  Basis Set:

  -Total Gradient:
     Atom            X                  Y                   Z
    ------   -----------------  -----------------  -----------------
       1       -0.000008663548    -0.000012028801     0.000002336232
       2       -0.000006871825     0.000001277255     0.000009675394
       3        0.000894610434    -0.008248904181     0.000497388784
       4        0.000000720837    -0.000006025976    -0.000005571780
       5        0.001527040538     0.003612821038    -0.005742772364
       6       -0.001022664009     0.006258605168     0.000716277361
       7       -0.000005117189     0.000009460507     0.000004567510
       8       -0.001368554408    -0.001620650595     0.004514861351
       9        0.000011251729    -0.000007695964     0.000000326408
      10       -0.000001131744     0.000001496650     0.000002917053
      11       -0.000012422005     0.000014036691     0.000002849811
      12       -0.000010654579    -0.000000967202    -0.000003125931
      13        0.000001021640     0.000000150729    -0.000002750306
      14        0.000001434133    -0.000001575319     0.000003020477

  **** Optimization is complete! (in 5 steps) ****
    Final optimized geometry and variables:
    Molecular point group: c1

    Geometry (in Angstrom), charge = 0, multiplicity = 1:

    H           -2.800686931788    -0.731168278638    -0.254131028159
    N           -1.873488311236    -0.607013119528     0.090897842670
    C           -1.295333020409     0.623522628136    -0.402147408457
    H           -1.326329637993    -1.389049488422    -0.196943057005
    C            0.128702121572     0.799152349218     0.091018425329
    H           -1.318565359138     0.745985474420    -1.485465964270
    H           -1.871506151733     1.455246463752    -0.007543933261
    O            0.843756239302    -0.379245060049    -0.119506538984
    H            0.599069676579     1.632865442684    -0.426988184800
    H            0.117692581211     1.026573040488     1.155315498303
    C            2.151030501074    -0.349976560059     0.347825817175
    H            2.600146795387    -1.310157725176     0.138958023544
    H            2.734489825130     0.423601186800    -0.146862504569
    H            2.184490785605    -0.173385185363     1.420407266712

  Mulliken Charges: (a.u.)
   Center  Symbol    Alpha    Beta     Spin     Total
       1     H     0.43037  0.43037  0.00000  0.13925
       2     N     3.69233  3.69233  0.00000 -0.38466
       3     C     3.02211  3.02211  0.00000 -0.04421
       4     H     0.42043  0.42043  0.00000  0.15914
       5     C     2.96262  2.96262  0.00000  0.07475
       6     H     0.46871  0.46871  0.00000  0.06257
       7     H     0.46125  0.46125  0.00000  0.07751
       8     O     4.17972  4.17972  0.00000 -0.35944
       9     H     0.47096  0.47096  0.00000  0.05809
      10     H     0.47227  0.47227  0.00000  0.05547
      11     C     3.03031  3.03031  0.00000 -0.06061
      12     H     0.44753  0.44753  0.00000  0.10494
      13     H     0.47117  0.47117  0.00000  0.05767
      14     H     0.47024  0.47024  0.00000  0.05953

   Total alpha = 21.00000, Total beta = 21.00000, Total charge =  0.00000
