  ==> Input File <==

--------------------------------------------------------------------------
set {
	reference rhf
	basis 6-31G*
}

set_num_threads( 1 )
memory 2 gb

molecule MOL {
0 1

H	 -3.382080	 -0.481376	 -1.519611
O	 -3.452007	 0.283848	 -0.965577
C	 -3.181085	 -0.079926	 0.364119
C	 -1.765924	 0.277073	 0.805136
H	 -3.327791	 -1.152017	 0.410903
H	 -3.905698	 0.375695	 1.036898
C	 -0.677594	 -0.417312	 -0.014550
H	 -1.637766	 1.358238	 0.744969
H	 -1.659588	 0.017670	 1.857098
C	 0.738335	 -0.034840	 0.421385
H	 -0.814977	 -0.178223	 -1.064632
H	 -0.802730	 -1.495410	 0.071702
C	 1.822265	 -0.738362	 -0.399735
H	 0.853533	 1.043532	 0.342250
H	 0.871597	 -0.279636	 1.474438
C	 3.258060	 -0.455774	 0.057203
H	 1.718003	 -0.459167	 -1.447053
H	 1.651028	 -1.811884	 -0.354513
C	 3.709143	 0.994797	 -0.123830
H	 3.930637	 -1.101717	 -0.501982
H	 3.365259	 -0.739518	 1.102287
H	 3.601178	 1.310569	 -1.158127
H	 4.753787	 1.110486	 0.148516
H	 3.135362	 1.678896	 0.492569

	symmetry c1
}
set optking {
	frozen_dihedral = ("
		20 16 13 17,
		17 13 10 7,
		13 10 7 11,
		11 7 4 3,
		7 4 3 2
	")
}

ee = energy('scf')
oeprop('DIPOLE', 'QUADRUPOLE', 'MULLIKEN_CHARGES')
f=open( 'psi4out.xyz', 'w' )
f.write( "24  " )
f.write( str(ee) + "\n" )
f.write( MOL.save_string_xyz() )
f.close()
--------------------------------------------------------------------------

    Molecular point group: c1

    Geometry (in Angstrom), charge = 0, multiplicity = 1:

       Center              X                  Y                   Z               Mass
    ------------   -----------------  -----------------  -----------------  -----------------
           H         -3.382415289555    -0.466545186932    -1.515485322255     1.007825032070
           O         -3.452342289555     0.298678813068    -0.961451322255    15.994914619560
           C         -3.181420289555    -0.065095186932     0.368244677745    12.000000000000
           C         -1.766259289555     0.291903813068     0.809261677745    12.000000000000
           H         -3.328126289555    -1.137186186932     0.415028677745     1.007825032070
           H         -3.906033289555     0.390525813068     1.041023677745     1.007825032070
           C         -0.677929289555    -0.402481186932    -0.010424322255    12.000000000000
           H         -1.638101289555     1.373068813068     0.749094677745     1.007825032070
           H         -1.659923289555     0.032500813068     1.861223677745     1.007825032070
           C          0.737999710445    -0.020009186932     0.425510677745    12.000000000000
           H         -0.815312289555    -0.163392186932    -1.060506322255     1.007825032070
           H         -0.803065289555    -1.480579186932     0.075827677745     1.007825032070
           C          1.821929710445    -0.723531186932    -0.395609322255    12.000000000000
           H          0.853197710445     1.058362813068     0.346375677745     1.007825032070
           H          0.871261710445    -0.264805186932     1.478563677745     1.007825032070
           C          3.257724710445    -0.440943186932     0.061328677745    12.000000000000
           H          1.717667710445    -0.444336186932    -1.442927322255     1.007825032070
           H          1.650692710445    -1.797053186932    -0.350387322255     1.007825032070
           C          3.708807710445     1.009627813068    -0.119704322255    12.000000000000
           H          3.930301710445    -1.086886186932    -0.497856322255     1.007825032070
           H          3.364923710445    -0.724687186932     1.106412677745     1.007825032070
           H          3.600842710445     1.325399813068    -1.154001322255     1.007825032070
           H          4.753451710445     1.125316813068     0.152641677745     1.007825032070
           H          3.135026710445     1.693726813068     0.496694677745     1.007825032070

  Charge       = 0
  Multiplicity = 1
  Basis Set: 6-31G*
  Basis Set:

    Orbital Energies (a.u.)
    -----------------------

    Doubly Occupied:

       1A    -20.551780     2A    -11.268393     3A    -11.214768
       4A    -11.214309     5A    -11.213417     6A    -11.213235
       7A    -11.212738     8A    -11.207320     9A     -1.359475
      10A     -1.089268    11A     -1.048169    12A     -0.985736
      13A     -0.915914    14A     -0.848990    15A     -0.793574
      16A     -0.777422    17A     -0.700764    18A     -0.646187
      19A     -0.629365    20A     -0.609618    21A     -0.598625
      22A     -0.582677    23A     -0.561264    24A     -0.537786
      25A     -0.515542    26A     -0.510888    27A     -0.494741
      28A     -0.474625    29A     -0.468901    30A     -0.459324
      31A     -0.456463    32A     -0.449721    33A     -0.418673

  @DF-RHF Final Energy:  -349.24483814780405

   => Energetics <=

    Nuclear Repulsion Energy =            384.5054319365416973
    One-Electron Energy =               -1235.4412775700134262
    Two-Electron Energy =                 501.6910074856660344
    DFT Exchange-Correlation Energy =       0.0000000000000000
    Empirical Dispersion Energy =           0.0000000000000000
    PCM Polarization Energy =               0.0000000000000000
    EFP Energy =                            0.0000000000000000
    Total Energy =                       -349.2448381478056376

  Mulliken Charges: (a.u.)
   Center  Symbol    Alpha    Beta     Spin     Total
       1     H     0.27878  0.27878  0.00000  0.44243
       2     O     4.37125  4.37125  0.00000 -0.74251
       3     C     2.99872  2.99872  0.00000  0.00256
       4     C     3.15771  3.15771  0.00000 -0.31543
       5     H     0.43400  0.43400  0.00000  0.13200
       6     H     0.41735  0.41735  0.00000  0.16529
       7     C     3.15852  3.15852  0.00000 -0.31704
       8     H     0.41628  0.41628  0.00000  0.16744
       9     H     0.42515  0.42515  0.00000  0.14970
      10     C     3.15313  3.15313  0.00000 -0.30626
      11     H     0.41701  0.41701  0.00000  0.16597
      12     H     0.42811  0.42811  0.00000  0.14378
      13     C     3.15241  3.15241  0.00000 -0.30482
      14     H     0.41969  0.41969  0.00000  0.16062
      15     H     0.42475  0.42475  0.00000  0.15051
      16     C     3.15233  3.15233  0.00000 -0.30466
      17     H     0.42397  0.42397  0.00000  0.15206
      18     H     0.42341  0.42341  0.00000  0.15318
      19     C     3.24117  3.24117  0.00000 -0.48234
      20     H     0.42132  0.42132  0.00000  0.15736
      21     H     0.42364  0.42364  0.00000  0.15272
      22     H     0.42200  0.42200  0.00000  0.15600
      23     H     0.41948  0.41948  0.00000  0.16103
      24     H     0.41980  0.41980  0.00000  0.16041

   Total alpha = 33.00000, Total beta = 33.00000, Total charge =  0.00000
