                              Psi4 1.0.54 Driver

  ==> Input File <==

--------------------------------------------------------------------------
set {
	reference rhf
	basis cc-pvtz
}

set_num_threads( 4 )
memory 2 gb

molecule MOL {
0 1

O	 2.871799	 1.347702	 0.114518
C	 2.841259	 0.166180	 -0.000295
C	 1.542794	 -0.614730	 -0.000853
C	 4.108842	 -0.643460	 -0.155019
C	 0.288398	 0.247429	 0.000314
H	 1.557171	 -1.273139	 -0.866508
H	 1.557484	 -1.274998	 0.863344
C	 -0.993089	 -0.581367	 -0.000217
H	 0.305153	 0.900562	 -0.864701
H	 0.305567	 0.898805	 0.866656
C	 -2.258482	 0.271340	 0.000669
H	 -1.002280	 -1.233920	 -0.870484
H	 -1.002061	 -1.235367	 0.868958
C	 -3.544441	 -0.550271	 -0.000253
H	 -2.250545	 0.925250	 -0.867923
H	 -2.250598	 0.923423	 0.870642
C	 -4.804551	 0.308747	 0.000556
H	 -3.553737	 -1.201524	 -0.870151
H	 -3.553831	 -1.203282	 0.868313
H	 -4.842050	 0.949078	 -0.874436
H	 -5.698404	 -0.304480	 -0.000254
H	 -4.842277	 0.947103	 0.876982
H	 4.087228	 -1.197853	 -1.086807
H	 4.965885	 0.012054	 -0.141980
H	 4.190547	 -1.367182	 0.648470

	symmetry c1
}
set optking {
	frozen_dihedral = ("
		1 2 3 6
	")
}

ee,wfn = optimize('scf', return_wfn=True)
oeprop( wfn, 'DIPOLE', 'QUADRUPOLE', 'MULLIKEN_CHARGES')
f=open( 'psi4out.xyz', 'w' )
f.write( "25  " )
f.write( str(ee) + "\n" )
f.write( MOL.save_string_xyz() )
f.close()
--------------------------------------------------------------------------

    Molecular point group: c1
  Charge       = 0
  Multiplicity = 1
  Basis Set: CC-PVTZ
  Basis Set:
  @DF-RHF Final Energy:  -387.27460508700568
    Total Energy =                       -387.2746050870058525
    Molecular point group: c1
  Basis Set: CC-PVTZ
  Basis Set:
  Basis Set: CC-PVTZ
  Basis Set:
  @DF-RHF Final Energy:  -387.27428305423234
    Total Energy =                       -387.2742830542317733
  Basis Set: CC-PVTZ
  Basis Set:
  Basis Set: CC-PVTZ
  Basis Set:
  @DF-RHF Final Energy:  -387.27463715009787
    Total Energy =                       -387.2746371500974192
  Basis Set: CC-PVTZ
  Basis Set:
  Basis Set: CC-PVTZ
  Basis Set:
  @DF-RHF Final Energy:  -387.27464686937054
    Total Energy =                       -387.2746468693709403
  Basis Set: CC-PVTZ
  Basis Set:
  Basis Set: CC-PVTZ
  Basis Set:
  @DF-RHF Final Energy:  -387.27465462805452
    Total Energy =                       -387.2746546280546909
  Basis Set: CC-PVTZ
  Basis Set:
  Basis Set: CC-PVTZ
  Basis Set:
  @DF-RHF Final Energy:  -387.27465914588458
    Total Energy =                       -387.2746591458841294
  Basis Set: CC-PVTZ
  Basis Set:
  Basis Set: CC-PVTZ
  Basis Set:
  @DF-RHF Final Energy:  -387.27466095567826
    Total Energy =                       -387.2746609556777457
  Basis Set: CC-PVTZ
  Basis Set:
  Charge       = 0
  Multiplicity = 1
  Basis Set: CC-PVTZ
  Basis Set:

    Orbital Energies (a.u.)
    -----------------------

    Doubly Occupied:

       1A    -20.538711     2A    -11.320518     3A    -11.230204
       4A    -11.226607     5A    -11.215327     6A    -11.214710
       7A    -11.213574     8A    -11.211563     9A    -11.206482
      10A     -1.398834    11A     -1.095266    12A     -1.057738
      13A     -1.015629    14A     -0.970237    15A     -0.891626
      16A     -0.814815    17A     -0.791466    18A     -0.730995
      19A     -0.662951    20A     -0.654150    21A     -0.633302
      22A     -0.626692    23A     -0.596957    24A     -0.585341
      25A     -0.567840    26A     -0.559998    27A     -0.541560
      28A     -0.527392    29A     -0.513252    30A     -0.491553
      31A     -0.490320    32A     -0.473731    33A     -0.464031
      34A     -0.463040    35A     -0.452882    36A     -0.401267

  @DF-RHF Final Energy:  -387.27466107076566

   => Energetics <=

    Nuclear Repulsion Energy =            439.1170587199774218
    One-Electron Energy =               -1395.0823167714456758
    Two-Electron Energy =                 568.6905969807027077
    DFT Exchange-Correlation Energy =       0.0000000000000000
    Empirical Dispersion Energy =           0.0000000000000000
    PCM Polarization Energy =               0.0000000000000000
    EFP Energy =                            0.0000000000000000
    Total Energy =                       -387.2746610707655464
    Molecular point group: c1
  Basis Set: CC-PVTZ
  Basis Set:

  -Total Gradient:
     Atom            X                  Y                   Z
    ------   -----------------  -----------------  -----------------
       1        0.000012347429    -0.000012672014     0.000147516153
       2        0.000003486945    -0.000008836396    -0.000190615487
       3       -0.000067253254     0.000110971964    -0.000030643246
       4        0.000016385848    -0.000004443750     0.000003720184
       5        0.000001031964     0.000001940178     0.000002216325
       6        0.000059524705    -0.000100095537     0.000080306056
       7       -0.000000861942     0.000000873643    -0.000001742741
       8        0.000002912500     0.000002478274    -0.000021495024
       9        0.000002578318    -0.000010304568     0.000001499393
      10       -0.000004043533     0.000007812371    -0.000001635454
      11       -0.000000227753    -0.000003303451     0.000007647315
      12       -0.000001113160    -0.000000144125    -0.000005444727
      13        0.000001816001     0.000000929570    -0.000006051661
      14       -0.000000207321     0.000003811690     0.000018012912
      15        0.000002633031    -0.000005130486     0.000001074412
      16       -0.000003378826     0.000003911756    -0.000000128706
      17       -0.000003842213    -0.000002024231    -0.000004376639
      18        0.000001601965     0.000003644731     0.000002329597
      19       -0.000001569980    -0.000001912482     0.000000772065
      20       -0.000000250739     0.000001737384     0.000000760414
      21       -0.000002039091     0.000001378374    -0.000002208081
      22        0.000000828812    -0.000003170377    -0.000000636952
      23        0.000002493030     0.000012933273     0.000035436895
      24       -0.000026143784    -0.000028188521    -0.000006630329
      25        0.000003291039     0.000027802730    -0.000029682673

  **** Optimization is complete! (in 8 steps) ****
    Final optimized geometry and variables:
    Molecular point group: c1

    Geometry (in Angstrom), charge = 0, multiplicity = 1:

    O            2.870191629871     1.350770289816     0.113683577472
    C            2.841296203670     0.168437727058     0.007747708702
    C            1.543466854694    -0.613387414953     0.000022831996
    C            4.110638113670    -0.641931016404    -0.126878431177
    C            0.288191085459     0.247452332523    -0.003684403260
    H            1.559679870508    -1.281070286777    -0.857991070460
    H            1.558776322900    -1.264732615538     0.871564757078
    C           -0.992615599466    -0.582371009789     0.001376500544
    H            0.303395372727     0.894887676173    -0.873602085951
    H            0.305799049508     0.904469200975     0.857857615764
    C           -2.258706680262     0.269263672163    -0.000722030951
    H           -1.002486007114    -1.239931992888    -0.865120469105
    H           -0.999722756007    -1.231356061456     0.874318579755
    C           -3.543946167025    -0.553407596159     0.006695630983
    H           -2.253286107303     0.917341288384    -0.873743883975
    H           -2.249420416442     0.927193045151     0.864807743191
    C           -4.804807665612     0.304488142704     0.003909259700
    H           -3.554398809639    -1.210785680860    -0.858582152814
    H           -3.551071419161    -1.200294121392     0.879864824430
    H           -4.844523449079     0.938738440002    -0.875424543503
    H           -5.698124618413    -0.309520076007     0.009015968649
    H           -4.841449214571     0.948857683888     0.875972877413
    H            4.151704707883    -1.091279440597    -1.113453683144
    H            4.969785006633    -0.003981311307     0.012160577611
    H            4.128709205139    -1.449353944978     0.596117603762

  Mulliken Charges: (a.u.)
   Center  Symbol    Alpha    Beta     Spin     Total
       1     O     4.17110  4.17110  0.00000 -0.34221
       2     C     2.86204  2.86204  0.00000  0.27592
       3     C     3.11437  3.11437  0.00000 -0.22874
       4     C     3.15144  3.15144  0.00000 -0.30287
       5     C     3.08322  3.08322  0.00000 -0.16643
       6     H     0.44594  0.44594  0.00000  0.10811
       7     H     0.44496  0.44496  0.00000  0.11007
       8     C     3.09002  3.09002  0.00000 -0.18004
       9     H     0.44746  0.44746  0.00000  0.10507
      10     H     0.44456  0.44456  0.00000  0.11088
      11     C     3.08615  3.08615  0.00000 -0.17230
      12     H     0.45615  0.45615  0.00000  0.08771
      13     H     0.45588  0.45588  0.00000  0.08825
      14     C     3.08430  3.08430  0.00000 -0.16861
      15     H     0.45396  0.45396  0.00000  0.09208
      16     H     0.45366  0.45366  0.00000  0.09269
      17     C     3.15037  3.15037  0.00000 -0.30074
      18     H     0.45524  0.45524  0.00000  0.08953
      19     H     0.45513  0.45513  0.00000  0.08974
      20     H     0.45484  0.45484  0.00000  0.09032
      21     H     0.44868  0.44868  0.00000  0.10265
      22     H     0.45473  0.45473  0.00000  0.09054
      23     H     0.44931  0.44931  0.00000  0.10139
      24     H     0.43542  0.43542  0.00000  0.12916
      25     H     0.45109  0.45109  0.00000  0.09783

   Total alpha = 36.00000, Total beta = 36.00000, Total charge = -0.00000

*** Psi4 exiting successfully. Buy a developer a beer!
