  ==> Input File <==

--------------------------------------------------------------------------
set {
	reference rhf
	basis cc-pvtz
}

set_num_threads( 4 )
memory 2 gb

molecule MOL {
0 1

H	 1.170833	 0.611776	 1.844674
O	 1.360308	 0.096639	 1.081008
C	 0.706474	 0.636793	 -0.025501
C	 -0.793473	 0.591216	 0.050087
H	 1.037643	 0.067037	 -0.885737
H	 1.018625	 1.665403	 -0.196444
C	 -1.534243	 -0.493009	 -0.013340
H	 -1.266611	 1.552628	 0.164437
H	 -1.101195	 -1.466332	 -0.144046
H	 -2.604242	 -0.437780	 0.050785

	symmetry c1
}
set optking {
	frozen_dihedral = ("
		5 3 4 7
	")
}

ee = optimize('scf')
oeprop('DIPOLE', 'QUADRUPOLE', 'MULLIKEN_CHARGES')
f=open( 'psi4out.xyz', 'w' )
f.write( "10  " )
f.write( str(ee) + "\n" )
f.write( MOL.save_string_xyz() )
f.close()
--------------------------------------------------------------------------

    Molecular point group: c1
  Charge       = 0
  Multiplicity = 1
  Basis Set: CC-PVTZ
  Basis Set:
  @DF-RHF Final Energy:  -191.99304039673430
    Total Energy =                       -191.9930403967342727
    Molecular point group: c1
  Basis Set: CC-PVTZ
  Basis Set:
  Basis Set: CC-PVTZ
  Basis Set:
  @DF-RHF Final Energy:  -191.99364315714143
    Total Energy =                       -191.9936431571414914
  Basis Set: CC-PVTZ
  Basis Set:
  Basis Set: CC-PVTZ
  Basis Set:
  @DF-RHF Final Energy:  -191.99374148148286
    Total Energy =                       -191.9937414814829140
  Basis Set: CC-PVTZ
  Basis Set:
  Basis Set: CC-PVTZ
  Basis Set:
  @DF-RHF Final Energy:  -191.99377025988463
    Total Energy =                       -191.9937702598846272
  Basis Set: CC-PVTZ
  Basis Set:
  Basis Set: CC-PVTZ
  Basis Set:
  @DF-RHF Final Energy:  -191.99377559182136
    Total Energy =                       -191.9937755918213611
  Basis Set: CC-PVTZ
  Basis Set:
  Charge       = 0
  Multiplicity = 1
  Basis Set: CC-PVTZ
  Basis Set:

    Orbital Energies (a.u.)
    -----------------------

    Doubly Occupied:

       1A    -20.548857     2A    -11.274340     3A    -11.229379
       4A    -11.224683     5A     -1.366711     6A     -1.064193
       7A     -0.924870     8A     -0.780473     9A     -0.680834
      10A     -0.664327    11A     -0.609260    12A     -0.579244
      13A     -0.555854    14A     -0.477983    15A     -0.447864
      16A     -0.376348

  @DF-RHF Final Energy:  -191.99377606244045

   => Energetics <=

    Nuclear Repulsion Energy =            118.3945567755103241
    One-Electron Energy =                -495.1662281035140154
    Two-Electron Energy =                 184.7778952655631315
    DFT Exchange-Correlation Energy =       0.0000000000000000
    Empirical Dispersion Energy =           0.0000000000000000
    PCM Polarization Energy =               0.0000000000000000
    EFP Energy =                            0.0000000000000000
    Total Energy =                       -191.9937760624405314
    Molecular point group: c1
  Basis Set: CC-PVTZ
  Basis Set:

  -Total Gradient:
     Atom            X                  Y                   Z
    ------   -----------------  -----------------  -----------------
       1       -0.000002406109     0.000001639680     0.000000071388
       2        0.000034756884    -0.000070372964     0.000019367152
       3       -0.000012032218    -0.000169446298     0.000333286490
       4       -0.000051141429     0.000027140539    -0.000447250410
       5       -0.000000087106     0.000188449276    -0.000140214834
       6       -0.000007033971     0.000007963857    -0.000035434683
       7        0.000008032666     0.000013914680     0.000252679597
       8        0.000015176658     0.000005746465     0.000014104128
       9        0.000011312859     0.000000260285     0.000004162364
      10        0.000003421770    -0.000005295519    -0.000000771192

  **** Optimization is complete! (in 6 steps) ****
    Final optimized geometry and variables:
    Molecular point group: c1

    Geometry (in Angstrom), charge = 0, multiplicity = 1:

    H            0.997323369693     0.263561801933     1.541679605070
    O            1.344476575442    -0.119711248469     0.756474544921
    C            0.700639482577     0.424049513849    -0.365684848359
    C           -0.808850251470     0.397325875406    -0.267480912840
    H            1.028486945790    -0.168133101814    -1.208535026707
    H            1.034948252428     1.442703594820    -0.536598145465
    C           -1.523902986576    -0.705931330522    -0.294557731825
    H           -1.307882994443     1.344236767754    -0.150244192682
    H           -1.064176585364    -1.671445171781    -0.407232375041
    H           -2.593219024316    -0.685592135272    -0.198625155844

  Mulliken Charges: (a.u.)
   Center  Symbol    Alpha    Beta     Spin     Total
       1     H     0.39582  0.39582  0.00000  0.20836
       2     O     4.19795  4.19795  0.00000 -0.39589
       3     C     2.95190  2.95190  0.00000  0.09621
       4     C     3.10217  3.10217  0.00000 -0.20435
       5     H     0.45544  0.45544  0.00000  0.08912
       6     H     0.46837  0.46837  0.00000  0.06326
       7     C     3.16005  3.16005  0.00000 -0.32011
       8     H     0.41593  0.41593  0.00000  0.16814
       9     H     0.42628  0.42628  0.00000  0.14744
      10     H     0.42609  0.42609  0.00000  0.14782

   Total alpha = 16.00000, Total beta = 16.00000, Total charge = -0.00000
