  ==> Input File <==

--------------------------------------------------------------------------
set {
	reference rhf
	basis cc-pvtz
}

set_num_threads( 4 )
memory 2 gb

molecule MOL {
0 1

H	 -2.903318	 1.830351	 1.324728
C	 -2.645267	 0.803984	 1.162591
C	 -1.556464	 0.510544	 0.494946
H	 -3.287611	 0.040185	 1.554769
O	 -1.189946	 -0.765863	 0.237511
H	 -0.901196	 1.267885	 0.104838
C	 0.026572	 -0.995256	 -0.379403
C	 1.057223	 0.049888	 -0.004615
H	 -0.054361	 -1.010670	 -1.459674
H	 0.397526	 -1.952058	 -0.044198
F	 2.203233	 -0.234060	 -0.590375
F	 0.698147	 1.254887	 -0.392621
F	 1.266440	 0.094219	 1.288722

	symmetry c1
}
set optking {
	frozen_dihedral = ("
		3 5 7 9
	")
}

ee = optimize('scf')
oeprop('DIPOLE', 'QUADRUPOLE', 'MULLIKEN_CHARGES')
f=open( 'psi4out.xyz', 'w' )
f.write( "13  " )
f.write( str(ee) + "\n" )
f.write( MOL.save_string_xyz() )
f.close()
--------------------------------------------------------------------------

    Molecular point group: c1
  Charge       = 0
  Multiplicity = 1
  Basis Set: CC-PVTZ
  Basis Set:
  @DF-RHF Final Energy:  -527.71794906526486
    Total Energy =                       -527.7179490652655431
    Molecular point group: c1
  Basis Set: CC-PVTZ
  Basis Set:
  Basis Set: CC-PVTZ
  Basis Set:
  @DF-RHF Final Energy:  -527.73025390815565
    Total Energy =                       -527.7302539081558734
  Basis Set: CC-PVTZ
  Basis Set:
  Basis Set: CC-PVTZ
  Basis Set:
  @DF-RHF Final Energy:  -527.73372539200909
    Total Energy =                       -527.7337253920089779
  Basis Set: CC-PVTZ
  Basis Set:
  Basis Set: CC-PVTZ
  Basis Set:
  @DF-RHF Final Energy:  -527.73445714211721
    Total Energy =                       -527.7344571421170940
  Basis Set: CC-PVTZ
  Basis Set:
  @DF-RHF Final Energy:  -527.73467339524245
    Total Energy =                       -527.7346733952421118
  Basis Set: CC-PVTZ
  Basis Set:
  @DF-RHF Final Energy:  -527.73472623209238
    Total Energy =                       -527.7347262320927257
  Basis Set: CC-PVTZ
  Basis Set:
  Basis Set: CC-PVTZ
  Basis Set:
  @DF-RHF Final Energy:  -527.73474114416285
    Total Energy =                       -527.7347411441630811
  Basis Set: CC-PVTZ
  Basis Set:
  Basis Set: CC-PVTZ
  Basis Set:
  @DF-RHF Final Energy:  -527.73474272149849
    Total Energy =                       -527.7347427214981508
  Basis Set: CC-PVTZ
  Basis Set:
  Charge       = 0
  Multiplicity = 1
  Basis Set: CC-PVTZ
  Basis Set:

    Orbital Energies (a.u.)
    -----------------------

    Doubly Occupied:

       1A    -26.345476     2A    -26.345092     3A    -26.343709
       4A    -20.599057     5A    -11.505062     6A    -11.319613
       7A    -11.294297     8A    -11.213014     9A     -1.755660
      10A     -1.651139    11A     -1.650725    12A     -1.436591
      13A     -1.086662    14A     -1.023048    15A     -0.935920
      16A     -0.847464    17A     -0.844623    18A     -0.840019
      19A     -0.775796    20A     -0.729330    21A     -0.724304
      22A     -0.703983    23A     -0.685221    24A     -0.670032
      25A     -0.663798    26A     -0.655836    27A     -0.646223
      28A     -0.593370    29A     -0.562837    30A     -0.530014
      31A     -0.498803    32A     -0.356586

  @DF-RHF Final Energy:  -527.73474316469037

   => Energetics <=

    Nuclear Repulsion Energy =            416.9334858673228723
    One-Electron Energy =               -1557.6698567887233366
    Two-Electron Energy =                 613.0016277567096949
    DFT Exchange-Correlation Energy =       0.0000000000000000
    Empirical Dispersion Energy =           0.0000000000000000
    PCM Polarization Energy =               0.0000000000000000
    EFP Energy =                            0.0000000000000000
    Total Energy =                       -527.7347431646908262
    Molecular point group: c1
  Basis Set: CC-PVTZ
  Basis Set:

  -Total Gradient:
     Atom            X                  Y                   Z
    ------   -----------------  -----------------  -----------------
       1        0.000003116289     0.000003778319     0.000001019903
       2        0.000052206107    -0.000051394942    -0.000043915748
       3        0.001627009896    -0.000223018232     0.004197151390
       4        0.000004753370     0.000009661521    -0.000002557808
       5       -0.002877778623    -0.001093209607    -0.006266675080
       6        0.000010243875    -0.000029790897     0.000012140674
       7        0.002020084986     0.006570765318     0.001993601014
       8       -0.000015187454     0.000024721423     0.000007698480
       9       -0.000822636766    -0.005136484385     0.000081826286
      10       -0.000046127912     0.000001914376     0.000013432693
      11        0.000010376111    -0.000030555383     0.000002565459
      12        0.000001231104    -0.000028891252    -0.000009938363
      13        0.000032709029    -0.000017496261     0.000013651101

  **** Optimization is complete! (in 9 steps) ****
    Final optimized geometry and variables:
    Molecular point group: c1

    Geometry (in Angstrom), charge = 0, multiplicity = 1:

    H           -3.203720736251     1.669425116742     1.191982538171
    C           -2.826264729462     0.678406182785     1.042965706170
    C           -1.870221455467     0.475817849247     0.169867702929
    H           -3.248496328683    -0.127226544638     1.611067011646
    O           -1.406021440363    -0.769405531818    -0.093993847430
    H           -1.443523404085     1.274278905743    -0.404879811392
    C           -0.146948142932    -0.989588078790    -0.635519881754
    C            0.977027765847    -0.073233995002    -0.189862197162
    H           -0.176446355639    -1.001483389644    -1.719263857793
    H            0.144932251333    -1.979220024887    -0.315918231227
    F            2.117504587466    -0.588282492002    -0.600188196977
    F            0.897259702609     1.139952289571    -0.698989731116
    F            1.031647206946     0.047078590186     1.114329738706

  Mulliken Charges: (a.u.)
   Center  Symbol    Alpha    Beta     Spin     Total
       1     H     0.42534  0.42534  0.00000  0.14931
       2     C     3.19277  3.19277  0.00000 -0.38555
       3     C     2.97110  2.97110  0.00000  0.05780
       4     H     0.42512  0.42512  0.00000  0.14977
       5     O     4.14675  4.14675  0.00000 -0.29350
       6     H     0.42411  0.42411  0.00000  0.15179
       7     C     3.00688  3.00688  0.00000 -0.01376
       8     C     2.68673  2.68673  0.00000  0.62654
       9     H     0.45176  0.45176  0.00000  0.09648
      10     H     0.44251  0.44251  0.00000  0.11498
      11     F     4.60791  4.60791  0.00000 -0.21583
      12     F     4.61291  4.61291  0.00000 -0.22582
      13     F     4.60611  4.60611  0.00000 -0.21222

   Total alpha = 32.00000, Total beta = 32.00000, Total charge = -0.00000
