  ==> Input File <==

--------------------------------------------------------------------------
set {
	reference rhf
	basis cc-pvtz
}

set_num_threads( 4 )
memory 2 gb

molecule MOL {
0 1

H	 1.276911	 -0.862212	 -0.874954
C	 0.788096	 -0.429819	 0.000000
N	 -0.537714	 -0.645117	 0.000000
O	 1.401087	 0.157645	 0.834175
C	 -1.522613	 0.412524	 0.000000
H	 -0.845894	 -1.585866	 0.000000
H	 -2.150256	 0.356137	 -0.880771
H	 -1.005621	 1.357208	 0.000000
H	 -2.150256	 0.356137	 0.880771

	symmetry c1
}
set optking {
	frozen_dihedral = ("
		1 2 3 6
	")
}

ee = optimize('scf')
oeprop('DIPOLE', 'QUADRUPOLE', 'MULLIKEN_CHARGES')
f=open( 'psi4out.xyz', 'w' )
f.write( "9  " )
f.write( str(ee) + "\n" )
f.write( MOL.save_string_xyz() )
f.close()
--------------------------------------------------------------------------

    Molecular point group: c1
  Charge       = 0
  Multiplicity = 1
  Basis Set: CC-PVTZ
  Basis Set:
  @DF-RHF Final Energy:  -208.01173213152975
    Total Energy =                       -208.0117321315296124
    Molecular point group: c1
  Basis Set: CC-PVTZ
  Basis Set:
  Basis Set: CC-PVTZ
  Basis Set:
  @DF-RHF Final Energy:  -208.01901128937186
    Total Energy =                       -208.0190112893719458
  Basis Set: CC-PVTZ
  Basis Set:
  Basis Set: CC-PVTZ
  Basis Set:
  @DF-RHF Final Energy:  -208.02710158075570
    Total Energy =                       -208.0271015807556978
  Basis Set: CC-PVTZ
  Basis Set:
  Basis Set: CC-PVTZ
  Basis Set:
  @DF-RHF Final Energy:  -208.03174714565296
    Total Energy =                       -208.0317471456529574
  Basis Set: CC-PVTZ
  Basis Set:
  @DF-RHF Final Energy:  -208.03298647525634
    Total Energy =                       -208.0329864752563651
  @DF-RHF Final Energy:  -208.03346857376727
    Total Energy =                       -208.0334685737672089
  @DF-RHF Final Energy:  -208.03385867121506
    Total Energy =                       -208.0338586712150573
  Basis Set: CC-PVTZ
  Basis Set:
  @DF-RHF Final Energy:  -208.03413838481944
    Total Energy =                       -208.0341383848193573
  Basis Set: CC-PVTZ
  Basis Set:
  Basis Set: CC-PVTZ
  Basis Set:
  @DF-RHF Final Energy:  -208.03428469871540
    Total Energy =                       -208.0342846987152825
  Basis Set: CC-PVTZ
  Basis Set:
  Basis Set: CC-PVTZ
  Basis Set:
  @DF-RHF Final Energy:  -208.03430239051133
    Total Energy =                       -208.0343023905112716
  Basis Set: CC-PVTZ
  Basis Set:
  Charge       = 0
  Multiplicity = 1
  Basis Set: CC-PVTZ
  Basis Set:

    Orbital Energies (a.u.)
    -----------------------

    Doubly Occupied:

       1A    -20.538183     2A    -15.579522     3A    -11.342600
       4A    -11.253061     5A     -1.410848     6A     -1.233859
       7A     -0.956800     8A     -0.806997     9A     -0.736732
      10A     -0.652462    11A     -0.645387    12A     -0.576963
      13A     -0.550584    14A     -0.536718    15A     -0.440771
      16A     -0.411810

  @DF-RHF Final Energy:  -208.03430304663505

   => Energetics <=

    Nuclear Repulsion Energy =            123.0241905468287058
    One-Electron Energy =                -526.7703972561103001
    Two-Electron Energy =                 195.7119036626466482
    DFT Exchange-Correlation Energy =       0.0000000000000000
    Empirical Dispersion Energy =           0.0000000000000000
    PCM Polarization Energy =               0.0000000000000000
    EFP Energy =                            0.0000000000000000
    Total Energy =                       -208.0343030466349319
    Molecular point group: c1
  Basis Set: CC-PVTZ
  Basis Set:

  -Total Gradient:
     Atom            X                  Y                   Z
    ------   -----------------  -----------------  -----------------
       1        0.002630020750     0.008087899365    -0.007311150185
       2       -0.004758094690    -0.009840511788     0.012462335053
       3        0.006906767656    -0.001207023384    -0.016067965795
       4        0.000027387922     0.000031155661     0.000020839415
       5       -0.000040137957    -0.000044966197     0.000011200389
       6       -0.004762399967     0.002947566890     0.010878121445
       7       -0.000013470496     0.000015103984     0.000013394123
       8       -0.000000556615     0.000020621663     0.000010284221
       9        0.000010483399    -0.000009846194    -0.000017058665

  **** Optimization is complete! (in 11 steps) ****
    Final optimized geometry and variables:
    Molecular point group: c1

    Geometry (in Angstrom), charge = 0, multiplicity = 1:

    H            1.502563039808    -1.093231728658    -0.548487413486
    C            0.796657364162    -0.420597146737    -0.059076111603
    N           -0.469728222542    -0.495739535993    -0.593481822456
    O            1.158012794547     0.389776831697     0.724983400116
    C           -1.425687998326     0.498796693470    -0.121479286881
    H           -0.850828331034    -1.415027088492    -0.513386784056
    H           -2.359103809756     0.349999038863    -0.645729911436
    H           -1.054098374505     1.485871010757    -0.349119297734
    H           -1.600707470440     0.443217743289     0.946597256141

  Mulliken Charges: (a.u.)
   Center  Symbol    Alpha    Beta     Spin     Total
       1     H     0.45371  0.45371  0.00000  0.09258
       2     C     2.88448  2.88448  0.00000  0.23105
       3     N     3.60671  3.60671  0.00000 -0.21343
       4     O     4.19167  4.19167  0.00000 -0.38333
       5     C     3.08301  3.08301  0.00000 -0.16602
       6     H     0.42899  0.42899  0.00000  0.14201
       7     H     0.45189  0.45189  0.00000  0.09621
       8     H     0.44386  0.44386  0.00000  0.11228
       9     H     0.45568  0.45568  0.00000  0.08863

   Total alpha = 16.00000, Total beta = 16.00000, Total charge = -0.00000
