  ==> Input File <==

--------------------------------------------------------------------------
set {
	reference rhf
	basis 6-31G*
}

set_num_threads( 4 )
memory 2 gb

molecule MOL {
0 1

H	 -3.420663	 1.227371	 -1.044276
O	 -3.452007	 0.283848	 -0.965577
C	 -3.181085	 -0.079926	 0.364119
C	 -1.765924	 0.277073	 0.805136
H	 -3.327791	 -1.152017	 0.410903
H	 -3.905698	 0.375695	 1.036898
C	 -0.677594	 -0.417312	 -0.014550
H	 -1.637766	 1.358238	 0.744969
H	 -1.659588	 0.017670	 1.857098
C	 0.738335	 -0.034840	 0.421385
H	 -0.814977	 -0.178223	 -1.064632
H	 -0.802730	 -1.495410	 0.071702
C	 1.822265	 -0.738362	 -0.399735
H	 0.853533	 1.043532	 0.342250
H	 0.871597	 -0.279636	 1.474438
C	 1.984984	 -0.213520	 -1.830895
H	 1.612942	 -1.806481	 -0.431383
H	 2.773926	 -0.631933	 0.116821
C	 0.780576	 -0.463176	 -2.740553
H	 2.858957	 -0.685488	 -2.273284
H	 2.199733	 0.852861	 -1.800603
H	 0.534509	 -1.521010	 -2.780272
H	 0.988683	 -0.135146	 -3.754420
H	 -0.101979	 0.069315	 -2.401861

	symmetry c1
}
set optking {
	frozen_dihedral = ("
		17 13 10 7
	")
}

ee = optimize('scf')
oeprop('DIPOLE', 'QUADRUPOLE', 'MULLIKEN_CHARGES')
f=open( 'psi4out.xyz', 'w' )
f.write( "24  " )
f.write( str(ee) + "\n" )
f.write( MOL.save_string_xyz() )
f.close()
--------------------------------------------------------------------------

    Molecular point group: c1
  Charge       = 0
  Multiplicity = 1
  Basis Set: 6-31G*
  Basis Set:
  @DF-RHF Final Energy:  -349.23323149275978
    Total Energy =                       -349.2332314927599555
    Molecular point group: c1
  Basis Set: 6-31G*
  Basis Set:
  Basis Set: 6-31G*
  Basis Set:
  @DF-RHF Final Energy:  -349.24104728913596
    Total Energy =                       -349.2410472891360769
  Basis Set: 6-31G*
  Basis Set:
  Basis Set: 6-31G*
  Basis Set:
  @DF-RHF Final Energy:  -349.24232240764826
    Total Energy =                       -349.2423224076482029
  Basis Set: 6-31G*
  Basis Set:
  Basis Set: 6-31G*
  Basis Set:
  @DF-RHF Final Energy:  -349.24261912978960
    Total Energy =                       -349.2426191297896594
  Basis Set: 6-31G*
  Basis Set:
  @DF-RHF Final Energy:  -349.24271729122103
    Total Energy =                       -349.2427172912208562
  @DF-RHF Final Energy:  -349.24273724280488
    Total Energy =                       -349.2427372428048784
  @DF-RHF Final Energy:  -349.24275395864555
    Total Energy =                       -349.2427539586453804
  Basis Set: 6-31G*
  Basis Set:
  @DF-RHF Final Energy:  -349.24276363317620
    Total Energy =                       -349.2427636331760823
  Basis Set: 6-31G*
  Basis Set:
  Basis Set: 6-31G*
  Basis Set:
  @DF-RHF Final Energy:  -349.24276752707993
    Total Energy =                       -349.2427675270801046
  Basis Set: 6-31G*
  Basis Set:
  Basis Set: 6-31G*
  Basis Set:
  @DF-RHF Final Energy:  -349.24276895420161
    Total Energy =                       -349.2427689542014377
  Basis Set: 6-31G*
  Basis Set:
  Charge       = 0
  Multiplicity = 1
  Basis Set: 6-31G*
  Basis Set:

    Orbital Energies (a.u.)
    -----------------------

    Doubly Occupied:

       1A    -20.554022     2A    -11.267908     3A    -11.217452
       4A    -11.213289     5A    -11.213036     6A    -11.212076
       7A    -11.210586     8A    -11.204027     9A     -1.360519
      10A     -1.086578    11A     -1.045487    12A     -0.984781
      13A     -0.918404    14A     -0.847674    15A     -0.803860
      16A     -0.772757    17A     -0.680103    18A     -0.652443
      19A     -0.622138    20A     -0.613373    21A     -0.594655
      22A     -0.591425    23A     -0.554893    24A     -0.540872
      25A     -0.522495    26A     -0.502659    27A     -0.499207
      28A     -0.474152    29A     -0.469828    30A     -0.460259
      31A     -0.453727    32A     -0.440830    33A     -0.419024

  @DF-RHF Final Energy:  -349.24276901275607

   => Energetics <=

    Nuclear Repulsion Energy =            392.1953912762805885
    One-Electron Energy =               -1250.8672452894065827
    Two-Electron Energy =                 509.4290850003698097
    DFT Exchange-Correlation Energy =       0.0000000000000000
    Empirical Dispersion Energy =           0.0000000000000000
    PCM Polarization Energy =               0.0000000000000000
    EFP Energy =                            0.0000000000000000
    Total Energy =                       -349.2427690127561846
    Molecular point group: c1
  Basis Set: 6-31G*
  Basis Set:

  -Total Gradient:
     Atom            X                  Y                   Z
    ------   -----------------  -----------------  -----------------
       1       -0.000000638277     0.000002096210    -0.000001245609
       2       -0.000003737719     0.000004003797     0.000007315354
       3        0.000000659875    -0.000011128475    -0.000006123751
       4        0.000005979274     0.000012590994    -0.000010038381
       5       -0.000001207208    -0.000001353616     0.000000168136
       6        0.000002264615    -0.000000123590    -0.000001444490
       7       -0.000014754305    -0.000648598342     0.000526364197
       8        0.000004679775     0.000001487864     0.000003200408
       9       -0.000003645894    -0.000000195391    -0.000001237252
      10       -0.000115622260     0.000966988141    -0.000987602775
      11        0.000000249847    -0.000005119393    -0.000001453184
      12       -0.000000440119     0.000002185669    -0.000003609378
      13        0.000708872867    -0.000482413470     0.001369978164
      14       -0.000002392236    -0.000001247640     0.000004255464
      15        0.000015416974     0.000000708959     0.000002804171
      16       -0.000011479565    -0.000003964665     0.000002216333
      17       -0.000581912883     0.000158925265    -0.000938237054
      18        0.000001642716     0.000000628192    -0.000000295716
      19       -0.000008751324     0.000009009665    -0.000002629013
      20        0.000007206782     0.000005170396     0.000011779185
      21       -0.000003682631     0.000004937917     0.000004285818
      22       -0.000009697341    -0.000001983540     0.000005764576
      23        0.000005148906    -0.000005771234     0.000016570019
      24        0.000005840130    -0.000006833712    -0.000000785221

  **** Optimization is complete! (in 11 steps) ****
    Final optimized geometry and variables:
    Molecular point group: c1

    Geometry (in Angstrom), charge = 0, multiplicity = 1:

    H           -3.003562019230     1.634953299694    -0.087761171199
    O           -3.045258832508     0.692277483109    -0.171247325208
    C           -2.713269157207     0.102691336079     1.060275357032
    C           -1.269579699393     0.361606190204     1.476584577108
    H           -2.880409903349    -0.959601424232     0.931755323880
    H           -3.391892061693     0.445272215933     1.839489296144
    C           -0.241342593190    -0.203517275890     0.494803379528
    H           -1.120088114080     1.436137167425     1.587039602519
    H           -1.114839466406    -0.068706033526     2.464501473103
    C            1.198054688968     0.117364346025     0.907429355781
    H           -0.454363208554     0.188254295634    -0.491928320409
    H           -0.367240052457    -1.283229072908     0.432503024009
    C            2.309393311269    -0.570570737212     0.099563952045
    H            1.351610176542     1.195048594858     0.878841681746
    H            1.322477093328    -0.173150934804     1.949294326200
    C            2.572516825526    -0.029403344023    -1.317419898832
    H            2.106575777778    -1.638679007909     0.040980447567
    H            3.229190013764    -0.468651962656     0.669700161268
    C            1.685063822702    -0.604234813628    -2.424438778330
    H            3.605620009479    -0.249414647547    -1.574887650646
    H            2.492472497154     1.055874104904    -1.310555048532
    H            1.762515566604    -1.687509712531    -2.457553355905
    H            1.992566325636    -0.224113638098    -3.394204450819
    H            0.639693005802    -0.353623191263    -2.293318293577

  Mulliken Charges: (a.u.)
   Center  Symbol    Alpha    Beta     Spin     Total
       1     H     0.28331  0.28331  0.00000  0.43339
       2     O     4.36831  4.36831  0.00000 -0.73663
       3     C     2.99638  2.99638  0.00000  0.00723
       4     C     3.16861  3.16861  0.00000 -0.33723
       5     H     0.41623  0.41623  0.00000  0.16753
       6     H     0.42810  0.42810  0.00000  0.14380
       7     C     3.15505  3.15505  0.00000 -0.31010
       8     H     0.42827  0.42827  0.00000  0.14346
       9     H     0.42235  0.42235  0.00000  0.15531
      10     C     3.15254  3.15254  0.00000 -0.30509
      11     H     0.40902  0.40902  0.00000  0.18196
      12     H     0.42382  0.42382  0.00000  0.15237
      13     C     3.15463  3.15463  0.00000 -0.30926
      14     H     0.42485  0.42485  0.00000  0.15030
      15     H     0.42428  0.42428  0.00000  0.15143
      16     C     3.15324  3.15324  0.00000 -0.30648
      17     H     0.42355  0.42355  0.00000  0.15290
      18     H     0.42100  0.42100  0.00000  0.15801
      19     C     3.24129  3.24129  0.00000 -0.48259
      20     H     0.42162  0.42162  0.00000  0.15676
      21     H     0.42383  0.42383  0.00000  0.15235
      22     H     0.42251  0.42251  0.00000  0.15498
      23     H     0.42094  0.42094  0.00000  0.15812
      24     H     0.41626  0.41626  0.00000  0.16748

   Total alpha = 33.00000, Total beta = 33.00000, Total charge = -0.00000
