  ==> Input File <==

--------------------------------------------------------------------------
set {
	reference rhf
	basis 6-31G*
}

set_num_threads( 1 )
memory 2 gb

molecule MOL {
0 1

O	 3.005175	 1.122908	 -0.691904
C	 2.843464	 0.164689	 -0.000222
C	 1.546494	 -0.624492	 -0.000609
C	 3.931974	 -0.329345	 0.930494
C	 0.291004	 0.242674	 0.000989
H	 1.557904	 -1.283758	 -0.867573
H	 1.558622	 -1.285963	 0.864672
C	 -0.994322	 -0.586602	 0.000262
H	 0.309117	 0.896430	 -0.865270
H	 0.309661	 0.894078	 0.869017
C	 -2.259874	 0.272531	 0.000494
H	 -1.004862	 -1.240012	 -0.870939
H	 -1.005220	 -1.241071	 0.870675
C	 -3.549786	 -0.549746	 -0.000374
H	 -2.250389	 0.926680	 -0.869574
H	 -2.250838	 0.925513	 0.871430
C	 -4.809590	 0.315458	 -0.000369
H	 -3.560515	 -1.202009	 -0.871156
H	 -3.561123	 -1.202955	 0.869711
H	 -4.844746	 0.956611	 -0.876632
H	 -5.706986	 -0.295590	 -0.001609
H	 -4.845960	 0.954827	 0.877144
H	 4.203638	 -1.352276	 0.686714
H	 4.802479	 0.305847	 0.843399
H	 3.581759	 -0.325321	 1.958584

	symmetry c1
}
set optking {
	frozen_dihedral = ("
		9 5 8 12,
		15 11 8 12,
		15 11 14 18,
		9 5 3 6
	")
}

ee = energy('scf')
oeprop('DIPOLE', 'QUADRUPOLE', 'MULLIKEN_CHARGES')
f=open( 'psi4out.xyz', 'w' )
f.write( "25  " )
f.write( str(ee) + "\n" )
f.write( MOL.save_string_xyz() )
f.close()
--------------------------------------------------------------------------

    Molecular point group: c1

    Geometry (in Angstrom), charge = 0, multiplicity = 1:

       Center              X                  Y                   Z               Mass
    ------------   -----------------  -----------------  -----------------  -----------------
           O          3.011005542156     1.113339437815    -0.720134742249    15.994914619560
           C          2.849294542156     0.155120437815    -0.028452742249    12.000000000000
           C          1.552324542156    -0.634060562185    -0.028839742249    12.000000000000
           C          3.937804542156    -0.338913562185     0.902263257751    12.000000000000
           C          0.296834542156     0.233105437815    -0.027241742249    12.000000000000
           H          1.563734542156    -1.293326562185    -0.895803742249     1.007825032070
           H          1.564452542156    -1.295531562185     0.836441257751     1.007825032070
           C         -0.988491457844    -0.596170562185    -0.027968742249    12.000000000000
           H          0.314947542156     0.886861437815    -0.893500742249     1.007825032070
           H          0.315491542156     0.884509437815     0.840786257751     1.007825032070
           C         -2.254043457844     0.262962437815    -0.027736742249    12.000000000000
           H         -0.999031457844    -1.249580562185    -0.899169742249     1.007825032070
           H         -0.999389457844    -1.250639562185     0.842444257751     1.007825032070
           C         -3.543955457844    -0.559314562185    -0.028604742249    12.000000000000
           H         -2.244558457844     0.917111437815    -0.897804742249     1.007825032070
           H         -2.245007457844     0.915944437815     0.843199257751     1.007825032070
           C         -4.803759457844     0.305889437815    -0.028599742249    12.000000000000
           H         -3.554684457844    -1.211577562185    -0.899386742249     1.007825032070
           H         -3.555292457844    -1.212523562185     0.841480257751     1.007825032070
           H         -4.838915457844     0.947042437815    -0.904862742249     1.007825032070
           H         -5.701155457844    -0.305158562185    -0.029839742249     1.007825032070
           H         -4.840129457844     0.945258437815     0.848913257751     1.007825032070
           H          4.209468542156    -1.361844562185     0.658483257751     1.007825032070
           H          4.808309542156     0.296278437815     0.815168257751     1.007825032070
           H          3.587589542156    -0.334889562185     1.930353257751     1.007825032070

  Charge       = 0
  Multiplicity = 1
  Basis Set: 6-31G*
  Basis Set:

    Orbital Energies (a.u.)
    -----------------------

    Doubly Occupied:

       1A    -20.548878     2A    -11.325708     3A    -11.230796
       4A    -11.227920     5A    -11.222363     6A    -11.219266
       7A    -11.216819     8A    -11.215475     9A    -11.209472
      10A     -1.394458    11A     -1.096057    12A     -1.057710
      13A     -1.014253    14A     -0.969815    15A     -0.892188
      16A     -0.816349    17A     -0.792929    18A     -0.730914
      19A     -0.663625    20A     -0.649275    21A     -0.635257
      22A     -0.616827    23A     -0.598706    24A     -0.585534
      25A     -0.568416    26A     -0.559452    27A     -0.541451
      28A     -0.532938    29A     -0.510745    30A     -0.493674
      31A     -0.488003    32A     -0.473478    33A     -0.465852
      34A     -0.464326    35A     -0.452204    36A     -0.396878

  @DF-RHF Final Energy:  -387.13463600063557

   => Energetics <=

    Nuclear Repulsion Energy =            438.1391731450591465
    One-Electron Energy =               -1392.7916864716644341
    Two-Electron Energy =                 567.5178773259691525
    DFT Exchange-Correlation Energy =       0.0000000000000000
    Empirical Dispersion Energy =           0.0000000000000000
    PCM Polarization Energy =               0.0000000000000000
    EFP Energy =                            0.0000000000000000
    Total Energy =                       -387.1346360006360783

  Mulliken Charges: (a.u.)
   Center  Symbol    Alpha    Beta     Spin     Total
       1     O     4.26246  4.26246  0.00000 -0.52492
       2     C     2.73375  2.73375  0.00000  0.53250
       3     C     3.20741  3.20741  0.00000 -0.41483
       4     C     3.28978  3.28978  0.00000 -0.57956
       5     C     3.15366  3.15366  0.00000 -0.30732
       6     H     0.40304  0.40304  0.00000  0.19392
       7     H     0.41649  0.41649  0.00000  0.16702
       8     C     3.15350  3.15350  0.00000 -0.30700
       9     H     0.40453  0.40453  0.00000  0.19094
      10     H     0.41902  0.41902  0.00000  0.16196
      11     C     3.15121  3.15121  0.00000 -0.30242
      12     H     0.42256  0.42256  0.00000  0.15487
      13     H     0.42430  0.42430  0.00000  0.15140
      14     C     3.15170  3.15170  0.00000 -0.30341
      15     H     0.42157  0.42157  0.00000  0.15686
      16     H     0.42327  0.42327  0.00000  0.15347
      17     C     3.23942  3.23942  0.00000 -0.47883
      18     H     0.42288  0.42288  0.00000  0.15423
      19     H     0.42349  0.42349  0.00000  0.15302
      20     H     0.42104  0.42104  0.00000  0.15793
      21     H     0.41921  0.41921  0.00000  0.16159
      22     H     0.42158  0.42158  0.00000  0.15683
      23     H     0.40830  0.40830  0.00000  0.18341
      24     H     0.39746  0.39746  0.00000  0.20508
      25     H     0.40837  0.40837  0.00000  0.18325

   Total alpha = 36.00000, Total beta = 36.00000, Total charge =  0.00000
