                              Psi4 1.0.54 Driver

  ==> Input File <==

--------------------------------------------------------------------------
set {
	reference rhf
	basis cc-pvtz
}

set_num_threads( 4 )
memory 2 gb

molecule MOL {
0 1

H	 1.023483	 -1.672236	 0.783090
C	 0.372839	 -0.816516	 0.972441
N	 -0.537714	 -0.645117	 0.000000
O	 0.493581	 -0.140173	 1.944398
C	 -1.522613	 0.412524	 0.000000
H	 -0.523703	 -1.285835	 -0.754498
H	 -2.150256	 0.356137	 -0.880771
H	 -1.005621	 1.357208	 0.000000
H	 -2.150256	 0.356137	 0.880771

	symmetry c1
}
set optking {
	frozen_dihedral = ("
		6 3 5 7
	")
}

ee,wfn = optimize('scf', return_wfn=True)
oeprop( wfn, 'DIPOLE', 'QUADRUPOLE', 'MULLIKEN_CHARGES')
f=open( 'psi4out.xyz', 'w' )
f.write( "9  " )
f.write( str(ee) + "\n" )
f.write( MOL.save_string_xyz() )
f.close()
--------------------------------------------------------------------------

    Molecular point group: c1
  Charge       = 0
  Multiplicity = 1
  Basis Set: CC-PVTZ
  Basis Set:
  @DF-RHF Final Energy:  -208.04304235727864
    Total Energy =                       -208.0430423572786935
    Molecular point group: c1
  Basis Set: CC-PVTZ
  Basis Set:
  Basis Set: CC-PVTZ
  Basis Set:
  @DF-RHF Final Energy:  -208.04357388804294
    Total Energy =                       -208.0435738880428858
  Basis Set: CC-PVTZ
  Basis Set:
  Basis Set: CC-PVTZ
  Basis Set:
  @DF-RHF Final Energy:  -208.04364879961864
    Total Energy =                       -208.0436487996185519
  Basis Set: CC-PVTZ
  Basis Set:
  Basis Set: CC-PVTZ
  Basis Set:
  @DF-RHF Final Energy:  -208.04356875859378
    Total Energy =                       -208.0435687585938922
  Basis Set: CC-PVTZ
  Basis Set:
  Charge       = 0
  Multiplicity = 1
  Basis Set: CC-PVTZ
  Basis Set:

    Orbital Energies (a.u.)
    -----------------------

    Doubly Occupied:

       1A    -20.516592     2A    -15.584383     3A    -11.335942
       4A    -11.260618     5A     -1.393863     6A     -1.239347
       7A     -0.969823     8A     -0.809331     9A     -0.749165
      10A     -0.645790    11A     -0.629953    12A     -0.596191
      13A     -0.559749    14A     -0.536706    15A     -0.428158
      16A     -0.396741

  @DF-RHF Final Energy:  -208.04366274762305

   => Energetics <=

    Nuclear Repulsion Energy =            122.9402564894848382
    One-Electron Energy =                -526.6631312846504898
    Two-Electron Energy =                 195.6792120475426486
    DFT Exchange-Correlation Energy =       0.0000000000000000
    Empirical Dispersion Energy =           0.0000000000000000
    PCM Polarization Energy =               0.0000000000000000
    EFP Energy =                            0.0000000000000000
    Total Energy =                       -208.0436627476229887
    Molecular point group: c1
  Basis Set: CC-PVTZ
  Basis Set:

  -Total Gradient:
     Atom            X                  Y                   Z
    ------   -----------------  -----------------  -----------------
       1        0.000118506272    -0.000093710767    -0.000024078825
       2       -0.000146768741    -0.000078773364    -0.000056242218
       3       -0.000086205761     0.000142897334    -0.000052142209
       4        0.000078166028     0.000116343896     0.000153371328
       5        0.000053988229    -0.000128595246     0.000031496590
       6        0.000000126151    -0.000009669251    -0.000012090581
       7        0.000003297511    -0.000006005967    -0.000015918995
       8       -0.000013992728     0.000024605222    -0.000005504037
       9       -0.000007116961     0.000032908144    -0.000018891045

  **** Optimization is complete! (in 5 steps) ****
    Final optimized geometry and variables:
    Molecular point group: c1

    Geometry (in Angstrom), charge = 0, multiplicity = 1:

    H            1.330898142725    -1.396370319498     0.082019876757
    C            0.679632055884    -0.535850657799     0.247711379593
    N           -0.228694626763    -0.373062333393    -0.725752834968
    O            0.789092408295     0.166953979956     1.202438496118
    C           -1.192910647487     0.704317415939    -0.707867850659
    H           -0.231732939710    -1.017569654356    -1.475840297117
    H           -1.814081721190     0.627891114335    -1.588452646435
    H           -0.698730791791     1.666276862699    -0.709245850176
    H           -1.820738333967     0.647645083430     0.170815761412

  Mulliken Charges: (a.u.)
   Center  Symbol    Alpha    Beta     Spin     Total
       1     H     0.46455  0.46455  0.00000  0.07090
       2     C     2.87933  2.87933  0.00000  0.24133
       3     N     3.60554  3.60554  0.00000 -0.21108
       4     O     4.21444  4.21444  0.00000 -0.42889
       5     C     3.07474  3.07474  0.00000 -0.14948
       6     H     0.40993  0.40993  0.00000  0.18014
       7     H     0.45468  0.45468  0.00000  0.09064
       8     H     0.44841  0.44841  0.00000  0.10318
       9     H     0.44838  0.44838  0.00000  0.10324

   Total alpha = 16.00000, Total beta = 16.00000, Total charge = -0.00000

*** Psi4 exiting successfully. Buy a developer a beer!
