  ==> Input File <==

--------------------------------------------------------------------------
set {
	reference rhf
	basis 6-31G*
}

set_num_threads( 4 )
memory 2 gb

molecule MOL {
0 1

H	 -2.798360	 -0.862255	 -0.071053
N	 -1.863561	 -0.715187	 0.256814
C	 -1.344686	 0.554728	 -0.219830
H	 -1.300452	 -1.461917	 -0.101532
C	 0.081427	 0.741154	 0.254071
H	 -1.362155	 0.656231	 -1.305829
H	 -1.952773	 1.354456	 0.191809
O	 0.197703	 0.175261	 1.528171
H	 0.773506	 0.257491	 -0.434939
H	 0.319374	 1.801992	 0.289261
C	 1.443742	 0.351229	 2.123144
H	 1.414036	 -0.125017	 3.093713
H	 2.235258	 -0.105653	 1.531752
H	 1.676171	 1.405989	 2.254547

	symmetry c1
}
set optking {
	frozen_dihedral = ("
		8 5 3 6
	")
}

ee = optimize('scf')
oeprop('DIPOLE', 'QUADRUPOLE', 'MULLIKEN_CHARGES')
f=open( 'psi4out.xyz', 'w' )
f.write( "14  " )
f.write( str(ee) + "\n" )
f.write( MOL.save_string_xyz() )
f.close()
--------------------------------------------------------------------------

    Molecular point group: c1
  Charge       = 0
  Multiplicity = 1
  Basis Set: 6-31G*
  Basis Set:
  @DF-RHF Final Energy:  -248.11331377625481
    Total Energy =                       -248.1133137762548131
    Molecular point group: c1
  Basis Set: 6-31G*
  Basis Set:
  Basis Set: 6-31G*
  Basis Set:
  @DF-RHF Final Energy:  -248.11460928179653
    Total Energy =                       -248.1146092817964472
  Basis Set: 6-31G*
  Basis Set:
  Basis Set: 6-31G*
  Basis Set:
  @DF-RHF Final Energy:  -248.11527076659905
    Total Energy =                       -248.1152707665990533
  Basis Set: 6-31G*
  Basis Set:
  Basis Set: 6-31G*
  Basis Set:
  @DF-RHF Final Energy:  -248.11533912851866
    Total Energy =                       -248.1153391285184284
  Basis Set: 6-31G*
  Basis Set:
  @DF-RHF Final Energy:  -248.11537374355197
    Total Energy =                       -248.1153737435519133
  @DF-RHF Final Energy:  -248.11538088187612
    Total Energy =                       -248.1153808818759785
  @DF-RHF Final Energy:  -248.11538575530025
    Total Energy =                       -248.1153857553002808
  @DF-RHF Final Energy:  -248.11538954507074
    Total Energy =                       -248.1153895450706841
  @DF-RHF Final Energy:  -248.11539223244733
    Total Energy =                       -248.1153922324474479
  Basis Set: 6-31G*
  Basis Set:
  @DF-RHF Final Energy:  -248.11539393698831
    Total Energy =                       -248.1153939369882551
  Basis Set: 6-31G*
  Basis Set:
  Basis Set: 6-31G*
  Basis Set:
  @DF-RHF Final Energy:  -248.11539317486719
    Total Energy =                       -248.1153931748671084
  Basis Set: 6-31G*
  Basis Set:
  Basis Set: 6-31G*
  Basis Set:
  @DF-RHF Final Energy:  -248.11539469844149
    Total Energy =                       -248.1153946984417189
  Basis Set: 6-31G*
  Basis Set:
  Charge       = 0
  Multiplicity = 1
  Basis Set: 6-31G*
  Basis Set:

    Orbital Energies (a.u.)
    -----------------------

    Doubly Occupied:

       1A    -20.553640     2A    -15.527085     3A    -11.270980
       4A    -11.264265     5A    -11.243610     6A     -1.380806
       7A     -1.171568     8A     -0.997785     9A     -0.908104
      10A     -0.816883    11A     -0.683321    12A     -0.668039
      13A     -0.651195    14A     -0.608267    15A     -0.586167
      16A     -0.574590    17A     -0.516183    18A     -0.499251
      19A     -0.467599    20A     -0.413338    21A     -0.374270

  @DF-RHF Final Energy:  -248.11539502557457

   => Energetics <=

    Nuclear Repulsion Energy =            194.4962515506302339
    One-Electron Energy =                -722.8693989148752053
    Two-Electron Energy =                 280.2577523386703433
    DFT Exchange-Correlation Energy =       0.0000000000000000
    Empirical Dispersion Energy =           0.0000000000000000
    PCM Polarization Energy =               0.0000000000000000
    EFP Energy =                            0.0000000000000000
    Total Energy =                       -248.1153950255745713
    Molecular point group: c1
  Basis Set: 6-31G*
  Basis Set:

  -Total Gradient:
     Atom            X                  Y                   Z
    ------   -----------------  -----------------  -----------------
       1       -0.000018428430     0.000023487564     0.000020634445
       2        0.000023452852     0.000014502499     0.000108171642
       3       -0.000734660410     0.005038898741    -0.000130087866
       4       -0.000009830163    -0.000000857741    -0.000035744898
       5       -0.001422039727     0.004330634158     0.002205978240
       6        0.000970430788    -0.005383192461    -0.000523131108
       7        0.000038735605     0.000036235949     0.000066952171
       8        0.001157807942    -0.004005528291    -0.001735038652
       9        0.000004803843    -0.000028687315     0.000037309636
      10       -0.000006888248    -0.000024115264     0.000005044745
      11        0.000012297962     0.000000023087    -0.000018786302
      12       -0.000011979582     0.000000367814    -0.000001230174
      13        0.000003689918    -0.000003476790    -0.000001378710
      14       -0.000007392352     0.000001708050     0.000001306831

  **** Optimization is complete! (in 13 steps) ****
    Final optimized geometry and variables:
    Molecular point group: c1

    Geometry (in Angstrom), charge = 0, multiplicity = 1:

    H           -2.443678485293    -1.138716005954    -1.150941079943
    N           -1.640079347776    -0.922432855795    -0.594781319799
    C           -1.071896089969     0.354426328659    -0.997190091002
    H           -0.980442549863    -1.666304864267    -0.711191536743
    C            0.359079564971     0.527500294608    -0.494971715493
    H           -1.029245426315     0.455276618427    -2.083881803681
    H           -1.703027033624     1.145042542053    -0.607668375964
    O            0.509251507680    -0.011229467485     0.778669847182
    H            1.044230994334     0.021623197665    -1.178760438248
    H            0.621825603441     1.584831769881    -0.506648749593
    C            1.788327635228     0.133779035728     1.305041594973
    H            1.792890075419    -0.328907924557     2.282230253382
    H            2.535467785894    -0.354215364502     0.680431279340
    H            2.061698443366     1.182361751978     1.410483202097

  Mulliken Charges: (a.u.)
   Center  Symbol    Alpha    Beta     Spin     Total
       1     H     0.33414  0.33414  0.00000  0.33172
       2     N     3.91391  3.91391  0.00000 -0.82781
       3     C     3.06365  3.06365  0.00000 -0.12729
       4     H     0.33222  0.33222  0.00000  0.33556
       5     C     2.99746  2.99746  0.00000  0.00508
       6     H     0.43401  0.43401  0.00000  0.13198
       7     H     0.41481  0.41481  0.00000  0.17038
       8     O     4.29406  4.29406  0.00000 -0.58812
       9     H     0.43503  0.43503  0.00000  0.12995
      10     H     0.42802  0.42802  0.00000  0.14395
      11     C     3.08017  3.08017  0.00000 -0.16034
      12     H     0.41018  0.41018  0.00000  0.17963
      13     H     0.43196  0.43196  0.00000  0.13607
      14     H     0.43037  0.43037  0.00000  0.13925

   Total alpha = 21.00000, Total beta = 21.00000, Total charge = -0.00000
