  ==> Input File <==

--------------------------------------------------------------------------
set {
	reference rhf
	basis 6-31G*
}

set_num_threads( 1 )
memory 2 gb

molecule MOL {
0 1

H	 3.893188	 0.355400	 -0.101367
N	 3.092854	 -0.246221	 -0.068770
C	 1.865559	 0.531981	 0.018834
H	 3.199514	 -0.826043	 0.741946
C	 0.645745	 -0.382037	 -0.029944
H	 1.841966	 1.207024	 -0.831236
H	 1.815756	 1.155410	 0.915079
C	 -0.679275	 0.379305	 0.025956
H	 0.698998	 -0.976915	 -0.937203
H	 0.693479	 -1.083846	 0.802235
C	 -0.503064	 1.877951	 0.277722
H	 -1.305344	 -0.043266	 0.810380
H	 -1.222054	 0.235273	 -0.907046
C	 -1.829825	 2.634072	 0.336871
H	 0.037838	 2.024331	 1.210038
H	 0.120030	 2.303505	 -0.506059
H	 -2.462461	 2.253975	 1.134125
H	 -1.671890	 3.692961	 0.516911
H	 -2.379435	 2.535519	 -0.595120

	symmetry c1
}
set optking {
	frozen_dihedral = ("
		6 3 5 9,
		12 8 11 15,
		1 2 3 6
	")
}

ee = energy('scf')
oeprop('DIPOLE', 'QUADRUPOLE', 'MULLIKEN_CHARGES')
f=open( 'psi4out.xyz', 'w' )
f.write( "19  " )
f.write( str(ee) + "\n" )
f.write( MOL.save_string_xyz() )
f.close()
--------------------------------------------------------------------------

    Molecular point group: c1

    Geometry (in Angstrom), charge = 0, multiplicity = 1:

       Center              X                  Y                   Z               Mass
    ------------   -----------------  -----------------  -----------------  -----------------
           H          3.427263790604    -0.448013391492    -0.203090291670     1.007825032070
           N          2.626929790604    -1.049634391492    -0.170493291670    14.003074004780
           C          1.399634790604    -0.271432391492    -0.082889291670    12.000000000000
           H          2.733589790604    -1.629456391492     0.640222708330     1.007825032070
           C          0.179820790604    -1.185450391492    -0.131667291670    12.000000000000
           H          1.376041790604     0.403610608508    -0.932959291670     1.007825032070
           H          1.349831790604     0.351996608508     0.813355708330     1.007825032070
           C         -1.145199209396    -0.424108391492    -0.075767291670    12.000000000000
           H          0.233073790604    -1.780328391492    -1.038926291670     1.007825032070
           H          0.227554790604    -1.887259391492     0.700511708330     1.007825032070
           C         -0.968988209396     1.074537608508     0.175998708330    12.000000000000
           H         -1.771268209396    -0.846679391492     0.708656708330     1.007825032070
           H         -1.687978209396    -0.568140391492    -1.008769291670     1.007825032070
           C         -2.295749209396     1.830658608508     0.235147708330    12.000000000000
           H         -0.428086209396     1.220917608508     1.108314708330     1.007825032070
           H         -0.345894209396     1.500091608508    -0.607782291670     1.007825032070
           H         -2.928385209396     1.450561608508     1.032401708330     1.007825032070
           H         -2.137814209396     2.889547608508     0.415187708330     1.007825032070
           H         -2.845359209396     1.732105608508    -0.696843291670     1.007825032070

  Charge       = 0
  Multiplicity = 1
  Basis Set: 6-31G*
  Basis Set:

    Orbital Energies (a.u.)
    -----------------------

    Doubly Occupied:

       1A    -15.530841     2A    -11.237644     3A    -11.213637
       4A    -11.211381     5A    -11.207951     6A    -11.207296
       7A     -1.175678     8A     -1.075675     9A     -0.994491
      10A     -0.896890    11A     -0.842337    12A     -0.762235
      13A     -0.664369    14A     -0.642748    15A     -0.620891
      16A     -0.584115    17A     -0.573985    18A     -0.548468
      19A     -0.524460    20A     -0.503591    21A     -0.494938
      22A     -0.462632    23A     -0.450400    24A     -0.442369
      25A     -0.377655

  @DF-RHF Final Energy:  -251.33715906617329

   => Energetics <=

    Nuclear Repulsion Energy =            252.5803379027653364
    One-Electron Energy =                -839.3416669007679047
    Two-Electron Energy =                 335.4241699318287147
    DFT Exchange-Correlation Energy =       0.0000000000000000
    Empirical Dispersion Energy =           0.0000000000000000
    PCM Polarization Energy =               0.0000000000000000
    EFP Energy =                            0.0000000000000000
    Total Energy =                       -251.3371590661738537

  Mulliken Charges: (a.u.)
   Center  Symbol    Alpha    Beta     Spin     Total
       1     H     0.33300  0.33300  0.00000  0.33400
       2     N     3.92286  3.92286  0.00000 -0.84571
       3     C     3.06449  3.06449  0.00000 -0.12897
       4     H     0.33596  0.33596  0.00000  0.32807
       5     C     3.15527  3.15527  0.00000 -0.31054
       6     H     0.41950  0.41950  0.00000  0.16100
       7     H     0.43155  0.43155  0.00000  0.13691
       8     C     3.15584  3.15584  0.00000 -0.31169
       9     H     0.41035  0.41035  0.00000  0.17929
      10     H     0.42543  0.42543  0.00000  0.14914
      11     C     3.16144  3.16144  0.00000 -0.32289
      12     H     0.42129  0.42129  0.00000  0.15743
      13     H     0.42013  0.42013  0.00000  0.15973
      14     C     3.23613  3.23613  0.00000 -0.47227
      15     H     0.42144  0.42144  0.00000  0.15712
      16     H     0.42073  0.42073  0.00000  0.15855
      17     H     0.42236  0.42236  0.00000  0.15527
      18     H     0.42023  0.42023  0.00000  0.15954
      19     H     0.42199  0.42199  0.00000  0.15601

   Total alpha = 25.00000, Total beta = 25.00000, Total charge = -0.00000
