  ==> Input File <==

--------------------------------------------------------------------------
set {
	reference rhf
	basis 6-31G*
}

set_num_threads( 1 )
memory 2 gb

molecule MOL {
0 1

H	 -3.420663	 1.227371	 -1.044276
O	 -3.452007	 0.283848	 -0.965577
C	 -3.181085	 -0.079926	 0.364119
C	 -1.765924	 0.277073	 0.805136
H	 -3.327791	 -1.152017	 0.410903
H	 -3.905698	 0.375695	 1.036898
C	 -0.677594	 -0.417312	 -0.014550
H	 -1.637766	 1.358238	 0.744969
H	 -1.659588	 0.017670	 1.857098
C	 0.738335	 -0.034840	 0.421385
H	 -0.814977	 -0.178223	 -1.064632
H	 -0.802730	 -1.495410	 0.071702
C	 1.822265	 -0.738362	 -0.399735
H	 0.853533	 1.043532	 0.342250
H	 0.871597	 -0.279636	 1.474438
C	 3.215594	 -0.107225	 -0.297484
H	 1.518535	 -0.768925	 -1.444967
H	 1.888219	 -1.774277	 -0.073626
C	 3.322628	 1.297650	 -0.893532
H	 3.925316	 -0.755746	 -0.805428
H	 3.522815	 -0.081079	 0.746132
H	 3.009424	 1.304644	 -1.934202
H	 4.346987	 1.655531	 -0.855470
H	 2.708398	 2.014204	 -0.358336

	symmetry c1
}
set optking {
	frozen_dihedral = ("
		20 16 13 17,
		13 10 7 11,
		11 7 4 3,
		1 2 3 5,
		7 4 3 2
	")
}

ee = energy('scf')
oeprop('DIPOLE', 'QUADRUPOLE', 'MULLIKEN_CHARGES')
f=open( 'psi4out.xyz', 'w' )
f.write( "24  " )
f.write( str(ee) + "\n" )
f.write( MOL.save_string_xyz() )
f.close()
--------------------------------------------------------------------------

    Molecular point group: c1

    Geometry (in Angstrom), charge = 0, multiplicity = 1:

       Center              X                  Y                   Z               Mass
    ------------   -----------------  -----------------  -----------------  -----------------
           H         -3.365608358168     1.146109922661    -0.901976656223     1.007825032070
           O         -3.396952358168     0.202586922661    -0.823277656223    15.994914619560
           C         -3.126030358168    -0.161187077339     0.506418343777    12.000000000000
           C         -1.710869358168     0.195811922661     0.947435343777    12.000000000000
           H         -3.272736358168    -1.233278077339     0.553202343777     1.007825032070
           H         -3.850643358168     0.294433922661     1.179197343777     1.007825032070
           C         -0.622539358168    -0.498573077339     0.127749343777    12.000000000000
           H         -1.582711358168     1.276976922661     0.887268343777     1.007825032070
           H         -1.604533358168    -0.063591077339     1.999397343777     1.007825032070
           C          0.793389641832    -0.116101077339     0.563684343777    12.000000000000
           H         -0.759922358168    -0.259484077339    -0.922332656223     1.007825032070
           H         -0.747675358168    -1.576671077339     0.214001343777     1.007825032070
           C          1.877319641832    -0.819623077339    -0.257435656223    12.000000000000
           H          0.908587641832     0.962270922661     0.484549343777     1.007825032070
           H          0.926651641832    -0.360897077339     1.616737343777     1.007825032070
           C          3.270648641832    -0.188486077339    -0.155184656223    12.000000000000
           H          1.573589641832    -0.850186077339    -1.302667656223     1.007825032070
           H          1.943273641832    -1.855538077339     0.068673343777     1.007825032070
           C          3.377682641832     1.216388922661    -0.751232656223    12.000000000000
           H          3.980370641832    -0.837007077339    -0.663128656223     1.007825032070
           H          3.577869641832    -0.162340077339     0.888431343777     1.007825032070
           H          3.064478641832     1.223382922661    -1.791902656223     1.007825032070
           H          4.402041641832     1.574269922661    -0.713170656223     1.007825032070
           H          2.763452641832     1.932942922661    -0.216036656223     1.007825032070

  Charge       = 0
  Multiplicity = 1
  Basis Set: 6-31G*
  Basis Set:

    Orbital Energies (a.u.)
    -----------------------

    Doubly Occupied:

       1A    -20.553545     2A    -11.267605     3A    -11.217286
       4A    -11.214189     5A    -11.211998     6A    -11.211323
       7A    -11.210993     8A    -11.207490     9A     -1.360122
      10A     -1.088583    11A     -1.048231    12A     -0.985482
      13A     -0.915276    14A     -0.850439    15A     -0.800542
      16A     -0.776254    17A     -0.678897    18A     -0.654182
      19A     -0.624524    20A     -0.620264    21A     -0.598928
      22A     -0.580209    23A     -0.562829    24A     -0.537993
      25A     -0.513558    26A     -0.511813    27A     -0.497762
      28A     -0.473449    29A     -0.467023    30A     -0.458629
      31A     -0.456383    32A     -0.450124    33A     -0.418669

  @DF-RHF Final Energy:  -349.24619714746069

   => Energetics <=

    Nuclear Repulsion Energy =            385.5963151197141201
    One-Electron Energy =               -1237.6362496188939986
    Two-Electron Energy =                 502.7937373517187325
    DFT Exchange-Correlation Energy =       0.0000000000000000
    Empirical Dispersion Energy =           0.0000000000000000
    PCM Polarization Energy =               0.0000000000000000
    EFP Energy =                            0.0000000000000000
    Total Energy =                       -349.2461971474612028

  Mulliken Charges: (a.u.)
   Center  Symbol    Alpha    Beta     Spin     Total
       1     H     0.28339  0.28339  0.00000  0.43322
       2     O     4.36834  4.36834  0.00000 -0.73668
       3     C     2.99613  2.99613  0.00000  0.00774
       4     C     3.16907  3.16907  0.00000 -0.33815
       5     H     0.41633  0.41633  0.00000  0.16734
       6     H     0.42822  0.42822  0.00000  0.14357
       7     C     3.15228  3.15228  0.00000 -0.30456
       8     H     0.42835  0.42835  0.00000  0.14331
       9     H     0.42241  0.42241  0.00000  0.15519
      10     C     3.15411  3.15411  0.00000 -0.30822
      11     H     0.41193  0.41193  0.00000  0.17614
      12     H     0.42358  0.42358  0.00000  0.15283
      13     C     3.15300  3.15300  0.00000 -0.30600
      14     H     0.42304  0.42304  0.00000  0.15392
      15     H     0.42432  0.42432  0.00000  0.15136
      16     C     3.15262  3.15262  0.00000 -0.30523
      17     H     0.42320  0.42320  0.00000  0.15361
      18     H     0.42157  0.42157  0.00000  0.15686
      19     C     3.24090  3.24090  0.00000 -0.48181
      20     H     0.42100  0.42100  0.00000  0.15800
      21     H     0.42391  0.42391  0.00000  0.15217
      22     H     0.42199  0.42199  0.00000  0.15602
      23     H     0.41929  0.41929  0.00000  0.16142
      24     H     0.42104  0.42104  0.00000  0.15793

   Total alpha = 33.00000, Total beta = 33.00000, Total charge = -0.00000
