                              Psi4 1.0.54 Driver

  ==> Input File <==

--------------------------------------------------------------------------
set {
	reference rhf
	basis cc-pvtz
}

set_num_threads( 4 )
memory 2 gb

molecule MOL {
0 1

H	 -2.644180	 -0.653737	 1.272255
C	 -2.092774	 -0.380414	 0.391915
O	 -0.808934	 -0.154049	 0.752536
F	 -2.163230	 -1.351640	 -0.507133
F	 -2.627232	 0.691260	 -0.169301
C	 0.085006	 0.250800	 -0.215074
C	 -0.070033	 -0.693642	 -1.404725
Cl	 1.751535	 0.199887	 0.389597
H	 -0.102048	 1.253574	 -0.557275
F	 0.745797	 -0.352721	 -2.369720
F	 -1.296457	 -0.606066	 -1.862469
F	 0.158722	 -1.937080	 -1.082570

	symmetry c1
}
set optking {
	frozen_dihedral = ("
		9 6 3 2
	")
}

ee,wfn = optimize('scf', return_wfn=True)
oeprop( wfn, 'DIPOLE', 'QUADRUPOLE', 'MULLIKEN_CHARGES')
f=open( 'psi4out.xyz', 'w' )
f.write( "12  " )
f.write( str(ee) + "\n" )
f.write( MOL.save_string_xyz() )
f.close()
--------------------------------------------------------------------------

    Molecular point group: c1
  Charge       = 0
  Multiplicity = 1
  Basis Set: CC-PVTZ
  Basis Set:
  @DF-RHF Final Energy: -1146.53306081375058
    Total Energy =                      -1146.5330608137501258
    Molecular point group: c1
  Basis Set: CC-PVTZ
  Basis Set:
  Basis Set: CC-PVTZ
  Basis Set:
  @DF-RHF Final Energy: -1146.57681879866414
    Total Energy =                      -1146.5768187986643625
  Basis Set: CC-PVTZ
  Basis Set:
  Basis Set: CC-PVTZ
  Basis Set:
  @DF-RHF Final Energy: -1146.59215536079455
    Total Energy =                      -1146.5921553607945498
  Basis Set: CC-PVTZ
  Basis Set:
  Basis Set: CC-PVTZ
  Basis Set:
  @DF-RHF Final Energy: -1146.60227617914097
    Total Energy =                      -1146.6022761791405173
  Basis Set: CC-PVTZ
  Basis Set:
  @DF-RHF Final Energy: -1146.60709008252570
    Total Energy =                      -1146.6070900825261560
  @DF-RHF Final Energy: -1146.60923689859283
    Total Energy =                      -1146.6092368985932808
  @DF-RHF Final Energy: -1146.60984573683504
    Total Energy =                      -1146.6098457368343588
  @DF-RHF Final Energy: -1146.61000442144245
    Total Energy =                      -1146.6100044214419995
  @DF-RHF Final Energy: -1146.61002486684765
    Total Energy =                      -1146.6100248668465156
  @DF-RHF Final Energy: -1146.61002825619562
    Total Energy =                      -1146.6100282561951644
  @DF-RHF Final Energy: -1146.61002997461219
    Total Energy =                      -1146.6100299746119617
  Basis Set: CC-PVTZ
  Basis Set:
  @DF-RHF Final Energy: -1146.61002290964166
    Total Energy =                      -1146.6100229096409748
  Basis Set: CC-PVTZ
  Basis Set:
  Basis Set: CC-PVTZ
  Basis Set:
  @DF-RHF Final Energy: -1146.60997901423389
    Total Energy =                      -1146.6099790142352504
  Basis Set: CC-PVTZ
  Basis Set:
  Basis Set: CC-PVTZ
  Basis Set:
  @DF-RHF Final Energy: -1146.61003273767619
    Total Energy =                      -1146.6100327376771020
  Basis Set: CC-PVTZ
  Basis Set:
  Charge       = 0
  Multiplicity = 1
  Basis Set: CC-PVTZ
  Basis Set:

    Orbital Energies (a.u.)
    -----------------------

    Doubly Occupied:

       1A   -104.858331     2A    -26.354123     3A    -26.354068
       4A    -26.353602     5A    -26.341992     6A    -26.336968
       7A    -20.636473     8A    -11.521645     9A    -11.482004
      10A    -11.403486    11A    -10.583799    12A     -8.050616
      13A     -8.048583    14A     -8.048512    15A     -1.768777
      16A     -1.720573    17A     -1.663378    18A     -1.661433
      19A     -1.642602    20A     -1.479110    21A     -1.181083
      22A     -1.043132    23A     -0.997309    24A     -0.923327
      25A     -0.860523    26A     -0.856990    27A     -0.853533
      28A     -0.834400    29A     -0.821045    30A     -0.782464
      31A     -0.734958    32A     -0.732737    33A     -0.713154
      34A     -0.698120    35A     -0.683554    36A     -0.680159
      37A     -0.666767    38A     -0.661950    39A     -0.652507
      40A     -0.645436    41A     -0.590992    42A     -0.549081
      43A     -0.537843    44A     -0.480558    45A     -0.469674

  @DF-RHF Final Energy: -1146.61003290568328

   => Energetics <=

    Nuclear Repulsion Energy =            752.1370744406174254
    One-Electron Energy =               -3087.5714695960014069
    Two-Electron Energy =                1188.8243622496997887
    DFT Exchange-Correlation Energy =       0.0000000000000000
    Empirical Dispersion Energy =           0.0000000000000000
    PCM Polarization Energy =               0.0000000000000000
    EFP Energy =                            0.0000000000000000
    Total Energy =                      -1146.6100329056839655
    Molecular point group: c1
  Basis Set: CC-PVTZ
  Basis Set:

  -Total Gradient:
     Atom            X                  Y                   Z
    ------   -----------------  -----------------  -----------------
       1        0.000007484422    -0.000008969107    -0.000015111072
       2        0.000485691970    -0.004192106215    -0.000835756240
       3        0.000359889856     0.006772612095     0.002465893498
       4        0.000033660348     0.000032381956    -0.000052309589
       5       -0.000026132403     0.000007505211    -0.000050631263
       6       -0.004169468361    -0.003961194458    -0.004413969562
       7       -0.000045345101     0.000089931621    -0.000001025502
       8       -0.000027921574    -0.000041673191     0.000053719879
       9        0.003340359077     0.001270475634     0.002912858082
      10        0.000059855261    -0.000000548904    -0.000035353825
      11        0.000015005010     0.000001782207    -0.000004918675
      12       -0.000033078441     0.000029803175    -0.000023395660

  **** Optimization is complete! (in 15 steps) ****
    Final optimized geometry and variables:
    Molecular point group: c1

    Geometry (in Angstrom), charge = 0, multiplicity = 1:

    H           -2.128096947564     0.166399556168     2.136776948336
    C           -1.704448425813     0.152325417883     1.149077392949
    O           -0.362500799788     0.269751043492     1.285308839638
    F           -2.039338897687    -0.971641442387     0.545002927070
    F           -2.200489093534     1.150725441475     0.432349651603
    C            0.497847778846     0.593001796255     0.246672656502
    C            0.427014272496    -0.306009846724    -0.995315671072
    CL           2.124983612591     0.486197824433     0.937922665823
    H            0.372894224831     1.617683857062    -0.059449123309
    F            1.385921587775     0.021939159392    -1.825045373041
    F           -0.709349505002    -0.124581914294    -1.623921770870
    F            0.542681223952    -1.570581409732    -0.699982515320

  Mulliken Charges: (a.u.)
   Center  Symbol    Alpha    Beta     Spin     Total
       1     H     0.44594  0.44594  0.00000  0.10811
       2     C     2.74390  2.74390  0.00000  0.51221
       3     O     4.15794  4.15794  0.00000 -0.31588
       4     F     4.61340  4.61340  0.00000 -0.22679
       5     F     4.62050  4.62050  0.00000 -0.24099
       6     C     2.93465  2.93465  0.00000  0.13069
       7     C     2.68122  2.68122  0.00000  0.63757
       8    CL     8.57042  8.57042  0.00000 -0.14084
       9     H     0.42558  0.42558  0.00000  0.14885
      10     F     4.60172  4.60172  0.00000 -0.20344
      11     F     4.60403  4.60403  0.00000 -0.20806
      12     F     4.60072  4.60072  0.00000 -0.20143

   Total alpha = 45.00000, Total beta = 45.00000, Total charge =  0.00000

*** Psi4 exiting successfully. Buy a developer a beer!
