  ==> Input File <==

--------------------------------------------------------------------------
set {
	reference rhf
	basis cc-pvtz
}

set_num_threads( 4 )
memory 2 gb

molecule MOL {
0 1

H	 -2.266619	 1.169943	 0.000098
O	 -1.438073	 1.611259	 0.000041
C	 -0.408657	 0.734701	 0.000005
C	 -0.625707	 -0.483498	 -0.616670
C	 0.815738	 1.030057	 0.587997
H	 -1.584076	 -0.673317	 -1.058743
C	 0.380459	 -1.425407	 -0.654152
C	 1.808485	 0.065065	 0.535347
C	 1.051020	 2.359910	 1.260555
H	 0.204712	 -2.368928	 -1.134632
C	 1.606211	 -1.155692	 -0.076903
H	 2.760463	 0.278015	 0.985190
H	 0.365317	 2.520128	 2.087877
H	 2.053738	 2.413740	 1.659429
H	 0.934235	 3.188381	 0.567502
H	 2.393544	 -1.883590	 -0.102203

	symmetry c1
}
set optking {
	frozen_dihedral = ("
		4 3 2 1
	")
}

ee = optimize('scf')
oeprop('DIPOLE', 'QUADRUPOLE', 'MULLIKEN_CHARGES')
f=open( 'psi4out.xyz', 'w' )
f.write( "16  " )
f.write( str(ee) + "\n" )
f.write( MOL.save_string_xyz() )
f.close()
--------------------------------------------------------------------------

    Molecular point group: c1
  Charge       = 0
  Multiplicity = 1
  Basis Set: CC-PVTZ
  Basis Set:
  @DF-RHF Final Energy:  -344.71707658128099
    Total Energy =                       -344.7170765812804802
    Molecular point group: c1
  Basis Set: CC-PVTZ
  Basis Set:
  Basis Set: CC-PVTZ
  Basis Set:
  @DF-RHF Final Energy:  -344.71908522999178
    Total Energy =                       -344.7190852299916628
  Basis Set: CC-PVTZ
  Basis Set:
  Basis Set: CC-PVTZ
  Basis Set:
  @DF-RHF Final Energy:  -344.71925126318155
    Total Energy =                       -344.7192512631818317
  Basis Set: CC-PVTZ
  Basis Set:
  Basis Set: CC-PVTZ
  Basis Set:
  @DF-RHF Final Energy:  -344.71926550147310
    Total Energy =                       -344.7192655014733873
  Basis Set: CC-PVTZ
  Basis Set:
  Charge       = 0
  Multiplicity = 1
  Basis Set: CC-PVTZ
  Basis Set:

    Orbital Energies (a.u.)
    -----------------------

    Doubly Occupied:

       1A    -20.579999     2A    -11.289490     3A    -11.229470
       4A    -11.228620     5A    -11.225884     6A    -11.223658
       7A    -11.218079     8A    -11.213180     9A     -1.409211
      10A     -1.152977    11A     -1.047404    12A     -1.006355
      13A     -0.932205    14A     -0.845936    15A     -0.802875
      16A     -0.734883    17A     -0.674525    18A     -0.654572
      19A     -0.615176    20A     -0.598007    21A     -0.577289
      22A     -0.562227    23A     -0.545684    24A     -0.540522
      25A     -0.502290    26A     -0.484992    27A     -0.475665
      28A     -0.333574    29A     -0.311289

  @DF-RHF Final Energy:  -344.71926921450671

   => Energetics <=

    Nuclear Repulsion Energy =            350.8765489108070028
    One-Electron Energy =               -1163.1595504214010361
    Two-Electron Energy =                 467.5637322960872098
    DFT Exchange-Correlation Energy =       0.0000000000000000
    Empirical Dispersion Energy =           0.0000000000000000
    PCM Polarization Energy =               0.0000000000000000
    EFP Energy =                            0.0000000000000000
    Total Energy =                       -344.7192692145067667
    Molecular point group: c1
  Basis Set: CC-PVTZ
  Basis Set:

  -Total Gradient:
     Atom            X                  Y                   Z
    ------   -----------------  -----------------  -----------------
       1        0.000016633917    -0.000066019895     0.002340681988
       2        0.000234052228     0.000500952204    -0.003718555487
       3       -0.000771356186    -0.001175639887     0.002903485350
       4        0.000542016680     0.000764202740    -0.001483821613
       5       -0.000092521926     0.000103290920    -0.000059679840
       6        0.000037600343    -0.000011107440     0.000011238299
       7       -0.000008910190    -0.000027411842    -0.000010830664
       8        0.000017186324    -0.000121655924     0.000009270820
       9        0.000062910917     0.000025150262     0.000027174358
      10        0.000031689173    -0.000026143565     0.000001923092
      11        0.000037343394     0.000085117017     0.000026776990
      12       -0.000006975764     0.000012393663     0.000002071309
      13       -0.000016547626    -0.000000459716     0.000004948292
      14       -0.000033723312    -0.000027987154    -0.000020230322
      15       -0.000018013703    -0.000000279520    -0.000004207813
      16       -0.000031384269    -0.000034401864    -0.000030244758

  **** Optimization is complete! (in 5 steps) ****
    Final optimized geometry and variables:
    Molecular point group: c1

    Geometry (in Angstrom), charge = 0, multiplicity = 1:

    H           -2.587052114384     0.871533878125    -0.114649943794
    O           -1.731440591689     1.260412071094    -0.104628354490
    C           -0.767464713260     0.305406594260    -0.136818581188
    C           -0.975928767111    -0.906378428496    -0.763199971002
    C            0.459650623373     0.613412271994     0.441373813691
    H           -1.926382519609    -1.110122579757    -1.221782513914
    C            0.035514748219    -1.849088527666    -0.802806944046
    C            1.456382338575    -0.342273117691     0.378812228449
    C            0.675134175352     1.947801917884     1.105839339026
    H           -0.135735629980    -2.791887217793    -1.286149840025
    C            1.257259494998    -1.569018340837    -0.232025581358
    H            2.410272847994    -0.124048357162     0.821725708267
    H           -0.035625823666     2.103340722147     1.908356591981
    H            1.673775971850     2.011431147218     1.516357940370
    H            0.542911260117     2.761236765975     0.402609635437
    H            2.049917536982    -2.291208211465    -0.260853610259

  Mulliken Charges: (a.u.)
   Center  Symbol    Alpha    Beta     Spin     Total
       1     H     0.38646  0.38646  0.00000  0.22707
       2     O     4.17888  4.17888  0.00000 -0.35777
       3     C     2.87017  2.87017  0.00000  0.25966
       4     C     3.12860  3.12860  0.00000 -0.25719
       5     C     2.99527  2.99527  0.00000  0.00947
       6     H     0.43259  0.43259  0.00000  0.13482
       7     C     3.07302  3.07302  0.00000 -0.14605
       8     C     3.08451  3.08451  0.00000 -0.16902
       9     C     3.14138  3.14138  0.00000 -0.28276
      10     H     0.42261  0.42261  0.00000  0.15478
      11     C     3.08821  3.08821  0.00000 -0.17643
      12     H     0.42503  0.42503  0.00000  0.14994
      13     H     0.44834  0.44834  0.00000  0.10332
      14     H     0.45411  0.45411  0.00000  0.09178
      15     H     0.44606  0.44606  0.00000  0.10788
      16     H     0.42476  0.42476  0.00000  0.15049

   Total alpha = 29.00000, Total beta = 29.00000, Total charge = -0.00000
