  ==> Input File <==

--------------------------------------------------------------------------
set {
	reference rhf
	basis 6-31G*
}

set_num_threads( 1 )
memory 2 gb

molecule MOL {
0 1

H	 -2.365416	 1.947962	 -2.212325
C	 -1.370878	 2.361422	 -2.003595
C	 -1.018946	 2.467779	 -0.541595
O	 -0.660056	 2.687829	 -2.897989
C	 -1.220012	 1.144545	 0.209990
H	 0.002486	 2.821047	 -0.460428
H	 -1.670130	 3.227112	 -0.110287
C	 -0.252658	 0.041456	 -0.226725
H	 -1.098515	 1.330888	 1.272910
H	 -2.246544	 0.806236	 0.077566
C	 1.180775	 0.282413	 0.250794
H	 -0.266029	 -0.034465	 -1.312038
H	 -0.597733	 -0.921000	 0.146291
C	 2.148627	 -0.814315	 -0.201312
H	 1.516199	 1.249228	 -0.115937
H	 1.192670	 0.346017	 1.338083
C	 3.580890	 -0.659131	 0.322722
H	 2.166869	 -0.852443	 -1.289387
H	 1.762857	 -1.776509	 0.128956
C	 4.324889	 0.564933	 -0.213704
H	 4.142010	 -1.551473	 0.056605
H	 3.564836	 -0.624694	 1.410140
H	 4.342616	 0.565491	 -1.300421
H	 3.866655	 1.493402	 0.110242
H	 5.353900	 0.572371	 0.132816

	symmetry c1
}
set optking {
	frozen_dihedral = ("
		6 3 5 8,
		6 3 2 4,
		12 8 11 14,
		8 11 14 18,
		20 17 14 18
	")
}

ee = energy('scf')
oeprop('DIPOLE', 'QUADRUPOLE', 'MULLIKEN_CHARGES')
f=open( 'psi4out.xyz', 'w' )
f.write( "25  " )
f.write( str(ee) + "\n" )
f.write( MOL.save_string_xyz() )
f.close()
--------------------------------------------------------------------------

    Molecular point group: c1

    Geometry (in Angstrom), charge = 0, multiplicity = 1:

       Center              X                  Y                   Z               Mass
    ------------   -----------------  -----------------  -----------------  -----------------
           H         -3.128257403440     1.040007163809    -1.608687967196     1.007825032070
           C         -2.133719403440     1.453467163809    -1.399957967196    12.000000000000
           C         -1.781787403440     1.559824163809     0.062042032804    12.000000000000
           O         -1.422897403440     1.779874163809    -2.294351967196    15.994914619560
           C         -1.982853403440     0.236590163809     0.813627032804    12.000000000000
           H         -0.760355403440     1.913092163809     0.143209032804     1.007825032070
           H         -2.432971403440     2.319157163809     0.493350032804     1.007825032070
           C         -1.015499403440    -0.866498836191     0.376912032804    12.000000000000
           H         -1.861356403440     0.422933163809     1.876547032804     1.007825032070
           H         -3.009385403440    -0.101718836191     0.681203032804     1.007825032070
           C          0.417933596560    -0.625541836191     0.854431032804    12.000000000000
           H         -1.028870403440    -0.942419836191    -0.708400967196     1.007825032070
           H         -1.360574403440    -1.828954836191     0.749928032804     1.007825032070
           C          1.385785596560    -1.722269836191     0.402325032804    12.000000000000
           H          0.753357596560     0.341273163809     0.487700032804     1.007825032070
           H          0.429828596560    -0.561937836191     1.941720032804     1.007825032070
           C          2.818048596560    -1.567085836191     0.926359032804    12.000000000000
           H          1.404027596560    -1.760397836191    -0.685749967196     1.007825032070
           H          1.000015596560    -2.684463836191     0.732593032804     1.007825032070
           C          3.562047596560    -0.343021836191     0.389933032804    12.000000000000
           H          3.379168596560    -2.459427836191     0.660242032804     1.007825032070
           H          2.801994596560    -1.532648836191     2.013777032804     1.007825032070
           H          3.579774596560    -0.342463836191    -0.696783967196     1.007825032070
           H          3.103813596560     0.585447163809     0.713879032804     1.007825032070
           H          4.591058596560    -0.335583836191     0.736453032804     1.007825032070

  Charge       = 0
  Multiplicity = 1
  Basis Set: 6-31G*
  Basis Set:

    Orbital Energies (a.u.)
    -----------------------

    Doubly Occupied:

       1A    -20.562671     2A    -11.326541     3A    -11.235002
       4A    -11.234311     5A    -11.223507     6A    -11.217733
       7A    -11.215906     8A    -11.215065     9A    -11.207485
      10A     -1.402663    11A     -1.104757    12A     -1.067339
      13A     -1.009742    14A     -0.942507    15A     -0.876915
      16A     -0.821506    17A     -0.786882    18A     -0.775399
      19A     -0.665082    20A     -0.656214    21A     -0.642582
      22A     -0.613066    23A     -0.612096    24A     -0.593646
      25A     -0.568014    26A     -0.546951    27A     -0.541563
      28A     -0.517569    29A     -0.517166    30A     -0.499247
      31A     -0.481653    32A     -0.476416    33A     -0.462335
      34A     -0.454209    35A     -0.442092    36A     -0.409829

  @DF-RHF Final Energy:  -387.12005944674507

   => Energetics <=

    Nuclear Repulsion Energy =            450.4853015293800240
    One-Electron Energy =               -1417.3594975087573857
    Two-Electron Energy =                 579.7541365326308096
    DFT Exchange-Correlation Energy =       0.0000000000000000
    Empirical Dispersion Energy =           0.0000000000000000
    PCM Polarization Energy =               0.0000000000000000
    EFP Energy =                            0.0000000000000000
    Total Energy =                       -387.1200594467466090

  Mulliken Charges: (a.u.)
   Center  Symbol    Alpha    Beta     Spin     Total
       1     H     0.43230  0.43230  0.00000  0.13540
       2     C     2.83053  2.83053  0.00000  0.33894
       3     C     3.21060  3.21060  0.00000 -0.42120
       4     O     4.23824  4.23824  0.00000 -0.47649
       5     C     3.16834  3.16834  0.00000 -0.33668
       6     H     0.39821  0.39821  0.00000  0.20358
       7     H     0.40628  0.40628  0.00000  0.18743
       8     C     3.15778  3.15778  0.00000 -0.31555
       9     H     0.41282  0.41282  0.00000  0.17436
      10     H     0.41733  0.41733  0.00000  0.16534
      11     C     3.15624  3.15624  0.00000 -0.31249
      12     H     0.41783  0.41783  0.00000  0.16433
      13     H     0.41778  0.41778  0.00000  0.16444
      14     C     3.15272  3.15272  0.00000 -0.30545
      15     H     0.41683  0.41683  0.00000  0.16633
      16     H     0.42403  0.42403  0.00000  0.15194
      17     C     3.15271  3.15271  0.00000 -0.30542
      18     H     0.42102  0.42102  0.00000  0.15797
      19     H     0.42282  0.42282  0.00000  0.15436
      20     C     3.24127  3.24127  0.00000 -0.48254
      21     H     0.42054  0.42054  0.00000  0.15892
      22     H     0.42394  0.42394  0.00000  0.15211
      23     H     0.42007  0.42007  0.00000  0.15986
      24     H     0.42048  0.42048  0.00000  0.15904
      25     H     0.41927  0.41927  0.00000  0.16146

   Total alpha = 36.00000, Total beta = 36.00000, Total charge = -0.00000
