  ==> Input File <==

--------------------------------------------------------------------------
set {
	reference rhf
	basis cc-pvtz
}

set_num_threads( 4 )
memory 2 gb

molecule MOL {
0 1

H	 -2.698799	 -0.000846	 0.036018
C	 -1.694291	 -0.000483	 0.434279
O	 -0.828718	 -0.000608	 -0.655022
H	 -1.576855	 0.881100	 1.056504
H	 -1.576401	 -0.881658	 1.057001
C	 0.075964	 -1.067169	 -0.802924
C	 1.092229	 -1.134684	 0.331500
C	 -0.624454	 -2.401632	 -1.032866
H	 0.610400	 -0.814326	 -1.710154
H	 1.542442	 -0.162876	 0.492610
H	 1.878715	 -1.836414	 0.078990
H	 0.646268	 -1.465531	 1.262222
H	 -1.364693	 -2.308478	 -1.817986
H	 0.099633	 -3.149471	 -1.334872
H	 -1.116047	 -2.766029	 -0.138387

	symmetry c1
}
set optking {
	frozen_dihedral = ("
		6 3 2 1
	")
}

ee = optimize('scf')
oeprop('DIPOLE', 'QUADRUPOLE', 'MULLIKEN_CHARGES')
f=open( 'psi4out.xyz', 'w' )
f.write( "15  " )
f.write( str(ee) + "\n" )
f.write( MOL.save_string_xyz() )
f.close()
--------------------------------------------------------------------------

    Molecular point group: c1
  Charge       = 0
  Multiplicity = 1
  Basis Set: CC-PVTZ
  Basis Set:
  @DF-RHF Final Energy:  -232.22310704135850
    Total Energy =                       -232.2231070413583893
    Molecular point group: c1
  Basis Set: CC-PVTZ
  Basis Set:
  Basis Set: CC-PVTZ
  Basis Set:
  @DF-RHF Final Energy:  -232.22369203840961
    Total Energy =                       -232.2236920384095242
  Basis Set: CC-PVTZ
  Basis Set:
  Basis Set: CC-PVTZ
  Basis Set:
  @DF-RHF Final Energy:  -232.22380200308959
    Total Energy =                       -232.2238020030896450
  Basis Set: CC-PVTZ
  Basis Set:
  Basis Set: CC-PVTZ
  Basis Set:
  @DF-RHF Final Energy:  -232.22378825989338
    Total Energy =                       -232.2237882598934675
  Basis Set: CC-PVTZ
  Basis Set:
  Basis Set: CC-PVTZ
  Basis Set:
  @DF-RHF Final Energy:  -232.22383151207663
    Total Energy =                       -232.2238315120765151
  Basis Set: CC-PVTZ
  Basis Set:
  Charge       = 0
  Multiplicity = 1
  Basis Set: CC-PVTZ
  Basis Set:

    Orbital Energies (a.u.)
    -----------------------

    Doubly Occupied:

       1A    -20.539309     2A    -11.273283     3A    -11.258911
       4A    -11.208589     5A    -11.208570     6A     -1.371035
       7A     -1.051000     8A     -0.940325     9A     -0.931789
      10A     -0.781815    11A     -0.677206    12A     -0.640249
      13A     -0.633635    14A     -0.570223    15A     -0.563650
      16A     -0.552259    17A     -0.538260    18A     -0.501436
      19A     -0.498600    20A     -0.443378    21A     -0.405827

  @DF-RHF Final Energy:  -232.22383236592805

   => Energetics <=

    Nuclear Repulsion Energy =            198.8687262623246284
    One-Electron Energy =                -709.0064225329506371
    Two-Electron Energy =                 277.9138639046979051
    DFT Exchange-Correlation Energy =       0.0000000000000000
    Empirical Dispersion Energy =           0.0000000000000000
    PCM Polarization Energy =               0.0000000000000000
    EFP Energy =                            0.0000000000000000
    Total Energy =                       -232.2238323659281036
    Molecular point group: c1
  Basis Set: CC-PVTZ
  Basis Set:

  -Total Gradient:
     Atom            X                  Y                   Z
    ------   -----------------  -----------------  -----------------
       1       -0.000020730658     0.000063547976     0.000024103169
       2       -0.000027589817    -0.000002707741    -0.000066049834
       3       -0.000049765422    -0.000117024223     0.000054204258
       4        0.000017390788    -0.000009095773     0.000010021122
       5        0.000070567790    -0.000037503473    -0.000016108463
       6        0.000101532155     0.000092604459    -0.000086232558
       7       -0.000058594516    -0.000006239437     0.000018287336
       8       -0.000017671834     0.000022223359     0.000055596417
       9        0.000022325951    -0.000013041953    -0.000017251736
      10       -0.000007476742    -0.000001204274    -0.000009490135
      11       -0.000008854476    -0.000000368844    -0.000008492231
      12       -0.000019445893    -0.000004293630     0.000026477077
      13        0.000003040921     0.000004389215    -0.000001177261
      14        0.000002942927     0.000022524552     0.000004614386
      15       -0.000007671173    -0.000013810211     0.000011498452

  **** Optimization is complete! (in 6 steps) ****
    Final optimized geometry and variables:
    Molecular point group: c1

    Geometry (in Angstrom), charge = 0, multiplicity = 1:

    H           -2.316511944653     0.908245347628     0.411796317382
    C           -1.292922201128     0.907910252994     0.768698661209
    O           -0.417485844108     0.910001525098    -0.318477250405
    H           -1.136370234543     1.801880858238     1.361325591739
    H           -1.164266701250     0.050488645953     1.416534282366
    C            0.493248747115    -0.149147573457    -0.475475877120
    C            1.509653908632    -0.213216564302     0.658841570718
    C           -0.204125222089    -1.482764159267    -0.718335476839
    H            1.026865168933     0.112583443974    -1.380703724806
    H            1.978345681125     0.753521192994     0.795361158247
    H            2.282234999450    -0.937038644817     0.425770273671
    H            1.056872612518    -0.508595727595     1.598383134623
    H           -0.914984435768    -1.390243102813    -1.530147267946
    H            0.523727406023    -2.239851075181    -0.986912659803
    H           -0.733240836318    -1.834080823978     0.160088263318

  Mulliken Charges: (a.u.)
   Center  Symbol    Alpha    Beta     Spin     Total
       1     H     0.45383  0.45383  0.00000  0.09234
       2     C     3.03810  3.03810  0.00000 -0.07619
       3     O     4.18792  4.18792  0.00000 -0.37584
       4     H     0.45346  0.45346  0.00000  0.09308
       5     H     0.46937  0.46937  0.00000  0.06126
       6     C     2.93953  2.93953  0.00000  0.12094
       7     C     3.15481  3.15481  0.00000 -0.30962
       8     C     3.15477  3.15477  0.00000 -0.30954
       9     H     0.44596  0.44596  0.00000  0.10808
      10     H     0.44494  0.44494  0.00000  0.11013
      11     H     0.45066  0.45066  0.00000  0.09868
      12     H     0.45552  0.45552  0.00000  0.08896
      13     H     0.44495  0.44495  0.00000  0.11010
      14     H     0.45064  0.45064  0.00000  0.09872
      15     H     0.45555  0.45555  0.00000  0.08891

   Total alpha = 21.00000, Total beta = 21.00000, Total charge = -0.00000
