  ==> Input File <==

--------------------------------------------------------------------------
set {
	reference rhf
	basis 6-31G*
}

set_num_threads( 1 )
memory 2 gb

molecule MOL {
0 1

H	 3.265716	 0.173649	 -0.219235
N	 2.434251	 -0.367735	 -0.081097
C	 1.267428	 0.496480	 0.024474
H	 2.564453	 -0.886994	 0.766448
C	 -0.016086	 -0.325158	 -0.029487
H	 1.288818	 1.183521	 -0.816092
H	 1.267576	 1.109062	 0.929528
C	 -1.282277	 0.529072	 0.046735
H	 -0.012495	 -0.908639	 -0.945788
H	 -0.015903	 -1.041248	 0.791956
C	 -2.563920	 -0.301775	 -0.006060
H	 -1.284084	 1.244622	 -0.773004
H	 -1.271387	 1.115393	 0.963286
H	 -2.621848	 -0.873522	 -0.927727
H	 -3.445135	 0.329952	 0.047812
H	 -2.609542	 -1.004582	 0.821105

	symmetry c1
}
set optking {
	frozen_dihedral = ("
		6 3 5 9,
		12 8 5 9
	")
}

ee = energy('scf')
oeprop('DIPOLE', 'QUADRUPOLE', 'MULLIKEN_CHARGES')
f=open( 'psi4out.xyz', 'w' )
f.write( "16  " )
f.write( str(ee) + "\n" )
f.write( MOL.save_string_xyz() )
f.close()
--------------------------------------------------------------------------

    Molecular point group: c1

    Geometry (in Angstrom), charge = 0, multiplicity = 1:

       Center              X                  Y                   Z               Mass
    ------------   -----------------  -----------------  -----------------  -----------------
           H          3.264998819954     0.172572587219    -0.218354162540     1.007825032070
           N          2.433533819954    -0.368811412781    -0.080216162540    14.003074004780
           C          1.266710819954     0.495403587219     0.025354837460    12.000000000000
           H          2.563735819954    -0.888070412781     0.767328837460     1.007825032070
           C         -0.016803180046    -0.326234412781    -0.028606162540    12.000000000000
           H          1.288100819954     1.182444587219    -0.815211162540     1.007825032070
           H          1.266858819954     1.107985587219     0.930408837460     1.007825032070
           C         -1.282994180046     0.527995587219     0.047615837460    12.000000000000
           H         -0.013212180046    -0.909715412781    -0.944907162540     1.007825032070
           H         -0.016620180046    -1.042324412781     0.792836837460     1.007825032070
           C         -2.564637180046    -0.302851412781    -0.005179162540    12.000000000000
           H         -1.284801180046     1.243545587219    -0.772123162540     1.007825032070
           H         -1.272104180046     1.114316587219     0.964166837460     1.007825032070
           H         -2.622565180046    -0.874598412781    -0.926846162540     1.007825032070
           H         -3.445852180046     0.328875587219     0.048692837460     1.007825032070
           H         -2.610259180046    -1.005658412781     0.821985837460     1.007825032070

  Charge       = 0
  Multiplicity = 1
  Basis Set: 6-31G*
  Basis Set:

    Orbital Energies (a.u.)
    -----------------------

    Doubly Occupied:

       1A    -15.532822     2A    -11.240026     3A    -11.214341
       4A    -11.208299     5A    -11.207409     6A     -1.176733
       7A     -1.058925     8A     -0.958311     9A     -0.843258
      10A     -0.790797    11A     -0.666743    12A     -0.634362
      13A     -0.606465    14A     -0.575458    15A     -0.562125
      16A     -0.526271    17A     -0.498122    18A     -0.469880
      19A     -0.464593    20A     -0.461502    21A     -0.381131

  @DF-RHF Final Energy:  -212.31689946541957

   => Energetics <=

    Nuclear Repulsion Energy =            186.2177433211708717
    One-Electron Energy =                -654.9141532444517679
    Two-Electron Energy =                 256.3795104578613859
    DFT Exchange-Correlation Energy =       0.0000000000000000
    Empirical Dispersion Energy =           0.0000000000000000
    PCM Polarization Energy =               0.0000000000000000
    EFP Energy =                            0.0000000000000000
    Total Energy =                       -212.3168994654195103

  Mulliken Charges: (a.u.)
   Center  Symbol    Alpha    Beta     Spin     Total
       1     H     0.33226  0.33226  0.00000  0.33548
       2     N     3.92163  3.92163  0.00000 -0.84326
       3     C     3.06238  3.06238  0.00000 -0.12477
       4     H     0.33499  0.33499  0.00000  0.33002
       5     C     3.14779  3.14779  0.00000 -0.29558
       6     H     0.42132  0.42132  0.00000  0.15736
       7     H     0.43424  0.43424  0.00000  0.13152
       8     C     3.15592  3.15592  0.00000 -0.31183
       9     H     0.41380  0.41380  0.00000  0.17239
      10     H     0.42769  0.42769  0.00000  0.14462
      11     C     3.23855  3.23855  0.00000 -0.47710
      12     H     0.42296  0.42296  0.00000  0.15407
      13     H     0.42408  0.42408  0.00000  0.15185
      14     H     0.42061  0.42061  0.00000  0.15878
      15     H     0.41982  0.41982  0.00000  0.16036
      16     H     0.42196  0.42196  0.00000  0.15608

   Total alpha = 21.00000, Total beta = 21.00000, Total charge =  0.00000
