  ==> Input File <==

--------------------------------------------------------------------------
set {
	reference rhf
	basis cc-pvtz
}

set_num_threads( 4 )
memory 2 gb

molecule MOL {
0 1

H	 -1.831514	 -1.621998	 -0.018397
C	 -1.471162	 -1.186190	 -0.944605
O	 -0.775228	 0.000056	 -0.739966
H	 -2.327710	 -0.943083	 -1.557285
H	 -0.880357	 -1.929449	 -1.470102
C	 0.406133	 -0.000384	 0.036994
C	 1.526415	 -0.003194	 -0.997339
C	 0.498772	 1.259027	 0.900673
C	 0.495883	 -1.257378	 0.904465
H	 1.452279	 0.872071	 -1.630204
H	 1.451276	 -0.881020	 -1.626529
H	 2.497919	 -0.002741	 -0.517601
H	 0.368981	 2.144239	 0.289753
H	 1.470064	 1.313479	 1.377660
H	 -0.248448	 1.271586	 1.684297
H	 0.363971	 -2.144195	 0.296316
H	 1.467114	 -1.312636	 1.381470
H	 -0.251246	 -1.265768	 1.688235

	symmetry c1
}
set optking {
	frozen_dihedral = ("
		2 3 6 7
	")
}

ee = optimize('scf')
oeprop('DIPOLE', 'QUADRUPOLE', 'MULLIKEN_CHARGES')
f=open( 'psi4out.xyz', 'w' )
f.write( "18  " )
f.write( str(ee) + "\n" )
f.write( MOL.save_string_xyz() )
f.close()
--------------------------------------------------------------------------

    Molecular point group: c1
  Charge       = 0
  Multiplicity = 1
  Basis Set: CC-PVTZ
  Basis Set:
  @DF-RHF Final Energy:  -271.26928402068984
    Total Energy =                       -271.2692840206894971
    Molecular point group: c1
  Basis Set: CC-PVTZ
  Basis Set:
  Basis Set: CC-PVTZ
  Basis Set:
  @DF-RHF Final Energy:  -271.27171727882438
    Total Energy =                       -271.2717172788243261
  Basis Set: CC-PVTZ
  Basis Set:
  Basis Set: CC-PVTZ
  Basis Set:
  @DF-RHF Final Energy:  -271.27375721554569
    Total Energy =                       -271.2737572155455155
  Basis Set: CC-PVTZ
  Basis Set:
  Basis Set: CC-PVTZ
  Basis Set:
  @DF-RHF Final Energy:  -271.27383891508020
    Total Energy =                       -271.2738389150804892
  Basis Set: CC-PVTZ
  Basis Set:
  Basis Set: CC-PVTZ
  Basis Set:
  @DF-RHF Final Energy:  -271.27394700305439
    Total Energy =                       -271.2739470030546727
  Basis Set: CC-PVTZ
  Basis Set:
  Basis Set: CC-PVTZ
  Basis Set:
  @DF-RHF Final Energy:  -271.27396036052630
    Total Energy =                       -271.2739603605263596
  Basis Set: CC-PVTZ
  Basis Set:
  Charge       = 0
  Multiplicity = 1
  Basis Set: CC-PVTZ
  Basis Set:

    Orbital Energies (a.u.)
    -----------------------

    Doubly Occupied:

       1A    -20.538415     2A    -11.280429     3A    -11.259292
       4A    -11.211407     5A    -11.203280     6A    -11.201548
       7A     -1.370973     8A     -1.075294     9A     -0.951275
      10A     -0.936008    11A     -0.912441    12A     -0.752638
      13A     -0.657581    14A     -0.647888    15A     -0.639145
      16A     -0.586121    17A     -0.576193    18A     -0.551022
      19A     -0.539366    20A     -0.526791    21A     -0.515296
      22A     -0.491008    23A     -0.485140    24A     -0.443560
      25A     -0.400858

  @DF-RHF Final Energy:  -271.27396011740439

   => Energetics <=

    Nuclear Repulsion Energy =            272.2822259608921058
    One-Electron Energy =                -907.6064268424834154
    Two-Electron Energy =                 364.0502407641870377
    DFT Exchange-Correlation Energy =       0.0000000000000000
    Empirical Dispersion Energy =           0.0000000000000000
    PCM Polarization Energy =               0.0000000000000000
    EFP Energy =                            0.0000000000000000
    Total Energy =                       -271.2739601174042718
    Molecular point group: c1
  Basis Set: CC-PVTZ
  Basis Set:

  -Total Gradient:
     Atom            X                  Y                   Z
    ------   -----------------  -----------------  -----------------
       1        0.000001906385     0.000008942706     0.000019832703
       2       -0.001651189181     0.000451438832     0.002848461604
       3        0.002471442465     0.000140985233    -0.004250562718
       4        0.000000327326     0.000015613547    -0.000007501697
       5       -0.000010602940     0.000024483257    -0.000000668852
       6       -0.000869389365    -0.003392412453     0.001224106168
       7        0.000092528032     0.002745783855     0.000160099362
       8       -0.000050925403    -0.000010168539    -0.000022122503
       9        0.000016029915    -0.000015282564     0.000005357875
      10        0.000000236892     0.000019813750     0.000013553684
      11       -0.000012224211     0.000011477067    -0.000012105522
      12        0.000003880673    -0.000017518269    -0.000005412292
      13        0.000031206745    -0.000011258523    -0.000020346837
      14       -0.000030187021    -0.000041601803     0.000014730016
      15       -0.000017688369     0.000044792799     0.000013535576
      16       -0.000002805543    -0.000004355452     0.000010408577
      17        0.000007945514     0.000011164019    -0.000011569212
      18        0.000019508086     0.000018102538     0.000020204071

  **** Optimization is complete! (in 7 steps) ****
    Final optimized geometry and variables:
    Molecular point group: c1

    Geometry (in Angstrom), charge = 0, multiplicity = 1:

    H           -2.014882839538    -1.367581447814     0.119555353214
    C           -1.640144245216    -0.911685456489    -0.790344598507
    O           -0.890755887916     0.232445007041    -0.544682969580
    H           -2.486514722731    -0.604672600206    -1.388483073458
    H           -1.086931425422    -1.661250815070    -1.350523146292
    C            0.336731981606     0.168362847017     0.163978121186
    C            1.469077079569     0.202459505727    -0.862298036517
    C            0.368124663829     1.438134502420     1.010851622932
    C            0.461160269341    -1.055561429765     1.070336812913
    H            1.375717018927     1.083479799890    -1.483917290107
    H            1.432979473464    -0.669183510460    -1.506622732278
    H            2.438718068402     0.221493920048    -0.377580623271
    H            0.236177336626     2.307290237748     0.379333253690
    H            1.311214896176     1.533589947450     1.536827150979
    H           -0.433788236474     1.426708043684     1.738916824452
    H            0.463977206036    -1.982769255932     0.511754850586
    H            1.395661021754    -0.998696185927     1.614323511694
    H           -0.342081662123    -1.092746793806     1.795849084380

  Mulliken Charges: (a.u.)
   Center  Symbol    Alpha    Beta     Spin     Total
       1     H     0.46755  0.46755  0.00000  0.06490
       2     C     3.04231  3.04231  0.00000 -0.08462
       3     O     4.19690  4.19690  0.00000 -0.39381
       4     H     0.44270  0.44270  0.00000  0.11459
       5     H     0.47023  0.47023  0.00000  0.05955
       6     C     2.87198  2.87198  0.00000  0.25604
       7     C     3.14625  3.14625  0.00000 -0.29251
       8     C     3.14062  3.14062  0.00000 -0.28124
       9     C     3.17547  3.17547  0.00000 -0.35093
      10     H     0.44810  0.44810  0.00000  0.10380
      11     H     0.45109  0.45109  0.00000  0.09782
      12     H     0.45525  0.45525  0.00000  0.08950
      13     H     0.44768  0.44768  0.00000  0.10464
      14     H     0.45930  0.45930  0.00000  0.08140
      15     H     0.45197  0.45197  0.00000  0.09606
      16     H     0.44434  0.44434  0.00000  0.11131
      17     H     0.44318  0.44318  0.00000  0.11365
      18     H     0.44508  0.44508  0.00000  0.10983

   Total alpha = 25.00000, Total beta = 25.00000, Total charge =  0.00000
