  ==> Input File <==

--------------------------------------------------------------------------
set {
	reference rhf
	basis 6-31G*
}

set_num_threads( 4 )
memory 2 gb

molecule MOL {
0 1

O	 -0.988096	 -1.408613	 0.050699
C	 -0.676749	 -0.249230	 -0.009274
C	 -1.746085	 0.827156	 -0.009539
N	 0.623947	 0.147590	 -0.102813
H	 -1.701500	 1.431508	 -0.908902
H	 -2.703425	 0.330732	 0.036390
H	 -1.647323	 1.487769	 0.845106
C	 1.093041	 0.699912	 -1.358507
C	 1.660426	 -0.248661	 0.825056
H	 1.780879	 1.514518	 -1.160233
H	 0.254778	 1.069567	 -1.922963
H	 1.612324	 -0.050458	 -1.950716
H	 2.393269	 0.546095	 0.898161
H	 1.264482	 -0.419001	 1.813564
H	 2.175141	 -1.150416	 0.498378

	symmetry c1
}
set optking {
	frozen_dihedral = ("
		8 4 2 3
	")
}

ee = optimize('scf')
oeprop('DIPOLE', 'QUADRUPOLE', 'MULLIKEN_CHARGES')
f=open( 'psi4out.xyz', 'w' )
f.write( "15  " )
f.write( str(ee) + "\n" )
f.write( MOL.save_string_xyz() )
f.close()
--------------------------------------------------------------------------

    Molecular point group: c1
  Charge       = 0
  Multiplicity = 1
  Basis Set: 6-31G*
  Basis Set:
  @DF-RHF Final Energy:  -286.00230124594918
    Total Energy =                       -286.0023012459490701
    Molecular point group: c1
  Basis Set: 6-31G*
  Basis Set:
  Basis Set: 6-31G*
  Basis Set:
  @DF-RHF Final Energy:  -286.01126035782818
    Total Energy =                       -286.0112603578280641
  Basis Set: 6-31G*
  Basis Set:
  Basis Set: 6-31G*
  Basis Set:
  @DF-RHF Final Energy:  -286.01773964925781
    Total Energy =                       -286.0177396492578055
  Basis Set: 6-31G*
  Basis Set:
  Basis Set: 6-31G*
  Basis Set:
  @DF-RHF Final Energy:  -286.01906189812013
    Total Energy =                       -286.0190618981204125
  Basis Set: 6-31G*
  Basis Set:
  @DF-RHF Final Energy:  -286.01958448400222
    Total Energy =                       -286.0195844840026211
  @DF-RHF Final Energy:  -286.01971684337286
    Total Energy =                       -286.0197168433729189
  @DF-RHF Final Energy:  -286.01977692455853
    Total Energy =                       -286.0197769245584141
  @DF-RHF Final Energy:  -286.01985013977065
    Total Energy =                       -286.0198501397707105
  Basis Set: 6-31G*
  Basis Set:
  @DF-RHF Final Energy:  -286.01993773012862
    Total Energy =                       -286.0199377301286177
  Basis Set: 6-31G*
  Basis Set:
  Basis Set: 6-31G*
  Basis Set:
  @DF-RHF Final Energy:  -286.01996338722125
    Total Energy =                       -286.0199633872210825
  Basis Set: 6-31G*
  Basis Set:
  Basis Set: 6-31G*
  Basis Set:
  @DF-RHF Final Energy:  -286.01996957021413
    Total Energy =                       -286.0199695702140161
  Basis Set: 6-31G*
  Basis Set:
  Charge       = 0
  Multiplicity = 1
  Basis Set: 6-31G*
  Basis Set:

    Orbital Energies (a.u.)
    -----------------------

    Doubly Occupied:

       1A    -20.537313     2A    -15.575319     3A    -11.346104
       4A    -11.263376     5A    -11.244363     6A    -11.228433
       7A     -1.401119     8A     -1.239084     9A     -1.012366
      10A     -0.966669    11A     -0.907636    12A     -0.736599
      13A     -0.680483    14A     -0.657175    15A     -0.647726
      16A     -0.601232    17A     -0.580572    18A     -0.567946
      19A     -0.558505    20A     -0.538881    21A     -0.524006
      22A     -0.494684    23A     -0.422524    24A     -0.379441

  @DF-RHF Final Energy:  -286.01996999428178

   => Energetics <=

    Nuclear Repulsion Energy =            252.6031593891710259
    One-Electron Energy =                -889.0231482461604173
    Two-Electron Energy =                 350.4000188627078956
    DFT Exchange-Correlation Energy =       0.0000000000000000
    Empirical Dispersion Energy =           0.0000000000000000
    PCM Polarization Energy =               0.0000000000000000
    EFP Energy =                            0.0000000000000000
    Total Energy =                       -286.0199699942815528
    Molecular point group: c1
  Basis Set: 6-31G*
  Basis Set:

  -Total Gradient:
     Atom            X                  Y                   Z
    ------   -----------------  -----------------  -----------------
       1        0.000021831789    -0.000011412883    -0.000007659396
       2        0.001471895168    -0.005118347287    -0.008935574371
       3       -0.000198942869     0.001704407174     0.005912366096
       4       -0.003905390883     0.009218754541     0.003609168318
       5        0.000011554510    -0.000009806232    -0.000011605477
       6        0.000002074881    -0.000006393832    -0.000006711544
       7       -0.000003324447     0.000005033065    -0.000008067222
       8        0.002615315327    -0.005769026127    -0.000547001396
       9        0.000027318062    -0.000011382256    -0.000014088731
      10       -0.000000483780     0.000002764291     0.000001692787
      11       -0.000011839554    -0.000000341238     0.000007130189
      12       -0.000005835122    -0.000007626412     0.000002274147
      13       -0.000012186030    -0.000000976489    -0.000005961218
      14       -0.000011146018     0.000005386682     0.000001335939
      15       -0.000000841028    -0.000001032997     0.000002701881

  **** Optimization is complete! (in 12 steps) ****
    Final optimized geometry and variables:
    Molecular point group: c1

    Geometry (in Angstrom), charge = 0, multiplicity = 1:

    O           -0.832532184557    -1.262423628439     0.627016570045
    C           -0.662300882854    -0.185381386286     0.139588757358
    C           -1.839454344942     0.719248774680    -0.158175226940
    N            0.602818055564     0.391090150890     0.016923771963
    H           -1.617399016413     1.524747445712    -0.843500765116
    H           -2.671561299306     0.134641394351    -0.526505651491
    H           -2.128301491564     1.160811576771     0.790134106139
    C            1.032076044058     0.705685654978    -1.340544183526
    C            1.642577803690    -0.325158096104     0.743162750697
    H            1.901421708368     1.349428158509    -1.298364084238
    H            0.257760496802     1.230054494247    -1.883116040323
    H            1.294999176592    -0.191885089464    -1.897846197009
    H            2.534925626265     0.289022046044     0.752930499344
    H            1.326288318908    -0.497087116481     1.760813045254
    H            1.880316943496    -1.285641337430     0.293326579265

  Mulliken Charges: (a.u.)
   Center  Symbol    Alpha    Beta     Spin     Total
       1     O     4.27736  4.27736  0.00000 -0.55472
       2     C     2.65532  2.65532  0.00000  0.68936
       3     C     3.27586  3.27586  0.00000 -0.55172
       4     N     3.81012  3.81012  0.00000 -0.62025
       5     H     0.41221  0.41221  0.00000  0.17557
       6     H     0.40050  0.40050  0.00000  0.19900
       7     H     0.39695  0.39695  0.00000  0.20610
       8     C     3.15360  3.15360  0.00000 -0.30719
       9     C     3.14461  3.14461  0.00000 -0.28922
      10     H     0.40828  0.40828  0.00000  0.18343
      11     H     0.41079  0.41079  0.00000  0.17842
      12     H     0.41715  0.41715  0.00000  0.16571
      13     H     0.41759  0.41759  0.00000  0.16481
      14     H     0.40241  0.40241  0.00000  0.19519
      15     H     0.41725  0.41725  0.00000  0.16550

   Total alpha = 24.00000, Total beta = 24.00000, Total charge = -0.00000
