                              Psi4 1.0.54 Driver

  ==> Input File <==

--------------------------------------------------------------------------
set {
	reference rhf
	basis cc-pvtz
}

set_num_threads( 4 )
memory 2 gb

molecule MOL {
0 1

H	 -2.544405	 -0.742043	 0.288213
O	 -2.263432	 -0.069105	 0.880758
C	 -1.142965	 0.593176	 0.364931
C	 0.103294	 -0.264164	 0.462924
H	 -1.297127	 0.894271	 -0.666429
H	 -1.009204	 1.490703	 0.951646
O	 1.172093	 0.457955	 -0.054438
H	 -0.037920	 -1.191241	 -0.095183
H	 0.278938	 -0.532694	 1.502450
C	 2.395478	 -0.199028	 -0.000366
H	 2.505946	 -0.901710	 -0.823354
H	 3.174616	 0.545641	 -0.071768
H	 2.513730	 -0.742241	 0.934223

	symmetry c1
}
set optking {
	frozen_dihedral = ("
		4 7 10 13
	")
}

ee,wfn = optimize('scf', return_wfn=True)
oeprop( wfn, 'DIPOLE', 'QUADRUPOLE', 'MULLIKEN_CHARGES')
f=open( 'psi4out.xyz', 'w' )
f.write( "13  " )
f.write( str(ee) + "\n" )
f.write( MOL.save_string_xyz() )
f.close()
--------------------------------------------------------------------------

    Molecular point group: c1
  Charge       = 0
  Multiplicity = 1
  Basis Set: CC-PVTZ
  Basis Set:
  @DF-RHF Final Energy:  -268.06133598075695
    Total Energy =                       -268.0613359807568941
    Molecular point group: c1
  Basis Set: CC-PVTZ
  Basis Set:
  Basis Set: CC-PVTZ
  Basis Set:
  @DF-RHF Final Energy:  -268.06137635965911
    Total Energy =                       -268.0613763596588797
  Basis Set: CC-PVTZ
  Basis Set:
  Charge       = 0
  Multiplicity = 1
  Basis Set: CC-PVTZ
  Basis Set:

    Orbital Energies (a.u.)
    -----------------------

    Doubly Occupied:

       1A    -20.555198     2A    -20.552816     3A    -11.269502
       4A    -11.267728     5A    -11.267378     6A     -1.390960
       7A     -1.369095     8A     -1.019709     9A     -0.914094
      10A     -0.842869    11A     -0.712049    12A     -0.675298
      13A     -0.662586    14A     -0.639846    15A     -0.596791
      16A     -0.572402    17A     -0.546645    18A     -0.492522
      19A     -0.483001    20A     -0.441608    21A     -0.423052

  @DF-RHF Final Energy:  -268.06138746876945

   => Energetics <=

    Nuclear Repulsion Energy =            190.4254072141973211
    One-Electron Energy =                -743.5832862277309232
    Two-Electron Energy =                 285.0964915447641488
    DFT Exchange-Correlation Energy =       0.0000000000000000
    Empirical Dispersion Energy =           0.0000000000000000
    PCM Polarization Energy =               0.0000000000000000
    EFP Energy =                            0.0000000000000000
    Total Energy =                       -268.0613874687694533
    Molecular point group: c1
  Basis Set: CC-PVTZ
  Basis Set:

  -Total Gradient:
     Atom            X                  Y                   Z
    ------   -----------------  -----------------  -----------------
       1       -0.000009573149    -0.000013067181    -0.000000067749
       2        0.000076969602    -0.000016300431    -0.000036279353
       3        0.000036688716     0.000059344465    -0.000015518710
       4        0.000260968311     0.000658800934     0.001874180311
       5       -0.000029994102     0.000005916511    -0.000006151915
       6        0.000013014836     0.000007429394    -0.000005343392
       7       -0.000821312303    -0.001568171417    -0.002858553932
       8       -0.000004115266     0.000013587254    -0.000008048719
       9        0.000009401377     0.000006858583    -0.000009070463
      10        0.001373969245     0.002743460447     0.002082320564
      11        0.000013800623     0.000035786021     0.000049278228
      12        0.000039213251     0.000036093789    -0.000000005972
      13       -0.000959031144    -0.001969738372    -0.001066738899

  **** Optimization is complete! (in 3 steps) ****
    Final optimized geometry and variables:
    Molecular point group: c1

    Geometry (in Angstrom), charge = 0, multiplicity = 1:

    H           -2.575740889226    -0.835218234731    -0.038667644848
    O           -2.296236785060    -0.158227338482     0.549976142147
    C           -1.176604028033     0.502766477168     0.030703770731
    C            0.070253977193    -0.352941112668     0.133693987830
    H           -1.331430933448     0.798623339471    -1.002052972483
    H           -1.043218981129     1.403284321530     0.612956986607
    O            1.139142119230     0.372336410233    -0.379327078168
    H           -0.070353327362    -1.280881356238    -0.423678637378
    H            0.243994976940    -0.619452588024     1.173546031104
    C            2.368577855259    -0.277417332981    -0.336037864374
    H            2.467385812602    -0.983208343548    -1.157796306889
    H            3.147356646384     0.466416489581    -0.420622293964
    H            2.496808497862    -0.828414261733     0.591679690693

  Mulliken Charges: (a.u.)
   Center  Symbol    Alpha    Beta     Spin     Total
       1     H     0.39416  0.39416  0.00000  0.21168
       2     O     4.20209  4.20209  0.00000 -0.40419
       3     C     2.97388  2.97388  0.00000  0.05224
       4     C     2.96536  2.96536  0.00000  0.06928
       5     H     0.46657  0.46657  0.00000  0.06686
       6     H     0.45283  0.45283  0.00000  0.09434
       7     O     4.17676  4.17676  0.00000 -0.35351
       8     H     0.48310  0.48310  0.00000  0.03381
       9     H     0.46816  0.46816  0.00000  0.06367
      10     C     3.03090  3.03090  0.00000 -0.06180
      11     H     0.46693  0.46693  0.00000  0.06614
      12     H     0.44717  0.44717  0.00000  0.10566
      13     H     0.47209  0.47209  0.00000  0.05581

   Total alpha = 21.00000, Total beta = 21.00000, Total charge =  0.00000

*** Psi4 exiting successfully. Buy a developer a beer!
