                              Psi4 1.0.54 Driver

  ==> Input File <==

--------------------------------------------------------------------------
set {
	reference rhf
	basis cc-pvtz
}

set_num_threads( 4 )
memory 2 gb

molecule MOL {
0 1

H	 -2.787962	 0.514419	 -0.502879
O	 -2.313989	 -0.142475	 -0.025864
C	 -0.943808	 -0.065018	 -0.330000
H	 -0.812293	 -0.225641	 -1.398673
C	 -0.231030	 -1.182113	 0.407592
C	 -0.353797	 1.300461	 0.050970
H	 -0.312800	 -0.992012	 1.473041
H	 -0.738841	 -2.119564	 0.220514
C	 1.246176	 -1.268044	 -0.015480
H	 -0.539537	 2.008579	 -0.751815
H	 -0.889989	 1.662858	 0.920677
C	 1.153605	 1.231851	 0.356834
H	 1.823096	 -1.684665	 0.802361
H	 1.352335	 -1.958223	 -0.845114
C	 1.826409	 0.100723	 -0.416008
H	 1.622968	 2.181508	 0.128734
H	 1.301983	 1.066493	 1.419367
H	 2.897299	 0.112407	 -0.249665
H	 1.683458	 0.265621	 -1.480024

	symmetry c1
}
set optking {
	frozen_dihedral = ("
		1 2 3 4
	")
}

ee,wfn = optimize('scf', return_wfn=True)
oeprop( wfn, 'DIPOLE', 'QUADRUPOLE', 'MULLIKEN_CHARGES')
f=open( 'psi4out.xyz', 'w' )
f.write( "19  " )
f.write( str(ee) + "\n" )
f.write( MOL.save_string_xyz() )
f.close()
--------------------------------------------------------------------------

    Molecular point group: c1
  Charge       = 0
  Multiplicity = 1
  Basis Set: CC-PVTZ
  Basis Set:
  @DF-RHF Final Energy:  -309.16356081404211
    Total Energy =                       -309.1635608140420572
    Molecular point group: c1
  Basis Set: CC-PVTZ
  Basis Set:
  Charge       = 0
  Multiplicity = 1
  Basis Set: CC-PVTZ
  Basis Set:

    Orbital Energies (a.u.)
    -----------------------

    Doubly Occupied:

       1A    -20.543395     2A    -11.267341     3A    -11.214898
       4A    -11.213757     5A    -11.213158     6A    -11.211667
       7A    -11.206743     8A     -1.363377     9A     -1.110000
      10A     -1.003142    11A     -0.989398    12A     -0.844309
      13A     -0.836751    14A     -0.734199    15A     -0.700661
      16A     -0.663360    17A     -0.629454    18A     -0.591272
      19A     -0.578941    20A     -0.547674    21A     -0.531430
      22A     -0.518841    23A     -0.499162    24A     -0.488842
      25A     -0.463721    26A     -0.449571    27A     -0.428827
      28A     -0.414224

  @DF-RHF Final Energy:  -309.16356117435419

   => Energetics <=

    Nuclear Repulsion Energy =            331.9667487496888043
    One-Electron Energy =               -1077.7443928135451188
    Two-Electron Energy =                 436.6140828895023560
    DFT Exchange-Correlation Energy =       0.0000000000000000
    Empirical Dispersion Energy =           0.0000000000000000
    PCM Polarization Energy =               0.0000000000000000
    EFP Energy =                            0.0000000000000000
    Total Energy =                       -309.1635611743539584
    Molecular point group: c1
  Basis Set: CC-PVTZ
  Basis Set:

  -Total Gradient:
     Atom            X                  Y                   Z
    ------   -----------------  -----------------  -----------------
       1       -0.000044424394    -0.000143419673    -0.000167913994
       2        0.000060884573     0.000296229876     0.000212215386
       3        0.000008010093    -0.000253949853    -0.000009339913
       4       -0.000015028278     0.000237369349    -0.000047063547
       5        0.000029383813    -0.000016485861     0.000028416122
       6       -0.000110818426    -0.000066794355    -0.000051627775
       7        0.000017829800    -0.000020633120     0.000016813329
       8       -0.000004638781     0.000015043439    -0.000004390407
       9        0.000015788958     0.000013736029     0.000010917954
      10       -0.000010973647     0.000002115922     0.000010948079
      11       -0.000025703156    -0.000005168920    -0.000009791109
      12        0.000030519274    -0.000045233807     0.000007120578
      13        0.000014180340     0.000007256202    -0.000001098774
      14       -0.000000431987     0.000002371513     0.000000972126
      15        0.000021102060    -0.000009961701     0.000009335098
      16        0.000004185307    -0.000011055444    -0.000009071987
      17        0.000001151194     0.000000824126    -0.000003446510
      18        0.000006412695    -0.000000978944    -0.000001556125
      19        0.000002570564    -0.000001264781     0.000008561471

  **** Optimization is complete! (in 2 steps) ****
    Final optimized geometry and variables:
    Molecular point group: c1

    Geometry (in Angstrom), charge = 0, multiplicity = 1:

    H           -2.788095387944     0.518883013975    -0.496479929025
    O           -2.314112345819    -0.139557269188    -0.021597939806
    C           -0.944536200755    -0.064421340289    -0.329281165144
    H           -0.815704902769    -0.223860140159    -1.398438812615
    C           -0.231186643628    -1.182275869730     0.406784715910
    C           -0.352806013764     1.300699723063     0.050582742575
    H           -0.311770101149    -0.992945969649     1.472470953834
    H           -0.739552270892    -2.119358062654     0.219491280076
    C            1.245594528908    -1.268688511611    -0.017506033589
    H           -0.537221686813     2.008244815311    -0.753004764574
    H           -0.889461294290     1.664523818006     0.919292275883
    C            1.154365254402     1.230728058116     0.357169015059
    H            1.822794537316    -1.686933775625     0.799301935090
    H            1.350392626474    -1.957866119370    -0.848175800571
    C            1.826764990275     0.100086526127    -0.416594801511
    H            1.624485994838     2.180311378260     0.130235558435
    H            1.302190244700     1.064126643816     1.419579764973
    H            2.897657059744     0.110934318166    -0.250122802571
    H            1.683970898705     0.266092041221    -1.480462230958

  Mulliken Charges: (a.u.)
   Center  Symbol    Alpha    Beta     Spin     Total
       1     H     0.39678  0.39678  0.00000  0.20645
       2     O     4.19952  4.19952  0.00000 -0.39904
       3     C     2.92371  2.92371  0.00000  0.15258
       4     H     0.46392  0.46392  0.00000  0.07217
       5     C     3.09830  3.09830  0.00000 -0.19661
       6     C     3.12158  3.12158  0.00000 -0.24315
       7     H     0.45396  0.45396  0.00000  0.09207
       8     H     0.44047  0.44047  0.00000  0.11906
       9     C     3.11351  3.11351  0.00000 -0.22702
      10     H     0.45202  0.45202  0.00000  0.09597
      11     H     0.44557  0.44557  0.00000  0.10886
      12     C     3.10083  3.10083  0.00000 -0.20166
      13     H     0.44713  0.44713  0.00000  0.10573
      14     H     0.44752  0.44752  0.00000  0.10496
      15     C     3.10262  3.10262  0.00000 -0.20525
      16     H     0.44277  0.44277  0.00000  0.11446
      17     H     0.45256  0.45256  0.00000  0.09488
      18     H     0.44286  0.44286  0.00000  0.11429
      19     H     0.45437  0.45437  0.00000  0.09126

   Total alpha = 28.00000, Total beta = 28.00000, Total charge = -0.00000

*** Psi4 exiting successfully. Buy a developer a beer!
