  ==> Input File <==

--------------------------------------------------------------------------
set {
	reference rhf
	basis 6-31G*
}

set_num_threads( 1 )
memory 2 gb

molecule MOL {
0 1

O	 2.284545	 0.497406	 0.967119
C	 1.705091	 0.115954	 0.001797
C	 0.381791	 -0.609817	 0.001258
O	 2.159183	 0.288423	 -1.233189
C	 -0.823008	 0.326187	 0.001381
H	 0.371250	 -1.265087	 -0.865474
H	 0.370908	 -1.265746	 0.867490
C	 -2.149452	 -0.435131	 -0.000098
H	 -0.770201	 0.977095	 -0.865636
H	 -0.771220	 0.975655	 0.869608
C	 -3.368779	 0.488503	 -0.000883
H	 -2.193746	 -1.087250	 -0.871175
H	 -2.195311	 -1.087803	 0.870418
C	 -4.693822	 -0.272754	 -0.001129
H	 -3.325798	 1.139422	 -0.871284
H	 -3.326423	 1.139959	 0.869145
H	 -4.781274	 -0.907928	 -0.878124
H	 -5.538651	 0.408946	 -0.001420
H	 -4.781694	 -0.907783	 0.875984
C	 3.397218	 0.960896	 -1.374632
H	 3.336082	 1.959482	 -0.966446
H	 3.591503	 1.001571	 -2.435045
H	 4.184066	 0.418682	 -0.870273

	symmetry c1
}
set optking {
	frozen_dihedral = ("
		15 11 8 12,
		9 5 8 12,
		9 5 3 6,
		1 2 4 20
	")
}

ee = energy('scf')
oeprop('DIPOLE', 'QUADRUPOLE', 'MULLIKEN_CHARGES')
f=open( 'psi4out.xyz', 'w' )
f.write( "23  " )
f.write( str(ee) + "\n" )
f.write( MOL.save_string_xyz() )
f.close()
--------------------------------------------------------------------------

    Molecular point group: c1

    Geometry (in Angstrom), charge = 0, multiplicity = 1:

       Center              X                  Y                   Z               Mass
    ------------   -----------------  -----------------  -----------------  -----------------
           O          2.372853378684     0.336250195750     1.159503478275    15.994914619560
           C          1.793399378684    -0.045201804250     0.194181478275    12.000000000000
           C          0.470099378684    -0.770972804250     0.193642478275    12.000000000000
           O          2.247491378684     0.127267195750    -1.040804521725    15.994914619560
           C         -0.734699621316     0.165031195750     0.193765478275    12.000000000000
           H          0.459558378684    -1.426242804250    -0.673089521725     1.007825032070
           H          0.459216378684    -1.426901804250     1.059874478275     1.007825032070
           C         -2.061143621316    -0.596286804250     0.192286478275    12.000000000000
           H         -0.681892621316     0.815939195750    -0.673251521725     1.007825032070
           H         -0.682911621316     0.814499195750     1.061992478275     1.007825032070
           C         -3.280470621316     0.327347195750     0.191501478275    12.000000000000
           H         -2.105437621316    -1.248405804250    -0.678790521725     1.007825032070
           H         -2.107002621316    -1.248958804250     1.062802478275     1.007825032070
           C         -4.605513621316    -0.433909804250     0.191255478275    12.000000000000
           H         -3.237489621316     0.978266195750    -0.678899521725     1.007825032070
           H         -3.238114621316     0.978803195750     1.061529478275     1.007825032070
           H         -4.692965621316    -1.069083804250    -0.685739521725     1.007825032070
           H         -5.450342621316     0.247790195750     0.190964478275     1.007825032070
           H         -4.693385621316    -1.068938804250     1.068368478275     1.007825032070
           C          3.485526378684     0.799740195750    -1.182247521725    12.000000000000
           H          3.424390378684     1.798326195750    -0.774061521725     1.007825032070
           H          3.679811378684     0.840415195750    -2.242660521725     1.007825032070
           H          4.272374378684     0.257526195750    -0.677888521725     1.007825032070

  Charge       = 0
  Multiplicity = 1
  Basis Set: 6-31G*
  Basis Set:

    Orbital Energies (a.u.)
    -----------------------

    Doubly Occupied:

       1A    -20.604139     2A    -20.543211     3A    -11.370790
       4A    -11.280180     5A    -11.233212     6A    -11.229588
       7A    -11.222427     8A    -11.220103     9A    -11.212240
      10A     -1.468548    11A     -1.361187    12A     -1.097746
      13A     -1.045724    14A     -0.985962    15A     -0.934024
      16A     -0.847950    17A     -0.799368    18A     -0.772353
      19A     -0.693429    20A     -0.679661    21A     -0.672581
      22A     -0.653096    23A     -0.605789    24A     -0.596177
      25A     -0.580578    26A     -0.572072    27A     -0.538576
      28A     -0.536029    29A     -0.523867    30A     -0.507946
      31A     -0.490103    32A     -0.476927    33A     -0.470349
      34A     -0.467448    35A     -0.453363    36A     -0.428237

  @DF-RHF Final Energy:  -422.97412269484789

   => Energetics <=

    Nuclear Repulsion Energy =            453.4991573426069635
    One-Electron Energy =               -1474.5964848709479611
    Two-Electron Energy =                 598.1232048334927640
    DFT Exchange-Correlation Energy =       0.0000000000000000
    Empirical Dispersion Energy =           0.0000000000000000
    PCM Polarization Energy =               0.0000000000000000
    EFP Energy =                            0.0000000000000000
    Total Energy =                       -422.9741226948482336

  Mulliken Charges: (a.u.)
   Center  Symbol    Alpha    Beta     Spin     Total
       1     O     4.28487  4.28487  0.00000 -0.56974
       2     C     2.61704  2.61704  0.00000  0.76592
       3     C     3.19578  3.19578  0.00000 -0.39156
       4     O     4.30227  4.30227  0.00000 -0.60455
       5     C     3.16332  3.16332  0.00000 -0.32665
       6     H     0.40375  0.40375  0.00000  0.19249
       7     H     0.40160  0.40160  0.00000  0.19680
       8     C     3.15272  3.15272  0.00000 -0.30545
       9     H     0.41289  0.41289  0.00000  0.17422
      10     H     0.40877  0.40877  0.00000  0.18246
      11     C     3.15261  3.15261  0.00000 -0.30522
      12     H     0.42145  0.42145  0.00000  0.15710
      13     H     0.42062  0.42062  0.00000  0.15875
      14     C     3.23991  3.23991  0.00000 -0.47983
      15     H     0.42180  0.42180  0.00000  0.15640
      16     H     0.42090  0.42090  0.00000  0.15821
      17     H     0.42129  0.42129  0.00000  0.15742
      18     H     0.41801  0.41801  0.00000  0.16399
      19     H     0.42089  0.42089  0.00000  0.15822
      20     C     3.09282  3.09282  0.00000 -0.18564
      21     H     0.40911  0.40911  0.00000  0.18178
      22     H     0.40880  0.40880  0.00000  0.18240
      23     H     0.40876  0.40876  0.00000  0.18248

   Total alpha = 36.00000, Total beta = 36.00000, Total charge = -0.00000
