                              Psi4 1.0.54 Driver

  ==> Input File <==

--------------------------------------------------------------------------
set {
	reference rhf
	basis cc-pvtz
}

set_num_threads( 4 )
memory 2 gb

molecule MOL {
0 1

H	 -3.144994	 -1.202467	 -0.018751
O	 -2.321472	 -0.864941	 -0.318626
C	 -2.021813	 0.336996	 0.342658
C	 -0.669613	 0.837286	 -0.127252
H	 -2.780861	 1.084746	 0.127159
H	 -2.006390	 0.184138	 1.420053
C	 0.490865	 -0.082543	 0.241244
H	 -0.708709	 0.967192	 -1.204587
H	 -0.507562	 1.822272	 0.303070
C	 1.839800	 0.429565	 -0.255472
H	 0.305636	 -1.070211	 -0.165276
H	 0.527397	 -0.195943	 1.322876
C	 2.055877	 1.913036	 0.024548
H	 2.634828	 -0.143955	 0.213259
H	 1.924369	 0.249321	 -1.324139
H	 2.012234	 2.119694	 1.088646
H	 3.022092	 2.245369	 -0.337791
H	 1.295688	 2.517551	 -0.459311

	symmetry c1
}
set optking {
	frozen_dihedral = ("
		14 10 7 11
	")
}

ee,wfn = optimize('scf', return_wfn=True)
oeprop( wfn, 'DIPOLE', 'QUADRUPOLE', 'MULLIKEN_CHARGES')
f=open( 'psi4out.xyz', 'w' )
f.write( "18  " )
f.write( str(ee) + "\n" )
f.write( MOL.save_string_xyz() )
f.close()
--------------------------------------------------------------------------

    Molecular point group: c1
  Charge       = 0
  Multiplicity = 1
  Basis Set: CC-PVTZ
  Basis Set:
  @DF-RHF Final Energy:  -271.28233246131265
    Total Energy =                       -271.2823324613127625
    Molecular point group: c1
  Basis Set: CC-PVTZ
  Basis Set:
  Basis Set: CC-PVTZ
  Basis Set:
  @DF-RHF Final Energy:  -271.28060520437998
    Total Energy =                       -271.2806052043799809
  Basis Set: CC-PVTZ
  Basis Set:
  Basis Set: CC-PVTZ
  Basis Set:
  @DF-RHF Final Energy:  -271.28380837082011
    Total Energy =                       -271.2838083708199974
  Basis Set: CC-PVTZ
  Basis Set:
  Basis Set: CC-PVTZ
  Basis Set:
  @DF-RHF Final Energy:  -271.28400142896942
    Total Energy =                       -271.2840014289692476
  Basis Set: CC-PVTZ
  Basis Set:
  Basis Set: CC-PVTZ
  Basis Set:
  @DF-RHF Final Energy:  -271.28401688090889
    Total Energy =                       -271.2840168809089505
  Basis Set: CC-PVTZ
  Basis Set:
  Basis Set: CC-PVTZ
  Basis Set:
  @DF-RHF Final Energy:  -271.28402030869546
    Total Energy =                       -271.2840203086952329
  Basis Set: CC-PVTZ
  Basis Set:
  Charge       = 0
  Multiplicity = 1
  Basis Set: CC-PVTZ
  Basis Set:

    Orbital Energies (a.u.)
    -----------------------

    Doubly Occupied:

       1A    -20.546280     2A    -11.265835     3A    -11.209711
       4A    -11.209463     5A    -11.205146     6A    -11.203212
       7A     -1.364159     8A     -1.075959     9A     -1.006898
      10A     -0.916147    11A     -0.831668    12A     -0.769442
      13A     -0.708886    14A     -0.635773    15A     -0.624516
      16A     -0.605196    17A     -0.567924    18A     -0.552312
      19A     -0.526468    20A     -0.503033    21A     -0.494932
      22A     -0.462311    23A     -0.457336    24A     -0.449936
      25A     -0.429434

  @DF-RHF Final Energy:  -271.28402037437615

   => Energetics <=

    Nuclear Repulsion Energy =            252.1876880669944114
    One-Electron Energy =                -867.6994655584448992
    Two-Electron Energy =                 344.2277571170741908
    DFT Exchange-Correlation Energy =       0.0000000000000000
    Empirical Dispersion Energy =           0.0000000000000000
    PCM Polarization Energy =               0.0000000000000000
    EFP Energy =                            0.0000000000000000
    Total Energy =                       -271.2840203743763254
    Molecular point group: c1
  Basis Set: CC-PVTZ
  Basis Set:

  -Total Gradient:
     Atom            X                  Y                   Z
    ------   -----------------  -----------------  -----------------
       1        0.000004410057     0.000003310280    -0.000002868520
       2       -0.000008240830    -0.000020805866    -0.000000488055
       3        0.000002103873     0.000023764873    -0.000000312276
       4       -0.000005867532    -0.000003438516    -0.000004262776
       5        0.000007672925    -0.000001534502     0.000006979231
       6        0.000003472119    -0.000002409702    -0.000008839007
       7        0.001814486907    -0.001843885883     0.004497889810
       8       -0.000006475887     0.000000703511     0.000002540840
       9       -0.000000203323    -0.000007200017    -0.000003563879
      10       -0.000729081485    -0.002536590928    -0.004427283042
      11       -0.001422221123     0.001952766467    -0.003123086391
      12        0.000006340016    -0.000002265742    -0.000001379813
      13        0.000004424496     0.000005108291    -0.000003275448
      14        0.000333137748     0.002439024383     0.003056324611
      15       -0.000004164644    -0.000003300221     0.000004369644
      16        0.000004343193     0.000002928706    -0.000003765000
      17       -0.000012383636     0.000001187156     0.000002098349
      18        0.000008247125    -0.000007362287     0.000008921721

  **** Optimization is complete! (in 7 steps) ****
    Final optimized geometry and variables:
    Molecular point group: c1

    Geometry (in Angstrom), charge = 0, multiplicity = 1:

    H           -3.088252366806    -1.360362948099    -0.387067833905
    O           -2.223637062423    -1.049141207321    -0.580563852768
    C           -1.919758287568     0.063909450096     0.219908421537
    C           -0.501530454123     0.516120064205    -0.072549671607
    H           -2.610253575321     0.876932845641     0.010643848522
    H           -2.017763905718    -0.188335926242     1.274107218475
    C            0.555406592986    -0.513806863388     0.327764080493
    H           -0.425280572595     0.730435201547    -1.134877744210
    H           -0.339491545986     1.452235212294     0.451337913431
    C            1.982846104145    -0.166621052782    -0.106788527425
    H            0.276069073507    -1.454507530253    -0.130326091161
    H            0.525873093621    -0.653089692744     1.405599282495
    C            2.445672687627     1.243514273637     0.258579819617
    H            2.660458956651    -0.864901938898     0.374810939808
    H            2.082181385013    -0.310938673993    -1.178118477054
    H            2.330850549276     1.430398845579     1.322025353522
    H            3.493545654010     1.375471635897     0.014094471140
    H            1.889921601109     2.006410421705    -0.272818290183

  Mulliken Charges: (a.u.)
   Center  Symbol    Alpha    Beta     Spin     Total
       1     H     0.39563  0.39563  0.00000  0.20874
       2     O     4.19874  4.19874  0.00000 -0.39747
       3     C     2.97296  2.97296  0.00000  0.05408
       4     C     3.09444  3.09444  0.00000 -0.18889
       5     H     0.46489  0.46489  0.00000  0.07023
       6     H     0.47376  0.47376  0.00000  0.05248
       7     C     3.09601  3.09601  0.00000 -0.19202
       8     H     0.45170  0.45170  0.00000  0.09660
       9     H     0.45187  0.45187  0.00000  0.09625
      10     C     3.09024  3.09024  0.00000 -0.18048
      11     H     0.44079  0.44079  0.00000  0.11842
      12     H     0.45663  0.45663  0.00000  0.08673
      13     C     3.15623  3.15623  0.00000 -0.31246
      14     H     0.45054  0.45054  0.00000  0.09891
      15     H     0.45161  0.45161  0.00000  0.09677
      16     H     0.45522  0.45522  0.00000  0.08955
      17     H     0.44593  0.44593  0.00000  0.10814
      18     H     0.45279  0.45279  0.00000  0.09442

   Total alpha = 25.00000, Total beta = 25.00000, Total charge =  0.00000

*** Psi4 exiting successfully. Buy a developer a beer!
