                              Psi4 1.0.54 Driver

  ==> Input File <==

--------------------------------------------------------------------------
set {
	reference rhf
	basis cc-pvtz
}

set_num_threads( 4 )
memory 2 gb

molecule MOL {
0 1

H	 1.873800	 0.589599	 1.133773
O	 1.094580	 0.057157	 1.186590
C	 0.489979	 0.078084	 0.002623
C	 -0.763662	 -0.754014	 0.000816
O	 0.922268	 0.684028	 -0.916000
C	 -2.038001	 0.074705	 -0.000833
H	 -0.712945	 -1.405886	 -0.864342
H	 -0.715137	 -1.405770	 0.866182
H	 -2.087267	 0.710831	 -0.874232
H	 -2.903419	 -0.576199	 -0.001922
H	 -2.089467	 0.710909	 0.872389

	symmetry c1
}
set optking {
	frozen_dihedral = ("
		2 3 4 7
	")
}

ee,wfn = optimize('scf', return_wfn=True)
oeprop( wfn, 'DIPOLE', 'QUADRUPOLE', 'MULLIKEN_CHARGES')
f=open( 'psi4out.xyz', 'w' )
f.write( "11  " )
f.write( str(ee) + "\n" )
f.write( MOL.save_string_xyz() )
f.close()
--------------------------------------------------------------------------

    Molecular point group: c1
  Charge       = 0
  Multiplicity = 1
  Basis Set: CC-PVTZ
  Basis Set:
  @DF-RHF Final Energy:  -266.95051273020351
    Total Energy =                       -266.9505127302036271
    Molecular point group: c1
  Basis Set: CC-PVTZ
  Basis Set:
  Basis Set: CC-PVTZ
  Basis Set:
  @DF-RHF Final Energy:  -266.95103292220858
    Total Energy =                       -266.9510329222086398
  Basis Set: CC-PVTZ
  Basis Set:
  Basis Set: CC-PVTZ
  Basis Set:
  @DF-RHF Final Energy:  -266.83993851985508
    Total Energy =                       -266.8399385198551386
  Basis Set: CC-PVTZ
  Basis Set:
  Basis Set: CC-PVTZ
  Basis Set:
  @DF-RHF Final Energy:  -266.93650568085422
    Total Energy =                       -266.9365056808543955
  Basis Set: CC-PVTZ
  Basis Set:
  @DF-RHF Final Energy:  -266.95029711142172
    Total Energy =                       -266.9502971114219463
  @DF-RHF Final Energy:  -266.94687986224210
    Total Energy =                       -266.9468798622420991
  @DF-RHF Final Energy:  -266.94250238990156
    Total Energy =                       -266.9425023899017333
  @DF-RHF Final Energy:  -266.93969933646679
    Total Energy =                       -266.9396993364669015
  @DF-RHF Final Energy:  -266.93815046945736
    Total Energy =                       -266.9381504694573550
  @DF-RHF Final Energy:  -266.95000902757010
    Total Energy =                       -266.9500090275701041
  @DF-RHF Final Energy:  -266.95038864292144
    Total Energy =                       -266.9503886429214390
  Basis Set: CC-PVTZ
  Basis Set:
  @DF-RHF Final Energy:  -266.95117662425702
    Total Energy =                       -266.9511766242569593
  Basis Set: CC-PVTZ
  Basis Set:
  Basis Set: CC-PVTZ
  Basis Set:
  @DF-RHF Final Energy:  -266.95127771027774
    Total Energy =                       -266.9512777102775658
  Basis Set: CC-PVTZ
  Basis Set:
  Basis Set: CC-PVTZ
  Basis Set:
  @DF-RHF Final Energy:  -266.95128344126397
    Total Energy =                       -266.9512834412639677
  Basis Set: CC-PVTZ
  Basis Set:
  Charge       = 0
  Multiplicity = 1
  Basis Set: CC-PVTZ
  Basis Set:

    Orbital Energies (a.u.)
    -----------------------

    Doubly Occupied:

       1A    -20.607275     2A    -20.538751     3A    -11.374007
       4A    -11.241478     5A    -11.227345     6A     -1.479000
       7A     -1.369201     8A     -1.067616     9A     -0.915693
      10A     -0.814407    11A     -0.707067    12A     -0.690612
      13A     -0.648502    14A     -0.615155    15A     -0.596204
      16A     -0.541088    17A     -0.527604    18A     -0.512639
      19A     -0.479032    20A     -0.445356

  @DF-RHF Final Energy:  -266.95128778562486

   => Energetics <=

    Nuclear Repulsion Energy =            180.1814253134256774
    One-Electron Energy =                -721.4693638184154452
    Two-Electron Energy =                 274.3366507193647976
    DFT Exchange-Correlation Energy =       0.0000000000000000
    Empirical Dispersion Energy =           0.0000000000000000
    PCM Polarization Energy =               0.0000000000000000
    EFP Energy =                            0.0000000000000000
    Total Energy =                       -266.9512877856250270
    Molecular point group: c1
  Basis Set: CC-PVTZ
  Basis Set:

  -Total Gradient:
     Atom            X                  Y                   Z
    ------   -----------------  -----------------  -----------------
       1        0.000002135435     0.000002530165     0.000004555704
       2        0.000041625776    -0.000027670048    -0.000019475278
       3       -0.000045821524     0.000054210035     0.000005302219
       4       -0.000027089671     0.000029785043    -0.000020769586
       5        0.000009960763    -0.000021762559     0.000019575924
       6       -0.000004102671     0.000006708100     0.000003964226
       7        0.000030995722    -0.000040643711     0.000007421422
       8        0.000001413055     0.000001611658    -0.000000507858
       9       -0.000000436241    -0.000002057221     0.000000948087
      10       -0.000009909064    -0.000001145736     0.000002103942
      11        0.000001228421    -0.000001565726    -0.000003118801

  **** Optimization is complete! (in 11 steps) ****
    Final optimized geometry and variables:
    Molecular point group: c1

    Geometry (in Angstrom), charge = 0, multiplicity = 1:

    H            2.116105106558     0.390409246316     0.662439404906
    O            1.422185266540    -0.251474882562     0.695720356209
    C            0.479204242885     0.106307934974    -0.168423561929
    C           -0.697272603287    -0.834476287129    -0.184674193466
    O            0.571297173030     1.079550615926    -0.834832459888
    C           -1.938331153585    -0.169095685392     0.413861445193
    H           -0.881759352819    -1.090066889713    -1.220043901521
    H           -0.447906898513    -1.737241827706     0.353498577209
    H           -2.186494956329     0.733249008031    -0.128070894675
    H           -2.782601811395    -0.844397137316     0.362380269907
    H           -1.779475451396     0.089453971249     1.454103736113

  Mulliken Charges: (a.u.)
   Center  Symbol    Alpha    Beta     Spin     Total
       1     H     0.37982  0.37982  0.00000  0.24036
       2     O     4.16046  4.16046  0.00000 -0.32091
       3     C     2.79987  2.79987  0.00000  0.40027
       4     C     3.08982  3.08982  0.00000 -0.17965
       5     O     4.19947  4.19947  0.00000 -0.39894
       6     C     3.14709  3.14709  0.00000 -0.29417
       7     H     0.44182  0.44182  0.00000  0.11635
       8     H     0.43997  0.43997  0.00000  0.12007
       9     H     0.44245  0.44245  0.00000  0.11511
      10     H     0.44787  0.44787  0.00000  0.10426
      11     H     0.45137  0.45137  0.00000  0.09725

   Total alpha = 20.00000, Total beta = 20.00000, Total charge =  0.00000

*** Psi4 exiting successfully. Buy a developer a beer!
