  ==> Input File <==

--------------------------------------------------------------------------
set {
	reference rhf
	basis cc-pvtz
}

set_num_threads( 4 )
memory 2 gb

molecule MOL {
0 1

H	 1.154622	 -2.162751	 1.319157
C	 1.292885	 -1.106657	 1.585996
C	 0.056302	 -0.256737	 1.489567
O	 2.358497	 -0.714566	 1.915191
C	 -0.554654	 -0.292621	 0.086567
H	 0.310547	 0.753235	 1.783082
H	 -0.663266	 -0.646541	 2.206611
C	 -1.846385	 0.513195	 -0.016346
H	 0.168236	 0.091545	 -0.627425
H	 -0.750956	 -1.323251	 -0.197932
C	 -3.089953	 -0.365049	 -0.098564
H	 -1.798267	 1.154820	 -0.891143
H	 -1.925398	 1.173265	 0.842889
H	 -3.055079	 -1.012299	 -0.968245
H	 -3.988403	 0.236438	 -0.170014
H	 -3.183055	 -0.995885	 0.779079

	symmetry c1
}
set optking {
	frozen_dihedral = ("
		9 5 8 12
	")
}

ee = optimize('scf')
oeprop('DIPOLE', 'QUADRUPOLE', 'MULLIKEN_CHARGES')
f=open( 'psi4out.xyz', 'w' )
f.write( "16  " )
f.write( str(ee) + "\n" )
f.write( MOL.save_string_xyz() )
f.close()
--------------------------------------------------------------------------

    Molecular point group: c1
  Charge       = 0
  Multiplicity = 1
  Basis Set: CC-PVTZ
  Basis Set:
  @DF-RHF Final Energy:  -270.11382388977842
    Total Energy =                       -270.1138238897785300
    Molecular point group: c1
  Basis Set: CC-PVTZ
  Basis Set:
  Basis Set: CC-PVTZ
  Basis Set:
  @DF-RHF Final Energy:  -270.11412831213534
    Total Energy =                       -270.1141283121355627
  Basis Set: CC-PVTZ
  Basis Set:
  Basis Set: CC-PVTZ
  Basis Set:
  @DF-RHF Final Energy:  -270.11371371348469
    Total Energy =                       -270.1137137134849127
  Basis Set: CC-PVTZ
  Basis Set:
  Basis Set: CC-PVTZ
  Basis Set:
  @DF-RHF Final Energy:  -270.11418749434318
    Total Energy =                       -270.1141874943434686
  Basis Set: CC-PVTZ
  Basis Set:
  Basis Set: CC-PVTZ
  Basis Set:
  @DF-RHF Final Energy:  -270.11419780802697
    Total Energy =                       -270.1141978080271429
  Basis Set: CC-PVTZ
  Basis Set:
  Basis Set: CC-PVTZ
  Basis Set:
  @DF-RHF Final Energy:  -270.11420167604842
    Total Energy =                       -270.1142016760484239
  Basis Set: CC-PVTZ
  Basis Set:
  Basis Set: CC-PVTZ
  Basis Set:
  @DF-RHF Final Energy:  -270.11420590305568
    Total Energy =                       -270.1142059030556766
  Basis Set: CC-PVTZ
  Basis Set:
  Charge       = 0
  Multiplicity = 1
  Basis Set: CC-PVTZ
  Basis Set:

    Orbital Energies (a.u.)
    -----------------------

    Doubly Occupied:

       1A    -20.552257     2A    -11.321231     3A    -11.234885
       4A    -11.234102     5A    -11.227295     6A    -11.218434
       7A     -1.406952     8A     -1.096163     9A     -1.018978
      10A     -0.909226    11A     -0.812266    12A     -0.794863
      13A     -0.681464    14A     -0.642853    15A     -0.633031
      16A     -0.611775    17A     -0.575450    18A     -0.559996
      19A     -0.530916    20A     -0.513174    21A     -0.488288
      22A     -0.483981    23A     -0.472100    24A     -0.411456

  @DF-RHF Final Energy:  -270.11420615777331

   => Energetics <=

    Nuclear Repulsion Energy =            230.4437554770907184
    One-Electron Energy =                -822.2536493091527063
    Two-Electron Energy =                 321.6956876742886493
    DFT Exchange-Correlation Energy =       0.0000000000000000
    Empirical Dispersion Energy =           0.0000000000000000
    PCM Polarization Energy =               0.0000000000000000
    EFP Energy =                            0.0000000000000000
    Total Energy =                       -270.1142061577733671
    Molecular point group: c1
  Basis Set: CC-PVTZ
  Basis Set:

  -Total Gradient:
     Atom            X                  Y                   Z
    ------   -----------------  -----------------  -----------------
       1        0.000001955431     0.000001924300    -0.000006980422
       2        0.000000320623     0.000006118447     0.000004959958
       3        0.000006812492     0.000000130044    -0.000023690575
       4        0.000002064403    -0.000001355054     0.000009515236
       5        0.001451405065     0.002880822927     0.002922400273
       6       -0.000006317121     0.000000268478     0.000005382505
       7        0.000006098561    -0.000006271861     0.000005911144
       8       -0.001636884404    -0.003124740926    -0.002512180217
       9       -0.000953637855    -0.001916949389    -0.002032428351
      10       -0.000005580668    -0.000000109258     0.000000229284
      11       -0.000006469100    -0.000005815641     0.000000666482
      12        0.001138781249     0.002164622078     0.001627290436
      13       -0.000000245503     0.000001151263    -0.000001776913
      14       -0.000000296755     0.000000563015    -0.000000033174
      15        0.000002834199    -0.000000002468     0.000000436572
      16       -0.000000840620    -0.000000355956     0.000000297764

  **** Optimization is complete! (in 8 steps) ****
    Final optimized geometry and variables:
    Molecular point group: c1

    Geometry (in Angstrom), charge = 0, multiplicity = 1:

    H            1.422938920220    -1.798290809967     0.503665275834
    C            1.580456024476    -0.743851253198     0.766348095573
    C            0.361620933219     0.130129235635     0.658397417029
    O            2.651574220891    -0.370871576303     1.099930664316
    C           -0.232164625812     0.113611555780    -0.752479624071
    H            0.630079600064     1.133934081175     0.959644713310
    H           -0.374897173579    -0.249637900253     1.363831914642
    C           -1.554074163906     0.896446495220    -0.866168477040
    H            0.494551572175     0.500845660024    -1.457766404839
    H           -0.402571302878    -0.916974252639    -1.052468551405
    C           -2.790184008924     0.005023583013    -0.916778982549
    H           -1.523935125370     1.537646394365    -1.739518393564
    H           -1.640891751535     1.573128998426    -0.021546288286
    H           -2.774006443861    -0.635281572387    -1.791960591083
    H           -3.697743750945     0.596046192251    -0.954161725809
    H           -2.849227008065    -0.634335933825    -0.041722602781

  Mulliken Charges: (a.u.)
   Center  Symbol    Alpha    Beta     Spin     Total
       1     H     0.46509  0.46509  0.00000  0.06982
       2     C     2.90934  2.90934  0.00000  0.18131
       3     C     3.07833  3.07833  0.00000 -0.15665
       4     O     4.16354  4.16354  0.00000 -0.32707
       5     C     3.10964  3.10964  0.00000 -0.21928
       6     H     0.44184  0.44184  0.00000  0.11632
       7     H     0.45012  0.45012  0.00000  0.09975
       8     C     3.09040  3.09040  0.00000 -0.18080
       9     H     0.43849  0.43849  0.00000  0.12303
      10     H     0.45293  0.45293  0.00000  0.09414
      11     C     3.14678  3.14678  0.00000 -0.29355
      12     H     0.44517  0.44517  0.00000  0.10966
      13     H     0.45265  0.45265  0.00000  0.09469
      14     H     0.45346  0.45346  0.00000  0.09308
      15     H     0.44681  0.44681  0.00000  0.10638
      16     H     0.45541  0.45541  0.00000  0.08919

   Total alpha = 24.00000, Total beta = 24.00000, Total charge = -0.00000
