  ==> Input File <==

--------------------------------------------------------------------------
set {
	reference rhf
	basis 6-31G*
}

set_num_threads( 4 )
memory 2 gb

molecule MOL {
0 1

H	 1.519000	 -1.901161	 -0.898097
C	 0.611832	 -1.348782	 -1.082429
O	 0.464886	 -0.454746	 -0.000158
H	 -0.222684	 -2.037919	 -1.134384
H	 0.702781	 -0.813596	 -2.020174
C	 -0.590998	 0.343045	 0.000118
O	 -1.699443	 -0.054298	 0.000227
H	 -0.340329	 1.404368	 0.000207

	symmetry c1
}
set optking {
	frozen_dihedral = ("
		2 3 6 7
	")
}

ee = optimize('scf')
oeprop('DIPOLE', 'QUADRUPOLE', 'MULLIKEN_CHARGES')
f=open( 'psi4out.xyz', 'w' )
f.write( "8  " )
f.write( str(ee) + "\n" )
f.write( MOL.save_string_xyz() )
f.close()
--------------------------------------------------------------------------

    Molecular point group: c1
  Charge       = 0
  Multiplicity = 1
  Basis Set: 6-31G*
  Basis Set:
  @DF-RHF Final Energy:  -227.77290163716168
    Total Energy =                       -227.7729016371618229
    Molecular point group: c1
  Basis Set: 6-31G*
  Basis Set:
  Basis Set: 6-31G*
  Basis Set:
  @DF-RHF Final Energy:  -227.76741152872137
    Total Energy =                       -227.7674115287211976
  Basis Set: 6-31G*
  Basis Set:
  Basis Set: 6-31G*
  Basis Set:
  @DF-RHF Final Energy:  -227.77352165089968
    Total Energy =                       -227.7735216508998235
  Basis Set: 6-31G*
  Basis Set:
  Basis Set: 6-31G*
  Basis Set:
  @DF-RHF Final Energy:  -227.77396461234312
    Total Energy =                       -227.7739646123431783
  Basis Set: 6-31G*
  Basis Set:
  Basis Set: 6-31G*
  Basis Set:
  @DF-RHF Final Energy:  -227.77397374111052
    Total Energy =                       -227.7739737411105239
  Basis Set: 6-31G*
  Basis Set:
  Charge       = 0
  Multiplicity = 1
  Basis Set: 6-31G*
  Basis Set:

    Orbital Energies (a.u.)
    -----------------------

    Doubly Occupied:

       1A    -20.601393     2A    -20.569270     3A    -11.382685
       4A    -11.294896     5A     -1.470540     6A     -1.378882
       7A     -0.990926     8A     -0.826042     9A     -0.739360
      10A     -0.683827    11A     -0.668661    12A     -0.619289
      13A     -0.560766    14A     -0.517894    15A     -0.469194
      16A     -0.454889

  @DF-RHF Final Energy:  -227.77397456020810

   => Energetics <=

    Nuclear Repulsion Energy =            122.3475663066407577
    One-Electron Energy =                -553.7860506290609237
    Two-Electron Energy =                 203.6645097622121057
    DFT Exchange-Correlation Energy =       0.0000000000000000
    Empirical Dispersion Energy =           0.0000000000000000
    PCM Polarization Energy =               0.0000000000000000
    EFP Energy =                            0.0000000000000000
    Total Energy =                       -227.7739745602080461
    Molecular point group: c1
  Basis Set: 6-31G*
  Basis Set:

  -Total Gradient:
     Atom            X                  Y                   Z
    ------   -----------------  -----------------  -----------------
       1       -0.000011758731     0.000026442533     0.000003903366
       2        0.003263006338     0.004914446173    -0.004028132822
       3       -0.004612775383    -0.007108101864     0.010770518677
       4        0.000006843216    -0.000010098278    -0.000018813604
       5        0.000005168974    -0.000023592446    -0.000022538711
       6        0.000827036952     0.001719892405    -0.015999571843
       7        0.000531643822     0.000476679986     0.009293432344
       8       -0.000009165187     0.000004331491     0.000001202592

  **** Optimization is complete! (in 6 steps) ****
    Final optimized geometry and variables:
    Molecular point group: c1

    Geometry (in Angstrom), charge = 0, multiplicity = 1:

    H            1.794492246299    -1.551953807406    -0.584415186310
    C            0.917393307588    -0.965993045401    -0.808034825512
    O            0.786731782117    -0.024538113384     0.244525551010
    H            0.048599736162    -1.606731189248    -0.859857989902
    H            1.056091536404    -0.452377139663    -1.751814576527
    C           -0.314760079096     0.728981623865     0.266069954353
    O           -1.416970635222     0.317272441398     0.344515243072
    H           -0.072286177779     1.787210310968     0.300665767758

  Mulliken Charges: (a.u.)
   Center  Symbol    Alpha    Beta     Spin     Total
       1     H     0.40282  0.40282  0.00000  0.19436
       2     C     3.09520  3.09520  0.00000 -0.19041
       3     O     4.29553  4.29553  0.00000 -0.59107
       4     H     0.40318  0.40318  0.00000  0.19363
       5     H     0.41642  0.41642  0.00000  0.16715
       6     C     2.73048  2.73048  0.00000  0.53904
       7     O     4.23848  4.23848  0.00000 -0.47696
       8     H     0.41787  0.41787  0.00000  0.16425

   Total alpha = 16.00000, Total beta = 16.00000, Total charge =  0.00000
