  ==> Input File <==

--------------------------------------------------------------------------
set {
	reference rhf
	basis 6-31G*
}

set_num_threads( 1 )
memory 2 gb

molecule MOL {
0 1

H	 -3.420663	 1.227371	 -1.044276
O	 -3.452007	 0.283848	 -0.965577
C	 -3.181085	 -0.079926	 0.364119
C	 -1.765924	 0.277073	 0.805136
H	 -3.327791	 -1.152017	 0.410903
H	 -3.905698	 0.375695	 1.036898
C	 -0.747467	 0.256024	 -0.335398
H	 -1.777340	 1.263609	 1.269442
H	 -1.463967	 -0.420761	 1.584283
C	 0.664636	 0.637577	 0.113558
H	 -1.077163	 0.929818	 -1.120262
H	 -0.729306	 -0.739528	 -0.775784
C	 1.679630	 0.608503	 -1.032316
H	 0.637833	 1.628246	 0.561081
H	 0.991438	 -0.043287	 0.898561
C	 3.126321	 0.897388	 -0.615437
H	 1.378110	 1.321658	 -1.797947
H	 1.645543	 -0.372175	 -1.502342
C	 3.368687	 2.318197	 -0.102634
H	 3.772921	 0.721454	 -1.471735
H	 3.430901	 0.181873	 0.145792
H	 3.061293	 3.056231	 -0.838809
H	 4.422309	 2.478744	 0.104588
H	 2.823520	 2.518129	 0.813873

	symmetry c1
}
set optking {
	frozen_dihedral = ("
		20 16 13 17,
		17 13 10 7,
		13 10 7 11,
		11 7 4 3,
		1 2 3 5
	")
}

ee = energy('scf')
oeprop('DIPOLE', 'QUADRUPOLE', 'MULLIKEN_CHARGES')
f=open( 'psi4out.xyz', 'w' )
f.write( "24  " )
f.write( str(ee) + "\n" )
f.write( MOL.save_string_xyz() )
f.close()
--------------------------------------------------------------------------

    Molecular point group: c1

    Geometry (in Angstrom), charge = 0, multiplicity = 1:

       Center              X                  Y                   Z               Mass
    ------------   -----------------  -----------------  -----------------  -----------------
           H         -3.326239425490     0.567754475352    -0.813314951030     1.007825032070
           O         -3.357583425490    -0.375768524648    -0.734615951030    15.994914619560
           C         -3.086661425490    -0.739542524648     0.595080048970    12.000000000000
           C         -1.671500425490    -0.382543524648     1.036097048970    12.000000000000
           H         -3.233367425490    -1.811633524648     0.641864048970     1.007825032070
           H         -3.811274425490    -0.283921524648     1.267859048970     1.007825032070
           C         -0.653043425490    -0.403592524648    -0.104436951030    12.000000000000
           H         -1.682916425490     0.603992475352     1.500403048970     1.007825032070
           H         -1.369543425490    -1.080377524648     1.815244048970     1.007825032070
           C          0.759059574510    -0.022039524648     0.344519048970    12.000000000000
           H         -0.982739425490     0.270201475352    -0.889300951030     1.007825032070
           H         -0.634882425490    -1.399144524648    -0.544822951030     1.007825032070
           C          1.774053574510    -0.051113524648    -0.801354951030    12.000000000000
           H          0.732256574510     0.968629475352     0.792042048970     1.007825032070
           H          1.085861574510    -0.702903524648     1.129522048970     1.007825032070
           C          3.220744574510     0.237771475352    -0.384475951030    12.000000000000
           H          1.472533574510     0.662041475352    -1.566985951030     1.007825032070
           H          1.739966574510    -1.031791524648    -1.271380951030     1.007825032070
           C          3.463110574510     1.658580475352     0.128327048970    12.000000000000
           H          3.867344574510     0.061837475352    -1.240773951030     1.007825032070
           H          3.525324574510    -0.477743524648     0.376753048970     1.007825032070
           H          3.155716574510     2.396614475352    -0.607847951030     1.007825032070
           H          4.516732574510     1.819127475352     0.335549048970     1.007825032070
           H          2.917943574510     1.858512475352     1.044834048970     1.007825032070

  Charge       = 0
  Multiplicity = 1
  Basis Set: 6-31G*
  Basis Set:

    Orbital Energies (a.u.)
    -----------------------

    Doubly Occupied:

       1A    -20.553758     2A    -11.267282     3A    -11.215877
       4A    -11.214043     5A    -11.212179     6A    -11.211668
       7A    -11.211319     8A    -11.207506     9A     -1.361077
      10A     -1.088018    11A     -1.047500    12A     -0.985891
      13A     -0.916709    14A     -0.851432    15A     -0.795663
      16A     -0.776276    17A     -0.682817    18A     -0.652086
      19A     -0.627387    20A     -0.617932    21A     -0.598272
      22A     -0.587050    23A     -0.555154    24A     -0.544490
      25A     -0.511883    26A     -0.507348    27A     -0.501258
      28A     -0.474004    29A     -0.460855    30A     -0.459763
      31A     -0.452484    32A     -0.450130    33A     -0.422377

  @DF-RHF Final Energy:  -349.24294606338367

   => Energetics <=

    Nuclear Repulsion Energy =            386.3724401810604832
    One-Electron Energy =               -1239.1877950516472993
    Two-Electron Energy =                 503.5724088072029190
    DFT Exchange-Correlation Energy =       0.0000000000000000
    Empirical Dispersion Energy =           0.0000000000000000
    PCM Polarization Energy =               0.0000000000000000
    EFP Energy =                            0.0000000000000000
    Total Energy =                       -349.2429460633838971

  Mulliken Charges: (a.u.)
   Center  Symbol    Alpha    Beta     Spin     Total
       1     H     0.28312  0.28312  0.00000  0.43376
       2     O     4.36737  4.36737  0.00000 -0.73473
       3     C     2.99303  2.99303  0.00000  0.01394
       4     C     3.18166  3.18166  0.00000 -0.36332
       5     H     0.41566  0.41566  0.00000  0.16868
       6     H     0.42781  0.42781  0.00000  0.14439
       7     C     3.14283  3.14283  0.00000 -0.28567
       8     H     0.42553  0.42553  0.00000  0.14894
       9     H     0.41926  0.41926  0.00000  0.16149
      10     C     3.15407  3.15407  0.00000 -0.30814
      11     H     0.42271  0.42271  0.00000  0.15459
      12     H     0.41948  0.41948  0.00000  0.16103
      13     C     3.15207  3.15207  0.00000 -0.30414
      14     H     0.42365  0.42365  0.00000  0.15271
      15     H     0.42512  0.42512  0.00000  0.14977
      16     C     3.15225  3.15225  0.00000 -0.30450
      17     H     0.42461  0.42461  0.00000  0.15079
      18     H     0.42147  0.42147  0.00000  0.15705
      19     C     3.24103  3.24103  0.00000 -0.48206
      20     H     0.42108  0.42108  0.00000  0.15784
      21     H     0.42359  0.42359  0.00000  0.15281
      22     H     0.42268  0.42268  0.00000  0.15464
      23     H     0.41950  0.41950  0.00000  0.16101
      24     H     0.42044  0.42044  0.00000  0.15911

   Total alpha = 33.00000, Total beta = 33.00000, Total charge = -0.00000
