  ==> Input File <==

--------------------------------------------------------------------------
set {
	reference rhf
	basis cc-pvtz
}

set_num_threads( 4 )
memory 2 gb

molecule MOL {
0 1

H	 -3.642953	 0.223825	 0.000000
C	 -2.571844	 0.155001	 0.000000
C	 -1.957580	 -1.086132	 0.000000
C	 -1.807160	 1.303787	 0.000000
H	 -2.551493	 -1.979629	 0.000000
C	 -0.582719	 -1.174294	 0.000000
H	 -2.279934	 2.266806	 0.000000
C	 -0.427220	 1.213406	 0.000000
H	 -0.094904	 -2.127556	 0.000000
C	 0.196908	 -0.024061	 0.000000
H	 0.151409	 2.115254	 0.000000
C	 1.690041	 -0.173233	 0.000000
C	 2.521426	 0.760761	 -0.849183
O	 2.213053	 -1.014535	 0.658811
H	 2.251820	 0.671055	 -1.894767
H	 3.561319	 0.505194	 -0.722542
H	 2.363717	 1.791088	 -0.553319

	symmetry c1
}
set optking {
	frozen_dihedral = ("
		13 12 10 8
	")
}

ee = optimize('scf')
oeprop('DIPOLE', 'QUADRUPOLE', 'MULLIKEN_CHARGES')
f=open( 'psi4out.xyz', 'w' )
f.write( "17  " )
f.write( str(ee) + "\n" )
f.write( MOL.save_string_xyz() )
f.close()
--------------------------------------------------------------------------

    Molecular point group: c1
  Charge       = 0
  Multiplicity = 1
  Basis Set: CC-PVTZ
  Basis Set:
  @DF-RHF Final Energy:  -382.60234632840513
    Total Energy =                       -382.6023463284052468
    Molecular point group: c1
  Basis Set: CC-PVTZ
  Basis Set:
  Basis Set: CC-PVTZ
  Basis Set:
  @DF-RHF Final Energy:  -382.60104714405725
    Total Energy =                       -382.6010471440570200
  Basis Set: CC-PVTZ
  Basis Set:
  Basis Set: CC-PVTZ
  Basis Set:
  @DF-RHF Final Energy:  -382.60288912859869
    Total Energy =                       -382.6028891285992586
  Basis Set: CC-PVTZ
  Basis Set:
  Basis Set: CC-PVTZ
  Basis Set:
  @DF-RHF Final Energy:  -382.60296163624099
    Total Energy =                       -382.6029616362407069
  Basis Set: CC-PVTZ
  Basis Set:
  Basis Set: CC-PVTZ
  Basis Set:
  @DF-RHF Final Energy:  -382.60296331436331
    Total Energy =                       -382.6029633143634783
  Basis Set: CC-PVTZ
  Basis Set:
  Charge       = 0
  Multiplicity = 1
  Basis Set: CC-PVTZ
  Basis Set:

    Orbital Energies (a.u.)
    -----------------------

    Doubly Occupied:

       1A    -20.542771     2A    -11.328486     3A    -11.245859
       4A    -11.243734     5A    -11.242322     6A    -11.239633
       7A    -11.239045     8A    -11.237156     9A    -11.229739
      10A     -1.403654    11A     -1.171159    12A     -1.053396
      13A     -1.030445    14A     -0.999829    15A     -0.863971
      16A     -0.839942    17A     -0.764226    18A     -0.710666
      19A     -0.661397    20A     -0.651394    21A     -0.627649
      22A     -0.618737    23A     -0.603261    24A     -0.593921
      25A     -0.559258    26A     -0.530900    27A     -0.518324
      28A     -0.505383    29A     -0.496722    30A     -0.414624
      31A     -0.349967    32A     -0.346846

  @DF-RHF Final Energy:  -382.60296381872837

   => Energetics <=

    Nuclear Repulsion Energy =            404.2328913419991636
    One-Electron Energy =               -1319.9428786082610259
    Two-Electron Energy =                 533.1070234475332654
    DFT Exchange-Correlation Energy =       0.0000000000000000
    Empirical Dispersion Energy =           0.0000000000000000
    PCM Polarization Energy =               0.0000000000000000
    EFP Energy =                            0.0000000000000000
    Total Energy =                       -382.6029638187285400
    Molecular point group: c1
  Basis Set: CC-PVTZ
  Basis Set:

  -Total Gradient:
     Atom            X                  Y                   Z
    ------   -----------------  -----------------  -----------------
       1       -0.000001848202    -0.000001386867     0.000008094343
       2        0.000013489217     0.000022760240    -0.000009287420
       3        0.000026379597    -0.000015494224     0.000004203922
       4       -0.000028011920     0.000002443007    -0.000016392145
       5       -0.000000408488     0.000002751166     0.000002935785
       6       -0.000033743773    -0.000014410998     0.000011032136
       7        0.000000246017    -0.000002918609    -0.000003449503
       8       -0.000074693594    -0.000035378288     0.003372704596
       9        0.000003135203     0.000012587154    -0.000007122168
      10        0.000117428020    -0.000809048412    -0.006077193933
      11       -0.000017144402    -0.000012266939     0.000007352883
      12        0.000143565522     0.002686011414     0.004970811378
      13       -0.000120930473    -0.001815747603    -0.002166504069
      14       -0.000016906287     0.000039270819    -0.000018546551
      15        0.000010594358    -0.000027172668    -0.000041532737
      16       -0.000014169814    -0.000008413444    -0.000014206043
      17       -0.000006980978    -0.000023585750    -0.000022900475

  **** Optimization is complete! (in 6 steps) ****
    Final optimized geometry and variables:
    Molecular point group: c1

    Geometry (in Angstrom), charge = 0, multiplicity = 1:

    H           -3.638798649922     0.238229919603     0.049337668549
    C           -2.567927794626     0.167998936000     0.036553235193
    C           -1.955180618493    -1.073061528754     0.044552227935
    C           -1.800945619851     1.315655570014     0.018032011100
    H           -2.549791882285    -1.965991942958     0.063926302789
    C           -0.579271135539    -1.163229186928     0.040906173348
    H           -2.272250900077     2.279504398637     0.025215387017
    C           -0.421455539403     1.224154468003    -0.009202951228
    H           -0.095324280289    -2.118814969368     0.074144625229
    C            0.198253957760    -0.014570929668    -0.004557502703
    H            0.161895721839     2.123880197068    -0.025502211179
    C            1.692243663860    -0.159945697594     0.035255503960
    C            2.527084573917     0.793462550304    -0.787495129421
    O            2.194431232826    -1.047379844033     0.645602283504
    H            2.212643135600     0.752220809803    -1.823811453846
    H            3.565737517812     0.513797834365    -0.704897804036
    H            2.404187849194     1.815881749114    -0.451433258693

  Mulliken Charges: (a.u.)
   Center  Symbol    Alpha    Beta     Spin     Total
       1     H     0.42073  0.42073  0.00000  0.15853
       2     C     3.07747  3.07747  0.00000 -0.15494
       3     C     3.06921  3.06921  0.00000 -0.13843
       4     C     3.07062  3.07062  0.00000 -0.14124
       5     H     0.42074  0.42074  0.00000  0.15852
       6     C     3.08298  3.08298  0.00000 -0.16597
       7     H     0.42180  0.42180  0.00000  0.15641
       8     C     3.09018  3.09018  0.00000 -0.18036
       9     H     0.41221  0.41221  0.00000  0.17558
      10     C     2.98839  2.98839  0.00000  0.02322
      11     H     0.42356  0.42356  0.00000  0.15287
      12     C     2.86017  2.86017  0.00000  0.27966
      13     C     3.15693  3.15693  0.00000 -0.31386
      14     O     4.17447  4.17447  0.00000 -0.34894
      15     H     0.44512  0.44512  0.00000  0.10976
      16     H     0.43412  0.43412  0.00000  0.13177
      17     H     0.45130  0.45130  0.00000  0.09741

   Total alpha = 32.00000, Total beta = 32.00000, Total charge = -0.00000
