  ==> Input File <==

--------------------------------------------------------------------------
set {
	reference rhf
	basis 6-31G*
}

set_num_threads( 1 )
memory 2 gb

molecule MOL {
0 1

H	 -2.211281	 0.871627	 2.256625
C	 -1.621773	 0.445478	 3.065957
O	 -0.386688	 -0.006578	 2.612583
H	 -1.436936	 1.212179	 3.805651
H	 -2.197337	 -0.356178	 3.526937
C	 -0.464942	 -1.010795	 1.650983
C	 0.924820	 -1.340513	 1.158994
H	 -0.916621	 -1.907657	 2.076799
H	 -1.077478	 -0.693907	 0.809327
O	 1.392611	 -0.295398	 0.366430
H	 1.579018	 -1.501047	 2.013547
H	 0.890922	 -2.266049	 0.582863
C	 2.706965	 -0.449871	 -0.062409
H	 2.756559	 -0.644779	 -1.131878
H	 3.305899	 0.433456	 0.155466
H	 3.125548	 -1.294566	 0.467107

	symmetry c1
}
set optking {
	frozen_dihedral = ("
		3 6 7 11,
		2 3 6 7
	")
}

ee = energy('scf')
oeprop('DIPOLE', 'QUADRUPOLE', 'MULLIKEN_CHARGES')
f=open( 'psi4out.xyz', 'w' )
f.write( "16  " )
f.write( str(ee) + "\n" )
f.write( MOL.save_string_xyz() )
f.close()
--------------------------------------------------------------------------

    Molecular point group: c1

    Geometry (in Angstrom), charge = 0, multiplicity = 1:

       Center              X                  Y                   Z               Mass
    ------------   -----------------  -----------------  -----------------  -----------------
           H         -2.638498544241     1.307891583226     0.790092630015     1.007825032070
           C         -2.048990544241     0.881742583226     1.599424630015    12.000000000000
           O         -0.813905544241     0.429686583226     1.146050630015    15.994914619560
           H         -1.864153544241     1.648443583226     2.339118630015     1.007825032070
           H         -2.624554544241     0.080086583226     2.060404630015     1.007825032070
           C         -0.892159544241    -0.574530416774     0.184450630015    12.000000000000
           C          0.497602455759    -0.904248416774    -0.307538369985    12.000000000000
           H         -1.343838544241    -1.471392416774     0.610266630015     1.007825032070
           H         -1.504695544241    -0.257642416774    -0.657205369985     1.007825032070
           O          0.965393455759     0.140866583226    -1.100102369985    15.994914619560
           H          1.151800455759    -1.064782416774     0.547014630015     1.007825032070
           H          0.463704455759    -1.829784416774    -0.883669369985     1.007825032070
           C          2.279747455759    -0.013606416774    -1.528941369985    12.000000000000
           H          2.329341455759    -0.208514416774    -2.598410369985     1.007825032070
           H          2.878681455759     0.869720583226    -1.311066369985     1.007825032070
           H          2.698330455759    -0.858301416774    -0.999425369985     1.007825032070

  Charge       = 0
  Multiplicity = 1
  Basis Set: 6-31G*
  Basis Set:

    Orbital Energies (a.u.)
    -----------------------

    Doubly Occupied:

       1A    -20.553526     2A    -20.550214     3A    -11.269861
       4A    -11.268507     5A    -11.263475     6A    -11.262914
       7A     -1.387759     8A     -1.370084     9A     -1.030336
      10A     -0.935082    11A     -0.892583    12A     -0.825821
      13A     -0.682778    14A     -0.679249    15A     -0.659003
      16A     -0.634269    17A     -0.627533    18A     -0.598331
      19A     -0.553822    20A     -0.536856    21A     -0.507285
      22A     -0.476715    23A     -0.463308    24A     -0.417977
      25A     -0.407571

  @DF-RHF Final Energy:  -306.97264515223031

   => Energetics <=

    Nuclear Repulsion Energy =            258.9301394146373809
    One-Electron Energy =                -932.0957608693221346
    Two-Electron Energy =                 366.1929763024548379
    DFT Exchange-Correlation Energy =       0.0000000000000000
    Empirical Dispersion Energy =           0.0000000000000000
    PCM Polarization Energy =               0.0000000000000000
    EFP Energy =                            0.0000000000000000
    Total Energy =                       -306.9726451522298589

  Mulliken Charges: (a.u.)
   Center  Symbol    Alpha    Beta     Spin     Total
       1     H     0.42801  0.42801  0.00000  0.14398
       2     C     3.07949  3.07949  0.00000 -0.15898
       3     O     4.30088  4.30088  0.00000 -0.60175
       4     H     0.41131  0.41131  0.00000  0.17737
       5     H     0.43193  0.43193  0.00000  0.13613
       6     C     2.99322  2.99322  0.00000  0.01355
       7     C     2.99619  2.99619  0.00000  0.00761
       8     H     0.43236  0.43236  0.00000  0.13529
       9     H     0.42254  0.42254  0.00000  0.15491
      10     O     4.30335  4.30335  0.00000 -0.60669
      11     H     0.42142  0.42142  0.00000  0.15716
      12     H     0.43183  0.43183  0.00000  0.13635
      13     C     3.07462  3.07462  0.00000 -0.14924
      14     H     0.42414  0.42414  0.00000  0.15173
      15     H     0.41752  0.41752  0.00000  0.16496
      16     H     0.43118  0.43118  0.00000  0.13764

   Total alpha = 25.00000, Total beta = 25.00000, Total charge =  0.00000
