  ==> Input File <==

--------------------------------------------------------------------------
set {
	reference rhf
	basis 6-31G*
}

set_num_threads( 1 )
memory 2 gb

molecule MOL {
0 1

H	 -3.161837	 0.500524	 -0.000234
C	 -2.367097	 -0.232926	 -0.000000
O	 -1.158440	 0.455814	 -0.000122
H	 -2.468853	 -0.861886	 -0.882833
H	 -2.468942	 -0.861421	 0.883154
C	 -0.029776	 -0.365156	 0.000148
C	 1.212217	 0.508981	 0.000007
H	 -0.036772	 -1.013236	 -0.877259
H	 -0.036869	 -1.012778	 0.877897
C	 2.467646	 -0.259444	 -0.410238
H	 1.045986	 1.343122	 -0.674706
H	 1.337426	 0.929448	 0.993098
H	 2.372394	 -0.668420	 -1.412281
H	 3.338101	 0.387915	 -0.401239
H	 2.665572	 -1.085595	 0.267038

	symmetry c1
}
set optking {
	frozen_dihedral = ("
		6 3 2 4,
		8 6 3 2
	")
}

ee = energy('scf')
oeprop('DIPOLE', 'QUADRUPOLE', 'MULLIKEN_CHARGES')
f=open( 'psi4out.xyz', 'w' )
f.write( "15  " )
f.write( str(ee) + "\n" )
f.write( MOL.save_string_xyz() )
f.close()
--------------------------------------------------------------------------

    Molecular point group: c1

    Geometry (in Angstrom), charge = 0, multiplicity = 1:

       Center              X                  Y                   Z               Mass
    ------------   -----------------  -----------------  -----------------  -----------------
           H         -3.154724765125     0.490432488059     0.082925894073     1.007825032070
           C         -2.359984765125    -0.243017511941     0.083159894073    12.000000000000
           O         -1.151327765125     0.445722488059     0.083037894073    15.994914619560
           H         -2.461740765125    -0.871977511941    -0.799673105927     1.007825032070
           H         -2.461829765125    -0.871512511941     0.966313894073     1.007825032070
           C         -0.022663765125    -0.375247511941     0.083307894073    12.000000000000
           C          1.219329234875     0.498889488059     0.083166894073    12.000000000000
           H         -0.029659765125    -1.023327511941    -0.794099105927     1.007825032070
           H         -0.029756765125    -1.022869511941     0.961056894073     1.007825032070
           C          2.474758234875    -0.269535511941    -0.327078105927    12.000000000000
           H          1.053098234875     1.333030488059    -0.591546105927     1.007825032070
           H          1.344538234875     0.919356488059     1.076257894073     1.007825032070
           H          2.379506234875    -0.678511511941    -1.329121105927     1.007825032070
           H          3.345213234875     0.377823488059    -0.318079105927     1.007825032070
           H          2.672684234875    -1.095686511941     0.350197894073     1.007825032070

  Charge       = 0
  Multiplicity = 1
  Basis Set: 6-31G*
  Basis Set:

    Orbital Energies (a.u.)
    -----------------------

    Doubly Occupied:

       1A    -20.553476     2A    -11.266004     3A    -11.263903
       4A    -11.213868     5A    -11.212681     6A     -1.378398
       7A     -1.057151     8A     -0.955165     9A     -0.877402
      10A     -0.809024    11A     -0.674499    12A     -0.654445
      13A     -0.630556    14A     -0.606135    15A     -0.566203
      16A     -0.541725    17A     -0.501510    18A     -0.489006
      19A     -0.477968    20A     -0.461601    21A     -0.413398

  @DF-RHF Final Energy:  -232.13830288917080

   => Energetics <=

    Nuclear Repulsion Energy =            189.8130139692257785
    One-Electron Energy =                -690.6944226987957336
    Two-Electron Energy =                 268.7431058403991528
    DFT Exchange-Correlation Energy =       0.0000000000000000
    Empirical Dispersion Energy =           0.0000000000000000
    PCM Polarization Energy =               0.0000000000000000
    EFP Energy =                            0.0000000000000000
    Total Energy =                       -232.1383028891708022

  Mulliken Charges: (a.u.)
   Center  Symbol    Alpha    Beta     Spin     Total
       1     H     0.41219  0.41219  0.00000  0.17561
       2     C     3.07942  3.07942  0.00000 -0.15884
       3     O     4.30564  4.30564  0.00000 -0.61129
       4     H     0.43039  0.43039  0.00000  0.13923
       5     H     0.43048  0.43048  0.00000  0.13904
       6     C     2.98221  2.98221  0.00000  0.03557
       7     C     3.16102  3.16102  0.00000 -0.32205
       8     H     0.43344  0.43344  0.00000  0.13312
       9     H     0.43256  0.43256  0.00000  0.13489
      10     C     3.24773  3.24773  0.00000 -0.49547
      11     H     0.41086  0.41086  0.00000  0.17829
      12     H     0.41657  0.41657  0.00000  0.16687
      13     H     0.41997  0.41997  0.00000  0.16006
      14     H     0.41587  0.41587  0.00000  0.16825
      15     H     0.42164  0.42164  0.00000  0.15672

   Total alpha = 21.00000, Total beta = 21.00000, Total charge = -0.00000
