                              Psi4 1.0.54 Driver

  ==> Input File <==

--------------------------------------------------------------------------
set {
	reference rhf
	basis cc-pvtz
}

set_num_threads( 4 )
memory 2 gb

molecule MOL {
0 1

O	 -2.071633	 -1.227563	 -0.223463
C	 -1.652164	 -0.152425	 0.058082
C	 -0.327811	 0.006324	 0.778296
C	 -2.402515	 1.108629	 -0.298924
C	 0.773555	 -0.813491	 0.095419
H	 -0.041015	 1.052176	 0.810963
H	 -0.463602	 -0.341906	 1.794236
C	 2.120587	 -0.694468	 0.802220
H	 0.882848	 -0.494062	 -0.937884
H	 0.465825	 -1.853155	 0.067750
C	 3.216075	 -1.518127	 0.133899
H	 2.420819	 0.349311	 0.832390
H	 2.010037	 -1.010858	 1.835281
H	 3.374500	 -1.201162	 -0.891513
H	 2.958024	 -2.571459	 0.117466
H	 4.157794	 -1.416234	 0.660383
H	 -3.240910	 0.874416	 -0.936711
H	 -1.747554	 1.818823	 -0.790984
H	 -2.760419	 1.579708	 0.610998

	symmetry c1
}
set optking {
	frozen_dihedral = ("
		5 3 2 4
	")
}

ee,wfn = optimize('scf', return_wfn=True)
oeprop( wfn, 'DIPOLE', 'QUADRUPOLE', 'MULLIKEN_CHARGES')
f=open( 'psi4out.xyz', 'w' )
f.write( "19  " )
f.write( str(ee) + "\n" )
f.write( MOL.save_string_xyz() )
f.close()
--------------------------------------------------------------------------

    Molecular point group: c1
  Charge       = 0
  Multiplicity = 1
  Basis Set: CC-PVTZ
  Basis Set:
  @DF-RHF Final Energy:  -309.17691082756232
    Total Energy =                       -309.1769108275624376
    Molecular point group: c1
  Basis Set: CC-PVTZ
  Basis Set:
  Basis Set: CC-PVTZ
  Basis Set:
  @DF-RHF Final Energy:  -309.17514819308241
    Total Energy =                       -309.1751481930826344
  Basis Set: CC-PVTZ
  Basis Set:
  Basis Set: CC-PVTZ
  Basis Set:
  @DF-RHF Final Energy:  -309.17722808482114
    Total Energy =                       -309.1772280848210244
  Basis Set: CC-PVTZ
  Basis Set:
  Basis Set: CC-PVTZ
  Basis Set:
  @DF-RHF Final Energy:  -309.17736641061259
    Total Energy =                       -309.1773664106127626
  Basis Set: CC-PVTZ
  Basis Set:
  @DF-RHF Final Energy:  -309.17734885727577
    Total Energy =                       -309.1773488572758879
  Basis Set: CC-PVTZ
  Basis Set:
  @DF-RHF Final Energy:  -309.17740355046419
    Total Energy =                       -309.1774035504641915
  Basis Set: CC-PVTZ
  Basis Set:
  Basis Set: CC-PVTZ
  Basis Set:
  @DF-RHF Final Energy:  -309.17740132901474
    Total Energy =                       -309.1774013290149128
  Basis Set: CC-PVTZ
  Basis Set:
  Basis Set: CC-PVTZ
  Basis Set:
  @DF-RHF Final Energy:  -309.17741289440534
    Total Energy =                       -309.1774128944051654
  Basis Set: CC-PVTZ
  Basis Set:
  Charge       = 0
  Multiplicity = 1
  Basis Set: CC-PVTZ
  Basis Set:

    Orbital Energies (a.u.)
    -----------------------

    Doubly Occupied:

       1A    -20.537334     2A    -11.320625     3A    -11.228937
       4A    -11.227609     5A    -11.221233     6A    -11.219537
       7A    -11.210079     8A     -1.398061     9A     -1.088733
      10A     -1.030153    11A     -0.985364    12A     -0.888034
      13A     -0.803717    14A     -0.733315    15A     -0.662277
      16A     -0.649038    17A     -0.625346    18A     -0.613378
      19A     -0.583159    20A     -0.573655    21A     -0.554175
      22A     -0.534766    23A     -0.515868    24A     -0.493551
      25A     -0.477872    26A     -0.474682    27A     -0.469121
      28A     -0.400051

  @DF-RHF Final Energy:  -309.17741300548897

   => Energetics <=

    Nuclear Repulsion Energy =            301.4488481873317482
    One-Electron Energy =               -1016.2131843224567547
    Two-Electron Energy =                 405.5869231296359771
    DFT Exchange-Correlation Energy =       0.0000000000000000
    Empirical Dispersion Energy =           0.0000000000000000
    PCM Polarization Energy =               0.0000000000000000
    EFP Energy =                            0.0000000000000000
    Total Energy =                       -309.1774130054889724
    Molecular point group: c1
  Basis Set: CC-PVTZ
  Basis Set:

  -Total Gradient:
     Atom            X                  Y                   Z
    ------   -----------------  -----------------  -----------------
       1        0.000014716378     0.000016144882     0.000010674258
       2       -0.000381733599     0.000125383429     0.000628608410
       3       -0.000027683894    -0.000616990013     0.000226383478
       4        0.000283697017     0.000023191056    -0.000542607531
       5        0.000108693090     0.000454043711    -0.000341713085
       6       -0.000001797701    -0.000003538053    -0.000000464410
       7       -0.000003871017     0.000002541459     0.000002373665
       8        0.000010600120     0.000002092878     0.000000213918
       9       -0.000003667544    -0.000000479355    -0.000002820891
      10       -0.000001877413     0.000000892268    -0.000002544256
      11       -0.000004463473    -0.000000128976     0.000007177743
      12        0.000003428286    -0.000001240470     0.000000480752
      13        0.000005017115     0.000000976076    -0.000000484214
      14       -0.000002163326     0.000001054573     0.000004059786
      15        0.000000613438     0.000000749001    -0.000001353730
      16       -0.000000273322    -0.000001696806     0.000000043733
      17        0.000006133513     0.000001134278     0.000005785803
      18       -0.000003046310    -0.000001773712     0.000003644534
      19       -0.000002321367    -0.000002356228     0.000002542037

  **** Optimization is complete! (in 9 steps) ****
    Final optimized geometry and variables:
    Molecular point group: c1

    Geometry (in Angstrom), charge = 0, multiplicity = 1:

    O           -2.058101710147    -0.737132106018    -0.386756547525
    C           -1.612347066967     0.337805489628    -0.149030503461
    C           -0.273984618553     0.494758937303     0.552669983281
    C           -2.347021401324     1.600562438043    -0.526182468521
    C            0.830099312621    -0.340991993393    -0.094364315842
    H            0.011604845912     1.540237570833     0.584518170794
    H           -0.423141558400     0.175383211393     1.580502288676
    C            2.157771737588    -0.244454867188     0.650963771468
    H            0.969628832838    -0.015944687750    -1.122306398051
    H            0.504890775691    -1.372738076164    -0.139932211099
    C            3.262755748963    -1.071189158740     0.002277148228
    H            2.470131641954     0.795117234610     0.704472161506
    H            2.016583772054    -0.573505197951     1.676821015058
    H            3.452218426466    -0.742379707762    -1.014052229798
    H            2.993270853448    -2.121057154277    -0.036039159383
    H            4.191005393376    -0.987125931227     0.555389609598
    H           -3.297898983254     1.359580183819    -0.975876256467
    H           -1.745652237546     2.176027092095    -1.222595532397
    H           -2.498406595703     2.219683434815     0.351856008522

  Mulliken Charges: (a.u.)
   Center  Symbol    Alpha    Beta     Spin     Total
       1     O     4.17544  4.17544  0.00000 -0.35088
       2     C     2.85873  2.85873  0.00000  0.28255
       3     C     3.10463  3.10463  0.00000 -0.20925
       4     C     3.15302  3.15302  0.00000 -0.30604
       5     C     3.08884  3.08884  0.00000 -0.17769
       6     H     0.44731  0.44731  0.00000  0.10539
       7     H     0.44334  0.44334  0.00000  0.11332
       8     C     3.08545  3.08545  0.00000 -0.17091
       9     H     0.45427  0.45427  0.00000  0.09145
      10     H     0.43855  0.43855  0.00000  0.12290
      11     C     3.14946  3.14946  0.00000 -0.29891
      12     H     0.45534  0.45534  0.00000  0.08932
      13     H     0.45346  0.45346  0.00000  0.09308
      14     H     0.45495  0.45495  0.00000  0.09009
      15     H     0.45281  0.45281  0.00000  0.09437
      16     H     0.44822  0.44822  0.00000  0.10355
      17     H     0.43642  0.43642  0.00000  0.12716
      18     H     0.45030  0.45030  0.00000  0.09941
      19     H     0.44946  0.44946  0.00000  0.10108

   Total alpha = 28.00000, Total beta = 28.00000, Total charge = -0.00000

*** Psi4 exiting successfully. Buy a developer a beer!
