  ==> Input File <==

--------------------------------------------------------------------------
set {
	reference rhf
	basis 6-31G*
}

set_num_threads( 1 )
memory 2 gb

molecule MOL {
0 1

H	 -3.420663	 1.227371	 -1.044276
O	 -3.452007	 0.283848	 -0.965577
C	 -3.181085	 -0.079926	 0.364119
C	 -1.765924	 0.277073	 0.805136
H	 -3.327791	 -1.152017	 0.410903
H	 -3.905698	 0.375695	 1.036898
C	 -0.677594	 -0.417312	 -0.014550
H	 -1.637766	 1.358238	 0.744969
H	 -1.659588	 0.017670	 1.857098
C	 0.738335	 -0.034840	 0.421385
H	 -0.814977	 -0.178223	 -1.064632
H	 -0.802730	 -1.495410	 0.071702
C	 1.822265	 -0.738362	 -0.399735
H	 0.853533	 1.043532	 0.342250
H	 0.871597	 -0.279636	 1.474438
C	 1.554485	 -0.786307	 -1.908427
H	 1.954246	 -1.752851	 -0.026790
H	 2.769557	 -0.229555	 -0.233696
C	 0.345666	 -1.632095	 -2.313153
H	 2.438052	 -1.183328	 -2.402364
H	 1.427867	 0.227322	 -2.283563
H	 0.438707	 -2.648761	 -1.940498
H	 0.256241	 -1.684366	 -3.393943
H	 -0.583328	 -1.223005	 -1.930033

	symmetry c1
}
set optking {
	frozen_dihedral = ("
		20 16 13 17,
		13 10 7 11,
		11 7 4 3,
		1 2 3 5,
		7 4 3 2
	")
}

ee = energy('scf')
oeprop('DIPOLE', 'QUADRUPOLE', 'MULLIKEN_CHARGES')
f=open( 'psi4out.xyz', 'w' )
f.write( "24  " )
f.write( str(ee) + "\n" )
f.write( MOL.save_string_xyz() )
f.close()
--------------------------------------------------------------------------

    Molecular point group: c1

    Geometry (in Angstrom), charge = 0, multiplicity = 1:

       Center              X                  Y                   Z               Mass
    ------------   -----------------  -----------------  -----------------  -----------------
           H         -2.780259188314     1.606613823072    -0.523830903986     1.007825032070
           O         -2.811603188314     0.663090823072    -0.445131903986    15.994914619560
           C         -2.540681188314     0.299316823072     0.884564096014    12.000000000000
           C         -1.125520188314     0.656315823072     1.325581096014    12.000000000000
           H         -2.687387188314    -0.772774176928     0.931348096014     1.007825032070
           H         -3.265294188314     0.754937823072     1.557343096014     1.007825032070
           C         -0.037190188314    -0.038069176928     0.505895096014    12.000000000000
           H         -0.997362188314     1.737480823072     1.265414096014     1.007825032070
           H         -1.019184188314     0.396912823072     2.377543096014     1.007825032070
           C          1.378738811686     0.344402823072     0.941830096014    12.000000000000
           H         -0.174573188314     0.201019823072    -0.544186903986     1.007825032070
           H         -0.162326188314    -1.116167176928     0.592147096014     1.007825032070
           C          2.462668811686    -0.359119176928     0.120710096014    12.000000000000
           H          1.493936811686     1.422774823072     0.862695096014     1.007825032070
           H          1.512000811686     0.099606823072     1.994883096014     1.007825032070
           C          2.194888811686    -0.407064176928    -1.387981903986    12.000000000000
           H          2.594649811686    -1.373608176928     0.493655096014     1.007825032070
           H          3.409960811686     0.149687823072     0.286749096014     1.007825032070
           C          0.986069811686    -1.252852176928    -1.792707903986    12.000000000000
           H          3.078455811686    -0.804085176928    -1.881918903986     1.007825032070
           H          2.068270811686     0.606564823072    -1.763117903986     1.007825032070
           H          1.079110811686    -2.269518176928    -1.420052903986     1.007825032070
           H          0.896644811686    -1.305123176928    -2.873497903986     1.007825032070
           H          0.057075811686    -0.843762176928    -1.409587903986     1.007825032070

  Charge       = 0
  Multiplicity = 1
  Basis Set: 6-31G*
  Basis Set:

    Orbital Energies (a.u.)
    -----------------------

    Doubly Occupied:

       1A    -20.554967     2A    -11.268067     3A    -11.216053
       4A    -11.213233     5A    -11.211976     6A    -11.211235
       7A    -11.207938     8A    -11.193462     9A     -1.361419
      10A     -1.094795    11A     -1.042023    12A     -0.981078
      13A     -0.927805    14A     -0.847733    15A     -0.801450
      16A     -0.773978    17A     -0.682786    18A     -0.662142
      19A     -0.624567    20A     -0.612063    21A     -0.601497
      22A     -0.586321    23A     -0.555534    24A     -0.542844
      25A     -0.523247    26A     -0.505668    27A     -0.497989
      28A     -0.473999    29A     -0.467615    30A     -0.458318
      31A     -0.454142    32A     -0.425710    33A     -0.416368

  @DF-RHF Final Energy:  -349.21523769288717

   => Energetics <=

    Nuclear Repulsion Energy =            403.9731032653852481
    One-Electron Energy =               -1274.3805752855669198
    Two-Electron Energy =                 521.1922343272942726
    DFT Exchange-Correlation Energy =       0.0000000000000000
    Empirical Dispersion Energy =           0.0000000000000000
    PCM Polarization Energy =               0.0000000000000000
    EFP Energy =                            0.0000000000000000
    Total Energy =                       -349.2152376928873991

  Mulliken Charges: (a.u.)
   Center  Symbol    Alpha    Beta     Spin     Total
       1     H     0.28312  0.28312  0.00000  0.43376
       2     O     4.36893  4.36893  0.00000 -0.73786
       3     C     2.99679  2.99679  0.00000  0.00642
       4     C     3.16555  3.16555  0.00000 -0.33111
       5     H     0.41652  0.41652  0.00000  0.16695
       6     H     0.42787  0.42787  0.00000  0.14426
       7     C     3.16607  3.16607  0.00000 -0.33214
       8     H     0.42903  0.42903  0.00000  0.14194
       9     H     0.42331  0.42331  0.00000  0.15339
      10     C     3.14888  3.14888  0.00000 -0.29776
      11     H     0.40654  0.40654  0.00000  0.18693
      12     H     0.42007  0.42007  0.00000  0.15986
      13     C     3.15336  3.15336  0.00000 -0.30671
      14     H     0.42453  0.42453  0.00000  0.15094
      15     H     0.42276  0.42276  0.00000  0.15447
      16     C     3.15837  3.15837  0.00000 -0.31675
      17     H     0.42382  0.42382  0.00000  0.15236
      18     H     0.42112  0.42112  0.00000  0.15776
      19     C     3.24468  3.24468  0.00000 -0.48936
      20     H     0.41945  0.41945  0.00000  0.16111
      21     H     0.42456  0.42456  0.00000  0.15088
      22     H     0.42441  0.42441  0.00000  0.15118
      23     H     0.42163  0.42163  0.00000  0.15675
      24     H     0.40863  0.40863  0.00000  0.18274

   Total alpha = 33.00000, Total beta = 33.00000, Total charge = -0.00000
