  ==> Input File <==

--------------------------------------------------------------------------
set {
	reference rhf
	basis 6-31G*
}

set_num_threads( 1 )
memory 2 gb

molecule MOL {
0 1

H	 -2.646374	 -0.642757	 1.268656
C	 -2.083525	 -0.384536	 0.393091
O	 -0.807605	 -0.127164	 0.768327
F	 -2.118945	 -1.383102	 -0.486752
F	 -2.621877	 0.670592	 -0.209486
C	 -0.307461	 -0.808120	 1.863243
C	 0.384720	 0.220286	 2.748356
Cl	 0.833558	 -2.064994	 1.357715
H	 -1.082379	 -1.283208	 2.439063
F	 0.877418	 -0.356389	 3.823919
F	 -0.503442	 1.114653	 3.133989
F	 1.353551	 0.841137	 2.120754

	symmetry c1
}
set optking {
	frozen_dihedral = ("
		10 7 6 9,
		9 6 3 2
	")
}

ee = energy('scf')
oeprop('DIPOLE', 'QUADRUPOLE', 'MULLIKEN_CHARGES')
f=open( 'psi4out.xyz', 'w' )
f.write( "12  " )
f.write( str(ee) + "\n" )
f.write( MOL.save_string_xyz() )
f.close()
--------------------------------------------------------------------------

    Molecular point group: c1

    Geometry (in Angstrom), charge = 0, multiplicity = 1:

       Center              X                  Y                   Z               Mass
    ------------   -----------------  -----------------  -----------------  -----------------
           H         -2.272131538181    -0.256803540505    -0.268608445856     1.007825032070
           C         -1.709282538181     0.001417459495    -1.144173445856    12.000000000000
           O         -0.433362538181     0.258789459495    -0.768937445856    15.994914619560
           F         -1.744702538181    -0.997148540505    -2.024016445856    18.998403224000
           F         -2.247634538181     1.056545459495    -1.746750445856    18.998403224000
           C          0.066781461819    -0.422166540505     0.325978554144    12.000000000000
           C          0.758962461819     0.606239459495     1.211091554144    12.000000000000
          CL          1.207800461819    -1.679040540505    -0.179549445856    34.968852682000
           H         -0.708136538181    -0.897254540505     0.901798554144     1.007825032070
           F          1.251660461819     0.029564459495     2.286654554144    18.998403224000
           F         -0.129199538181     1.500606459495     1.596724554144    18.998403224000
           F          1.727793461819     1.227090459495     0.583489554144    18.998403224000

  Charge       = 0
  Multiplicity = 1
  Basis Set: 6-31G*
  Basis Set:

    Orbital Energies (a.u.)
    -----------------------

    Doubly Occupied:

       1A   -104.850829     2A    -26.366767     3A    -26.366646
       4A    -26.362431     5A    -26.344238     6A    -26.338153
       7A    -20.652215     8A    -11.534518     9A    -11.491299
      10A    -11.412208    11A    -10.585506    12A     -8.054864
      13A     -8.051285    14A     -8.051199    15A     -1.767514
      16A     -1.709883    17A     -1.664224    18A     -1.662387
      19A     -1.631507    20A     -1.491599    21A     -1.185837
      22A     -1.055570    23A     -0.985322    24A     -0.935236
      25A     -0.860273    26A     -0.858711    27A     -0.849604
      28A     -0.825664    29A     -0.810048    30A     -0.789889
      31A     -0.733868    32A     -0.730122    33A     -0.701224
      34A     -0.689920    35A     -0.684956    36A     -0.679726
      37A     -0.664214    38A     -0.655541    39A     -0.653234
      40A     -0.637969    41A     -0.616794    42A     -0.566939
      43A     -0.525820    44A     -0.483345    45A     -0.476082

  @DF-RHF Final Energy: -1146.30633249406696

   => Energetics <=

    Nuclear Repulsion Energy =            725.3524456699597067
    One-Electron Energy =               -3033.2270660861686338
    Two-Electron Energy =                1161.5682879221415078
    DFT Exchange-Correlation Energy =       0.0000000000000000
    Empirical Dispersion Energy =           0.0000000000000000
    PCM Polarization Energy =               0.0000000000000000
    EFP Energy =                            0.0000000000000000
    Total Energy =                      -1146.3063324940674192

  Mulliken Charges: (a.u.)
   Center  Symbol    Alpha    Beta     Spin     Total
       1     H     0.42615  0.42615  0.00000  0.14769
       2     C     2.56311  2.56311  0.00000  0.87378
       3     O     4.29593  4.29593  0.00000 -0.59186
       4     F     4.67878  4.67878  0.00000 -0.35757
       5     F     4.67475  4.67475  0.00000 -0.34951
       6     C     3.04313  3.04313  0.00000 -0.08626
       7     C     2.43033  2.43033  0.00000  1.13934
       8    CL     8.49311  8.49311  0.00000  0.01379
       9     H     0.37759  0.37759  0.00000  0.24483
      10     F     4.67359  4.67359  0.00000 -0.34719
      11     F     4.67682  4.67682  0.00000 -0.35364
      12     F     4.66670  4.66670  0.00000 -0.33340

   Total alpha = 45.00000, Total beta = 45.00000, Total charge = -0.00000
