  ==> Input File <==

--------------------------------------------------------------------------
set {
	reference rhf
	basis 6-31G*
}

set_num_threads( 4 )
memory 2 gb

molecule MOL {
0 1

O	 -2.042549	 -1.228399	 -0.269030
C	 -1.653912	 -0.146171	 0.050137
C	 -0.332303	 0.024011	 0.778412
C	 -2.438579	 1.106236	 -0.272369
C	 0.845713	 -0.001731	 -0.208243
H	 -0.323783	 0.953829	 1.340327
H	 -0.235459	 -0.796807	 1.480410
C	 2.200309	 0.136118	 0.488247
H	 0.733710	 0.800019	 -0.936072
H	 0.811185	 -0.933796	 -0.764304
C	 2.344022	 -0.795299	 1.691167
H	 2.996038	 -0.068102	 -0.224869
H	 2.333847	 1.166241	 0.810091
H	 2.249010	 -1.836259	 1.395487
H	 1.580834	 -0.592545	 2.436739
H	 3.312086	 -0.673811	 2.166685
H	 -3.277823	 0.863061	 -0.908988
H	 -1.806773	 1.843019	 -0.759671
H	 -2.802853	 1.554979	 0.648059

	symmetry c1
}
set optking {
	frozen_dihedral = ("
		11 8 5 9
	")
}

ee = optimize('scf')
oeprop('DIPOLE', 'QUADRUPOLE', 'MULLIKEN_CHARGES')
f=open( 'psi4out.xyz', 'w' )
f.write( "19  " )
f.write( str(ee) + "\n" )
f.write( MOL.save_string_xyz() )
f.close()
--------------------------------------------------------------------------

    Molecular point group: c1
  Charge       = 0
  Multiplicity = 1
  Basis Set: 6-31G*
  Basis Set:
  @DF-RHF Final Energy:  -309.06105011644058
    Total Energy =                       -309.0610501164406969
    Molecular point group: c1
  Basis Set: 6-31G*
  Basis Set:
  Basis Set: 6-31G*
  Basis Set:
  @DF-RHF Final Energy:  -309.06168048710754
    Total Energy =                       -309.0616804871075942
  Basis Set: 6-31G*
  Basis Set:
  Basis Set: 6-31G*
  Basis Set:
  @DF-RHF Final Energy:  -309.06244850588467
    Total Energy =                       -309.0624485058846176
  Basis Set: 6-31G*
  Basis Set:
  Basis Set: 6-31G*
  Basis Set:
  @DF-RHF Final Energy:  -309.06242357328392
    Total Energy =                       -309.0624235732842635
  Basis Set: 6-31G*
  Basis Set:
  @DF-RHF Final Energy:  -309.06237729105374
    Total Energy =                       -309.0623772910537923
  Basis Set: 6-31G*
  Basis Set:
  @DF-RHF Final Energy:  -309.06233477190540
    Total Energy =                       -309.0623347719055118
  Basis Set: 6-31G*
  Basis Set:
  Basis Set: 6-31G*
  Basis Set:
  @DF-RHF Final Energy:  -309.06264053731314
    Total Energy =                       -309.0626405373131433
  Basis Set: 6-31G*
  Basis Set:
  Basis Set: 6-31G*
  Basis Set:
  @DF-RHF Final Energy:  -309.06264819978639
    Total Energy =                       -309.0626481997869632
  Basis Set: 6-31G*
  Basis Set:
  Charge       = 0
  Multiplicity = 1
  Basis Set: 6-31G*
  Basis Set:

    Orbital Energies (a.u.)
    -----------------------

    Doubly Occupied:

       1A    -20.547276     2A    -11.324455     3A    -11.231070
       4A    -11.228805     5A    -11.228283     6A    -11.225393
       7A    -11.214866     8A     -1.393079     9A     -1.090977
      10A     -1.027214    11A     -0.980927    12A     -0.901317
      13A     -0.796689    14A     -0.734475    15A     -0.659648
      16A     -0.651017    17A     -0.622280    18A     -0.601545
      19A     -0.590725    20A     -0.576844    21A     -0.549579
      22A     -0.544061    23A     -0.513366    24A     -0.502298
      25A     -0.481147    26A     -0.471233    27A     -0.462588
      28A     -0.397271

  @DF-RHF Final Energy:  -309.06264835738062

   => Energetics <=

    Nuclear Repulsion Energy =            304.9274739930415876
    One-Electron Energy =               -1022.8833816389534377
    Two-Electron Energy =                 408.8932592885312829
    DFT Exchange-Correlation Energy =       0.0000000000000000
    Empirical Dispersion Energy =           0.0000000000000000
    PCM Polarization Energy =               0.0000000000000000
    EFP Energy =                            0.0000000000000000
    Total Energy =                       -309.0626483573805103
    Molecular point group: c1
  Basis Set: 6-31G*
  Basis Set:

  -Total Gradient:
     Atom            X                  Y                   Z
    ------   -----------------  -----------------  -----------------
       1       -0.000007640371     0.000003891508     0.000006480678
       2        0.000011080342    -0.000008966315    -0.000000837761
       3       -0.000019423830    -0.000015072175     0.000013075947
       4        0.000002751582     0.000006450933    -0.000001919243
       5        0.001448496597    -0.001663096617    -0.002397060539
       6       -0.000001506881     0.000000859444    -0.000002642257
       7        0.000003049008     0.000000649879    -0.000003252064
       8        0.001179434856    -0.002211259033    -0.001709015538
       9       -0.001561249974     0.002023929974     0.002516859062
      10        0.000004251427    -0.000000265331    -0.000004598233
      11       -0.001067230140     0.001862693315     0.001577958249
      12        0.000015991483    -0.000008897037     0.000018783876
      13       -0.000000045066     0.000007715522    -0.000007779318
      14       -0.000002855490    -0.000005457662     0.000005276372
      15        0.000000784349     0.000008784304    -0.000013511806
      16        0.000001339492    -0.000001593954     0.000002224611
      17       -0.000001090477     0.000001485175    -0.000001149252
      18       -0.000004097344    -0.000000735921     0.000001694053
      19       -0.000002039559    -0.000001116009    -0.000000586839

  **** Optimization is complete! (in 9 steps) ****
    Final optimized geometry and variables:
    Molecular point group: c1

    Geometry (in Angstrom), charge = 0, multiplicity = 1:

    O           -1.930965390031    -1.057692543770    -0.686858177046
    C           -1.519229975655    -0.003542671590    -0.308002690695
    C           -0.217528538741     0.090903053779     0.467916325131
    C           -2.254682985080     1.286319106001    -0.597690718295
    C            0.982620510120     0.066683633482    -0.496080823751
    H           -0.195078720678     0.999093316419     1.064808917539
    H           -0.178832912738    -0.758030460535     1.138799764960
    C            2.341941267911     0.266420506694     0.187607522889
    H            0.848937793064     0.865952682529    -1.221882054317
    H            0.967097038820    -0.872077577163    -1.040310206135
    C            2.594542009658    -0.625201389682     1.404308697750
    H            3.121704346675     0.099566159781    -0.550414682605
    H            2.432779957408     1.306616732367     0.493876497615
    H            2.463072390714    -1.676095629101     1.160866812076
    H            1.925421975539    -0.388262782115     2.224278852097
    H            3.609762084378    -0.495559541229     1.765612067831
    H           -3.076840181582     1.099253683229    -1.274321315371
    H           -1.584995287958     2.026262138056    -1.025918813915
    H           -2.639551102559     1.701415072630     0.330154273525

  Mulliken Charges: (a.u.)
   Center  Symbol    Alpha    Beta     Spin     Total
       1     O     4.26237  4.26237  0.00000 -0.52474
       2     C     2.73687  2.73687  0.00000  0.52626
       3     C     3.20300  3.20300  0.00000 -0.40599
       4     C     3.28949  3.28949  0.00000 -0.57899
       5     C     3.16167  3.16167  0.00000 -0.32335
       6     H     0.41768  0.41768  0.00000  0.16465
       7     H     0.39866  0.39866  0.00000  0.20268
       8     C     3.15214  3.15214  0.00000 -0.30428
       9     H     0.41965  0.41965  0.00000  0.16070
      10     H     0.40623  0.40623  0.00000  0.18755
      11     C     3.24417  3.24417  0.00000 -0.48834
      12     H     0.41691  0.41691  0.00000  0.16619
      13     H     0.42262  0.42262  0.00000  0.15475
      14     H     0.41835  0.41835  0.00000  0.16330
      15     H     0.41949  0.41949  0.00000  0.16102
      16     H     0.41695  0.41695  0.00000  0.16610
      17     H     0.39699  0.39699  0.00000  0.20601
      18     H     0.41004  0.41004  0.00000  0.17991
      19     H     0.40671  0.40671  0.00000  0.18658

   Total alpha = 28.00000, Total beta = 28.00000, Total charge =  0.00000
