  ==> Input File <==

--------------------------------------------------------------------------
set {
	reference rhf
	basis cc-pvtz
}

set_num_threads( 4 )
memory 2 gb

molecule MOL {
0 1

H	 -2.816458	 -0.841657	 -0.064679
N	 -1.878861	 -0.711874	 0.250184
C	 -1.341419	 0.551458	 -0.220231
H	 -1.333674	 -1.468530	 -0.105118
C	 0.082190	 0.731516	 0.254705
H	 -1.357065	 0.652078	 -1.304747
H	 -1.939897	 1.357530	 0.189797
O	 0.949664	 0.292249	 -0.746415
H	 0.267848	 1.781573	 0.476254
H	 0.238900	 0.158051	 1.165479
C	 2.295169	 0.341370	 -0.405207
H	 2.865687	 -0.016166	 -1.250229
H	 2.610432	 1.357073	 -0.175747
H	 2.510736	 -0.288128	 0.454924

	symmetry c1
}
set optking {
	frozen_dihedral = ("
		8 5 3 6
	")
}

ee = optimize('scf')
oeprop('DIPOLE', 'QUADRUPOLE', 'MULLIKEN_CHARGES')
f=open( 'psi4out.xyz', 'w' )
f.write( "14  " )
f.write( str(ee) + "\n" )
f.write( MOL.save_string_xyz() )
f.close()
--------------------------------------------------------------------------

    Molecular point group: c1
  Charge       = 0
  Multiplicity = 1
  Basis Set: CC-PVTZ
  Basis Set:
  @DF-RHF Final Energy:  -248.22197907836443
    Total Energy =                       -248.2219790783643703
    Molecular point group: c1
  Basis Set: CC-PVTZ
  Basis Set:
  Basis Set: CC-PVTZ
  Basis Set:
  @DF-RHF Final Energy:  -248.22237373058985
    Total Energy =                       -248.2223737305899931
  Basis Set: CC-PVTZ
  Basis Set:
  Basis Set: CC-PVTZ
  Basis Set:
  @DF-RHF Final Energy:  -248.22246501391771
    Total Energy =                       -248.2224650139173718
  Basis Set: CC-PVTZ
  Basis Set:
  Basis Set: CC-PVTZ
  Basis Set:
  @DF-RHF Final Energy:  -248.22246846490958
    Total Energy =                       -248.2224684649096957
  Basis Set: CC-PVTZ
  Basis Set:
  Charge       = 0
  Multiplicity = 1
  Basis Set: CC-PVTZ
  Basis Set:

    Orbital Energies (a.u.)
    -----------------------

    Doubly Occupied:

       1A    -20.549948     2A    -15.526933     3A    -11.263261
       4A    -11.263006     5A    -11.240048     6A     -1.383257
       7A     -1.177215     8A     -0.999501     9A     -0.904342
      10A     -0.820128    11A     -0.684688    12A     -0.672278
      13A     -0.649399    14A     -0.617259    15A     -0.599094
      16A     -0.550233    17A     -0.524540    18A     -0.499549
      19A     -0.472829    20A     -0.420173    21A     -0.385377

  @DF-RHF Final Energy:  -248.22246875235936

   => Energetics <=

    Nuclear Repulsion Energy =            192.8782853072045782
    One-Electron Energy =                -719.7953914190188698
    Two-Electron Energy =                 278.6946373594551574
    DFT Exchange-Correlation Energy =       0.0000000000000000
    Empirical Dispersion Energy =           0.0000000000000000
    PCM Polarization Energy =               0.0000000000000000
    EFP Energy =                            0.0000000000000000
    Total Energy =                       -248.2224687523591342
    Molecular point group: c1
  Basis Set: CC-PVTZ
  Basis Set:

  -Total Gradient:
     Atom            X                  Y                   Z
    ------   -----------------  -----------------  -----------------
       1       -0.000019765174    -0.000006767103    -0.000010044016
       2        0.000005874084    -0.000011459317     0.000021652342
       3       -0.000993625789     0.007855868667    -0.000040760170
       4        0.000007111399    -0.000016723085    -0.000004132191
       5        0.000083561313    -0.006335004554     0.002207065004
       6        0.000823948988    -0.005462824830    -0.000416291793
       7        0.000017423065    -0.000003737315     0.000004788052
       8        0.000071099342     0.003966501628    -0.001765213830
       9        0.000003720447     0.000006844520    -0.000002358904
      10       -0.000001048530    -0.000001236247    -0.000000685500
      11        0.000007739203     0.000015262217     0.000010148075
      12       -0.000013401583    -0.000000635026    -0.000001092837
      13        0.000007743758     0.000000437304    -0.000002378678
      14       -0.000000380521    -0.000006526859    -0.000000695555

  **** Optimization is complete! (in 5 steps) ****
    Final optimized geometry and variables:
    Molecular point group: c1

    Geometry (in Angstrom), charge = 0, multiplicity = 1:

    H           -2.858710793082    -1.057402102444     0.122526738131
    N           -1.910738061913    -0.947351933851     0.415364919217
    C           -1.379838395252     0.336639728780    -0.027529715613
    H           -1.391482246339    -1.694298760285     0.001794873532
    C            0.056310340562     0.516041290472     0.436543839598
    H           -1.384021847867     0.421780540121    -1.110855928385
    H           -1.999088360028     1.120083773065     0.389624586073
    O            0.919391741796     0.055151073999    -0.560954357123
    H            0.259723577212     1.569171315392     0.625355952031
    H            0.212339615656    -0.026198323241     1.364897346472
    C            2.265642293906     0.118130805927    -0.226176421015
    H            2.834647759560    -0.250632485653    -1.067409345775
    H            2.575533961420     1.139778183356    -0.015739457374
    H            2.490515261455    -0.494020197024     0.644315074417

  Mulliken Charges: (a.u.)
   Center  Symbol    Alpha    Beta     Spin     Total
       1     H     0.43002  0.43002  0.00000  0.13996
       2     N     3.69460  3.69460  0.00000 -0.38921
       3     C     3.02306  3.02306  0.00000 -0.04613
       4     H     0.42605  0.42605  0.00000  0.14790
       5     C     2.97362  2.97362  0.00000  0.05277
       6     H     0.46071  0.46071  0.00000  0.07858
       7     H     0.45679  0.45679  0.00000  0.08643
       8     O     4.17638  4.17638  0.00000 -0.35277
       9     H     0.47099  0.47099  0.00000  0.05801
      10     H     0.46671  0.46671  0.00000  0.06659
      11     C     3.03086  3.03086  0.00000 -0.06171
      12     H     0.44754  0.44754  0.00000  0.10492
      13     H     0.47199  0.47199  0.00000  0.05602
      14     H     0.47068  0.47068  0.00000  0.05864

   Total alpha = 21.00000, Total beta = 21.00000, Total charge =  0.00000
