                              Psi4 1.0.54 Driver

  ==> Input File <==

--------------------------------------------------------------------------
set {
	reference rhf
	basis cc-pvtz
}

set_num_threads( 4 )
memory 2 gb

molecule MOL {
0 1

O	 2.868453	 1.353349	 -0.000734
C	 2.841259	 0.166180	 -0.000295
C	 1.542794	 -0.614730	 -0.000853
C	 4.113372	 -0.651103	 0.000743
C	 0.288398	 0.247429	 0.000314
H	 1.557171	 -1.273139	 -0.866508
H	 1.557484	 -1.274998	 0.863344
C	 0.024112	 0.900439	 -1.353511
H	 0.381805	 1.009880	 0.765205
H	 -0.561155	 -0.361447	 0.287827
C	 -1.231010	 1.768107	 -1.365741
H	 0.881220	 1.507510	 -1.636540
H	 -0.066449	 0.129940	 -2.116001
C	 -1.501996	 2.425055	 -2.716194
H	 -1.141325	 2.538749	 -0.604045
H	 -2.088450	 1.161984	 -1.083715
C	 -2.757706	 3.290482	 -2.720526
H	 -0.645924	 3.032071	 -2.998350
H	 -1.593060	 1.655420	 -3.477959
H	 -2.683308	 4.091448	 -1.992543
H	 -2.920925	 3.741604	 -3.692570
H	 -3.637458	 2.704590	 -2.475960
H	 4.145311	 -1.294584	 -0.871587
H	 4.970080	 0.004978	 -0.000091
H	 4.145223	 -1.291980	 0.874988

	symmetry c1
}
set optking {
	frozen_dihedral = ("
		9 5 3 6
	")
}

ee,wfn = optimize('scf', return_wfn=True)
oeprop( wfn, 'DIPOLE', 'QUADRUPOLE', 'MULLIKEN_CHARGES')
f=open( 'psi4out.xyz', 'w' )
f.write( "25  " )
f.write( str(ee) + "\n" )
f.write( MOL.save_string_xyz() )
f.close()
--------------------------------------------------------------------------

    Molecular point group: c1
  Charge       = 0
  Multiplicity = 1
  Basis Set: CC-PVTZ
  Basis Set:
  @DF-RHF Final Energy:  -387.27349389124811
    Total Energy =                       -387.2734938912478810
    Molecular point group: c1
  Basis Set: CC-PVTZ
  Basis Set:
  Basis Set: CC-PVTZ
  Basis Set:
  @DF-RHF Final Energy:  -387.27372559919485
    Total Energy =                       -387.2737255991949041
  Basis Set: CC-PVTZ
  Basis Set:
  Basis Set: CC-PVTZ
  Basis Set:
  @DF-RHF Final Energy:  -387.27175888305243
    Total Energy =                       -387.2717588830518025
  Basis Set: CC-PVTZ
  Basis Set:
  Basis Set: CC-PVTZ
  Basis Set:
  @DF-RHF Final Energy:  -387.27391355115998
    Total Energy =                       -387.2739135511603763
  Basis Set: CC-PVTZ
  Basis Set:
  @DF-RHF Final Energy:  -387.27396871956148
    Total Energy =                       -387.2739687195613669
  @DF-RHF Final Energy:  -387.27399324307606
    Total Energy =                       -387.2739932430763474
  Basis Set: CC-PVTZ
  Basis Set:
  @DF-RHF Final Energy:  -387.27402283138122
    Total Energy =                       -387.2740228313807620
  Basis Set: CC-PVTZ
  Basis Set:
  Basis Set: CC-PVTZ
  Basis Set:
  @DF-RHF Final Energy:  -387.27403025062085
    Total Energy =                       -387.2740302506209673
  Basis Set: CC-PVTZ
  Basis Set:
  Basis Set: CC-PVTZ
  Basis Set:
  @DF-RHF Final Energy:  -387.27403427476742
    Total Energy =                       -387.2740342747675868
  Basis Set: CC-PVTZ
  Basis Set:
  Charge       = 0
  Multiplicity = 1
  Basis Set: CC-PVTZ
  Basis Set:

    Orbital Energies (a.u.)
    -----------------------

    Doubly Occupied:

       1A    -20.539352     2A    -11.321580     3A    -11.230684
       4A    -11.227160     5A    -11.215413     6A    -11.210143
       7A    -11.209393     8A    -11.208078     9A    -11.203869
      10A     -1.399778    11A     -1.092520    12A     -1.056051
      13A     -1.014762    14A     -0.968458    15A     -0.889642
      16A     -0.815596    17A     -0.788284    18A     -0.728812
      19A     -0.670382    20A     -0.638730    21A     -0.633802
      22A     -0.625923    23A     -0.592585    24A     -0.585831
      25A     -0.574308    26A     -0.557639    27A     -0.534746
      28A     -0.526536    29A     -0.516748    30A     -0.499721
      31A     -0.483223    32A     -0.475454    33A     -0.460750
      34A     -0.459451    35A     -0.441450    36A     -0.402877

  @DF-RHF Final Energy:  -387.27403475101949

   => Energetics <=

    Nuclear Repulsion Energy =            448.2932131213030971
    One-Electron Energy =               -1413.5350299769693265
    Two-Electron Energy =                 577.9677821046460622
    DFT Exchange-Correlation Energy =       0.0000000000000000
    Empirical Dispersion Energy =           0.0000000000000000
    PCM Polarization Energy =               0.0000000000000000
    EFP Energy =                            0.0000000000000000
    Total Energy =                       -387.2740347510201673
    Molecular point group: c1
  Basis Set: CC-PVTZ
  Basis Set:

  -Total Gradient:
     Atom            X                  Y                   Z
    ------   -----------------  -----------------  -----------------
       1        0.000002417676    -0.000003891100     0.000000887447
       2        0.000025035332     0.000022885019     0.000019866106
       3       -0.000390140046    -0.000569339185     0.000419795821
       4       -0.000010463635    -0.000048184791     0.000019804843
       5       -0.000299793411    -0.000368784731     0.000511198678
       6        0.000378093009     0.000507042819    -0.000430970660
       7       -0.000003948260     0.000009088130    -0.000006755108
       8       -0.000004850713     0.000010757433    -0.000028413081
       9        0.000329987631     0.000440991168    -0.000503087443
      10       -0.000003354130    -0.000010980796    -0.000006447991
      11       -0.000004867667    -0.000013632866     0.000005105296
      12       -0.000014703123    -0.000010143917     0.000006029238
      13       -0.000006810215    -0.000010011172     0.000004478647
      14        0.000009812711    -0.000001749691    -0.000004113600
      15       -0.000005245676     0.000004936525     0.000005881554
      16       -0.000003662001    -0.000004590056     0.000000091773
      17        0.000005632595     0.000005273225     0.000009725600
      18        0.000004319121     0.000001760020    -0.000005947438
      19       -0.000001194383    -0.000003856273     0.000001674617
      20       -0.000002459057     0.000005136148     0.000002917784
      21        0.000005317040    -0.000003801022     0.000001635953
      22       -0.000000747259    -0.000002419867    -0.000001084044
      23        0.000009888119     0.000014675851     0.000054503694
      24       -0.000032010087    -0.000038455067    -0.000022826460
      25        0.000013746437     0.000067294193    -0.000053951223

  **** Optimization is complete! (in 10 steps) ****
    Final optimized geometry and variables:
    Molecular point group: c1

    Geometry (in Angstrom), charge = 0, multiplicity = 1:

    O            2.222167933181     0.302880866026     1.150815654983
    C            2.147472578351    -0.867375562585     0.963400144387
    C            0.823387409170    -1.608440516907     0.949857952857
    C            3.382827326352    -1.708918070304     0.739080339968
    C           -0.412391100146    -0.715735840782     0.910065329097
    H            0.831302686202    -2.302435931431     0.113636583185
    H            0.817859406680    -2.226893245624     1.844655143736
    C           -0.673839405998    -0.094124209655    -0.460366042029
    H           -0.300105876234     0.071345475546     1.645339840548
    H           -1.274418578467    -1.307104892799     1.203257424096
    C           -1.903675910712     0.808576653078    -0.479644234785
    H            0.194444377475     0.479446702406    -0.766871695549
    H           -0.800635172365    -0.887070310917    -1.194880894634
    C           -2.178796638735     1.428395187098    -1.846677098410
    H           -1.775367786239     1.601315477362     0.252987565716
    H           -2.774943185005     0.239158141231    -0.163194977650
    C           -3.405854948035     2.333915071075    -1.858393530578
    H           -1.308910132320     1.997109301735    -2.163143792499
    H           -2.308752998847     0.637222917961    -2.580409552881
    H           -3.291677091410     3.156001822519    -1.159711073563
    H           -3.572649592869     2.757398057495    -2.842256384679
    H           -4.299648456838     1.785965332449    -1.578554411233
    H            3.405136372120    -2.043441128103    -0.292871747016
    H            4.267582904869    -1.126180600584     0.944303673081
    H            3.366892267660    -2.593766156359     1.364685948117

  Mulliken Charges: (a.u.)
   Center  Symbol    Alpha    Beta     Spin     Total
       1     O     4.17358  4.17358  0.00000 -0.34715
       2     C     2.85960  2.85960  0.00000  0.28079
       3     C     3.12324  3.12324  0.00000 -0.24648
       4     C     3.15083  3.15083  0.00000 -0.30166
       5     C     3.09347  3.09347  0.00000 -0.18693
       6     H     0.44454  0.44454  0.00000  0.11091
       7     H     0.43445  0.43445  0.00000  0.13110
       8     C     3.08904  3.08904  0.00000 -0.17809
       9     H     0.44391  0.44391  0.00000  0.11218
      10     H     0.44655  0.44655  0.00000  0.10690
      11     C     3.08851  3.08851  0.00000 -0.17701
      12     H     0.44621  0.44621  0.00000  0.10757
      13     H     0.45861  0.45861  0.00000  0.08278
      14     C     3.08362  3.08362  0.00000 -0.16724
      15     H     0.45194  0.45194  0.00000  0.09611
      16     H     0.45663  0.45663  0.00000  0.08674
      17     C     3.15062  3.15062  0.00000 -0.30124
      18     H     0.45332  0.45332  0.00000  0.09337
      19     H     0.45625  0.45625  0.00000  0.08751
      20     H     0.45445  0.45445  0.00000  0.09110
      21     H     0.44885  0.44885  0.00000  0.10230
      22     H     0.45597  0.45597  0.00000  0.08805
      23     H     0.44933  0.44933  0.00000  0.10133
      24     H     0.43567  0.43567  0.00000  0.12865
      25     H     0.45080  0.45080  0.00000  0.09839

   Total alpha = 36.00000, Total beta = 36.00000, Total charge =  0.00000

*** Psi4 exiting successfully. Buy a developer a beer!
