  ==> Input File <==

--------------------------------------------------------------------------
set {
	reference rhf
	basis 6-31G*
}

set_num_threads( 4 )
memory 2 gb

molecule MOL {
0 1

H	 2.591676	 2.013956	 0.335017
O	 3.341076	 1.666752	 -0.126416
C	 3.569581	 0.339145	 0.272707
C	 2.317729	 -0.529428	 0.216373
H	 4.314855	 -0.049150	 -0.409545
H	 4.000894	 0.310731	 1.272678
C	 1.213523	 -0.093116	 1.182411
H	 1.936865	 -0.519803	 -0.801574
H	 2.606826	 -1.555582	 0.437273
C	 -0.007396	 -1.016394	 1.140793
H	 0.909285	 0.921788	 0.942048
H	 1.609228	 -0.069825	 2.197899
C	 -1.108503	 -0.673814	 2.151013
H	 -0.426361	 -1.010809	 0.136162
H	 0.323557	 -2.036311	 1.325019
C	 -1.817013	 0.660932	 1.904140
H	 -1.850630	 -1.469199	 2.130405
H	 -0.688669	 -0.678958	 3.155777
C	 -2.975588	 0.908872	 2.872472
H	 -2.192958	 0.684201	 0.882262
H	 -1.108582	 1.481650	 1.986909
C	 -3.680478	 2.243462	 2.632339
H	 -3.697032	 0.099300	 2.785295
H	 -2.603581	 0.876328	 3.894448
H	 -4.092468	 2.294170	 1.628388
H	 -4.497340	 2.388902	 3.332495
H	 -2.993236	 3.076835	 2.748741

	symmetry c1
}
set optking {
	frozen_dihedral = ("
		4 3 2 1
	")
}

ee = optimize('scf')
oeprop('DIPOLE', 'QUADRUPOLE', 'MULLIKEN_CHARGES')
f=open( 'psi4out.xyz', 'w' )
f.write( "27  " )
f.write( str(ee) + "\n" )
f.write( MOL.save_string_xyz() )
f.close()
--------------------------------------------------------------------------

    Molecular point group: c1
  Charge       = 0
  Multiplicity = 1
  Basis Set: 6-31G*
  Basis Set:
  @DF-RHF Final Energy:  -388.28094181615643
    Total Energy =                       -388.2809418161556323
    Molecular point group: c1
  Basis Set: 6-31G*
  Basis Set:
  Basis Set: 6-31G*
  Basis Set:
  @DF-RHF Final Energy:  -388.28090684307608
    Total Energy =                       -388.2809068430760817
  Basis Set: 6-31G*
  Basis Set:
  Basis Set: 6-31G*
  Basis Set:
  @DF-RHF Final Energy:  -388.28102200520499
    Total Energy =                       -388.2810220052047043
  Basis Set: 6-31G*
  Basis Set:
  Basis Set: 6-31G*
  Basis Set:
  @DF-RHF Final Energy:  -388.28102398615351
    Total Energy =                       -388.2810239861536274
  Basis Set: 6-31G*
  Basis Set:
  Basis Set: 6-31G*
  Basis Set:
  @DF-RHF Final Energy:  -388.28101434507039
    Total Energy =                       -388.2810143450699343
  Basis Set: 6-31G*
  Basis Set:
  Basis Set: 6-31G*
  Basis Set:
  @DF-RHF Final Energy:  -388.28103120446832
    Total Energy =                       -388.2810312044684906
  Basis Set: 6-31G*
  Basis Set:
  Charge       = 0
  Multiplicity = 1
  Basis Set: 6-31G*
  Basis Set:

    Orbital Energies (a.u.)
    -----------------------

    Doubly Occupied:

       1A    -20.550655     2A    -11.266422     3A    -11.224072
       4A    -11.219975     5A    -11.218954     6A    -11.217606
       7A    -11.217341     8A    -11.216085     9A    -11.210400
      10A     -1.358056    11A     -1.097622    12A     -1.063524
      13A     -1.012931    14A     -0.949940    15A     -0.890159
      16A     -0.822793    17A     -0.804331    18A     -0.780635
      19A     -0.684559    20A     -0.655132    21A     -0.642987
      22A     -0.614035    23A     -0.606400    24A     -0.584041
      25A     -0.580209    26A     -0.557815    27A     -0.541376
      28A     -0.532082    29A     -0.505791    30A     -0.497310
      31A     -0.487830    32A     -0.477687    33A     -0.469238
      34A     -0.462867    35A     -0.451677    36A     -0.440093
      37A     -0.426400

  @DF-RHF Final Energy:  -388.28103094335700

   => Energetics <=

    Nuclear Repulsion Energy =            459.5229658051836168
    One-Electron Energy =               -1436.9299353212813912
    Two-Electron Energy =                 589.1259385727407789
    DFT Exchange-Correlation Energy =       0.0000000000000000
    Empirical Dispersion Energy =           0.0000000000000000
    PCM Polarization Energy =               0.0000000000000000
    EFP Energy =                            0.0000000000000000
    Total Energy =                       -388.2810309433569955
    Molecular point group: c1
  Basis Set: 6-31G*
  Basis Set:

  -Total Gradient:
     Atom            X                  Y                   Z
    ------   -----------------  -----------------  -----------------
       1       -0.001184357757    -0.000626782995    -0.001498549920
       2        0.001358524337     0.000989286063     0.002432737326
       3        0.000161455597    -0.000682466453    -0.002237465442
       4       -0.000269625281     0.000297596728     0.001246780714
       5        0.000045212859    -0.000007659005     0.000014855778
       6       -0.000036388135     0.000039738946    -0.000015658100
       7       -0.000026393362    -0.000047367218     0.000034719518
       8        0.000026723938     0.000000216556     0.000009330784
       9       -0.000007486926    -0.000009478452    -0.000006886003
      10       -0.000010687255     0.000051788097     0.000019696228
      11       -0.000055365635    -0.000009330784     0.000011474713
      12       -0.000017920154    -0.000002254741     0.000012593311
      13        0.000005980908    -0.000012075438     0.000011621672
      14       -0.000011464517    -0.000005015040    -0.000001728532
      15        0.000028993058     0.000026791352     0.000002608269
      16       -0.000018620710    -0.000007539660    -0.000027027215
      17        0.000007873951    -0.000001102820    -0.000017602935
      18       -0.000012849805    -0.000015765338     0.000008124190
      19        0.000009792662     0.000012141161     0.000009647601
      20       -0.000019679448    -0.000003343818     0.000000412510
      21        0.000012613244     0.000005398588    -0.000017016927
      22        0.000011821420     0.000008947045     0.000009981465
      23        0.000003027697     0.000006774732    -0.000010807050
      24       -0.000002819079    -0.000008778278     0.000006796113
      25        0.000001084871    -0.000003799894     0.000001143693
      26        0.000002307905     0.000000408085     0.000001540893
      27       -0.000001754380     0.000003672577    -0.000001322654

  **** Optimization is complete! (in 7 steps) ****
    Final optimized geometry and variables:
    Molecular point group: c1

    Geometry (in Angstrom), charge = 0, multiplicity = 1:

    H            2.499022629426     1.604992471295    -1.048795626656
    O            3.247905289969     1.230573790604    -1.489054576885
    C            3.438210047987    -0.094440718511    -1.065243494724
    C            2.175740433770    -0.948744736931    -1.125350247848
    H            4.193161283065    -0.506481943421    -1.722124363045
    H            3.843637581913    -0.111485933480    -0.053800117701
    C            1.070229047202    -0.510715728960    -0.159598490611
    H            1.797138445057    -0.941108339793    -2.144599878861
    H            2.455981545020    -1.976086933098    -0.901144221575
    C           -0.148508970588    -1.437124271782    -0.201620674783
    H            0.755731874133     0.503211607057    -0.395417050398
    H            1.466499580808    -0.484125009960     0.854750670141
    C           -1.249980326886    -1.098477217710     0.809487725838
    H           -0.567811755056    -1.432858195959    -1.206120513164
    H            0.186307365423    -2.455699112110    -0.017708804348
    C           -1.962967429587     0.234278682417     0.564634651742
    H           -1.989405356575    -1.896243517479     0.788050463912
    H           -0.829619435887    -1.103577880392     1.813923467437
    C           -3.119418501463     0.478686858375     1.536416265316
    H           -2.341986099449     0.256731622508    -0.456192636043
    H           -1.256823978880     1.057161553319     0.646165167353
    C           -3.827171396978     1.812420677449     1.300159039054
    H           -3.839573558577    -0.332047039187     1.449731906738
    H           -2.744585417745     0.445223235184     2.557284376830
    H           -4.241955251347     1.863961797992     0.297403407595
    H           -4.642426104252     1.955182079310     2.002661906425
    H           -3.141142554666     2.646817154752     1.416251750977

  Mulliken Charges: (a.u.)
   Center  Symbol    Alpha    Beta     Spin     Total
       1     H     0.27894  0.27894  0.00000  0.44212
       2     O     4.37413  4.37413  0.00000 -0.74826
       3     C     2.98905  2.98905  0.00000  0.02190
       4     C     3.17000  3.17000  0.00000 -0.33999
       5     H     0.41523  0.41523  0.00000  0.16954
       6     H     0.43233  0.43233  0.00000  0.13534
       7     C     3.16276  3.16276  0.00000 -0.32552
       8     H     0.41492  0.41492  0.00000  0.17016
       9     H     0.42168  0.42168  0.00000  0.15663
      10     C     3.15209  3.15209  0.00000 -0.30418
      11     H     0.42792  0.42792  0.00000  0.14415
      12     H     0.42168  0.42168  0.00000  0.15665
      13     C     3.15371  3.15371  0.00000 -0.30742
      14     H     0.42157  0.42157  0.00000  0.15687
      15     H     0.42067  0.42067  0.00000  0.15866
      16     C     3.15268  3.15268  0.00000 -0.30536
      17     H     0.42075  0.42075  0.00000  0.15850
      18     H     0.42360  0.42360  0.00000  0.15279
      19     C     3.15128  3.15128  0.00000 -0.30255
      20     H     0.42374  0.42374  0.00000  0.15251
      21     H     0.42389  0.42389  0.00000  0.15222
      22     C     3.23928  3.23928  0.00000 -0.47856
      23     H     0.42266  0.42266  0.00000  0.15467
      24     H     0.42293  0.42293  0.00000  0.15415
      25     H     0.42149  0.42149  0.00000  0.15702
      26     H     0.41891  0.41891  0.00000  0.16217
      27     H     0.42210  0.42210  0.00000  0.15579

   Total alpha = 37.00000, Total beta = 37.00000, Total charge =  0.00000
