  ==> Input File <==

--------------------------------------------------------------------------
set {
	reference rhf
	basis 6-31G*
}

set_num_threads( 1 )
memory 2 gb

molecule MOL {
0 1

O	 -2.821601	 1.309235	 -0.001213
C	 -2.668563	 0.129746	 -0.000350
C	 -3.801572	 -0.864014	 -0.000442
O	 -1.481751	 -0.454642	 0.000584
H	 -4.417280	 -0.689587	 -0.874708
H	 -3.443784	 -1.883046	 -0.000565
H	 -4.417179	 -0.689832	 0.873954
C	 -0.334255	 0.388708	 0.000906
C	 0.891947	 -0.504646	 0.000751
H	 -0.365390	 1.025305	 -0.873475
H	 -0.365484	 1.024911	 0.875569
C	 2.191998	 0.301789	 0.000897
H	 0.855148	 -1.151283	 -0.871571
H	 0.855132	 -1.151660	 0.872805
C	 3.441114	 -0.581407	 0.000108
H	 2.215074	 0.954890	 -0.869742
H	 2.215465	 0.953923	 0.872248
C	 4.492459	 -0.124488	 -1.010221
H	 3.154824	 -1.608347	 -0.215551
H	 3.876641	 -0.588555	 0.996770
H	 4.096769	 -0.138972	 -2.021772
H	 5.365096	 -0.769638	 -0.987360
H	 4.824255	 0.888325	 -0.800151

	symmetry c1
}
set optking {
	frozen_dihedral = ("
		13 9 8 10,
		2 4 8 10,
		16 12 9 13,
		1 2 4 8
	")
}

ee = energy('scf')
oeprop('DIPOLE', 'QUADRUPOLE', 'MULLIKEN_CHARGES')
f=open( 'psi4out.xyz', 'w' )
f.write( "23  " )
f.write( str(ee) + "\n" )
f.write( MOL.save_string_xyz() )
f.close()
--------------------------------------------------------------------------

    Molecular point group: c1

    Geometry (in Angstrom), charge = 0, multiplicity = 1:

       Center              X                  Y                   Z               Mass
    ------------   -----------------  -----------------  -----------------  -----------------
           O         -2.793070051638     1.349481828768     0.115293944195    15.994914619560
           C         -2.640032051638     0.169992828768     0.116156944195    12.000000000000
           C         -3.773041051638    -0.823767171232     0.116064944195    12.000000000000
           O         -1.453220051638    -0.414395171232     0.117090944195    15.994914619560
           H         -4.388749051638    -0.649340171232    -0.758201055805     1.007825032070
           H         -3.415253051638    -1.842799171232     0.115941944195     1.007825032070
           H         -4.388648051638    -0.649585171232     0.990460944195     1.007825032070
           C         -0.305724051638     0.428954828768     0.117412944195    12.000000000000
           C          0.920477948362    -0.464399171232     0.117257944195    12.000000000000
           H         -0.336859051638     1.065551828768    -0.756968055805     1.007825032070
           H         -0.336953051638     1.065157828768     0.992075944195     1.007825032070
           C          2.220528948362     0.342035828768     0.117403944195    12.000000000000
           H          0.883678948362    -1.111036171232    -0.755064055805     1.007825032070
           H          0.883662948362    -1.111413171232     0.989311944195     1.007825032070
           C          3.469644948362    -0.541160171232     0.116614944195    12.000000000000
           H          2.243604948362     0.995136828768    -0.753235055805     1.007825032070
           H          2.243995948362     0.994169828768     0.988754944195     1.007825032070
           C          4.520989948362    -0.084241171232    -0.893714055805    12.000000000000
           H          3.183354948362    -1.568100171232    -0.099044055805     1.007825032070
           H          3.905171948362    -0.548308171232     1.113276944195     1.007825032070
           H          4.125299948362    -0.098725171232    -1.905265055805     1.007825032070
           H          5.393626948362    -0.729391171232    -0.870853055805     1.007825032070
           H          4.852785948362     0.928571828768    -0.683644055805     1.007825032070

  Charge       = 0
  Multiplicity = 1
  Basis Set: 6-31G*
  Basis Set:

    Orbital Energies (a.u.)
    -----------------------

    Doubly Occupied:

       1A    -20.602889     2A    -20.540473     3A    -11.374001
       4A    -11.281059     5A    -11.232351     6A    -11.224602
       7A    -11.222510     8A    -11.220220     9A    -11.213195
      10A     -1.467872    11A     -1.360657    12A     -1.094329
      13A     -1.042009    14A     -1.003098    15A     -0.930654
      16A     -0.843373    17A     -0.801945    18A     -0.774049
      19A     -0.691560    20A     -0.685205    21A     -0.668646
      22A     -0.641039    23A     -0.609338    24A     -0.592243
      25A     -0.581875    26A     -0.570403    27A     -0.552581
      28A     -0.534897    29A     -0.525929    30A     -0.504024
      31A     -0.497812    32A     -0.475546    33A     -0.465113
      34A     -0.464257    35A     -0.451245    36A     -0.435149

  @DF-RHF Final Energy:  -422.97440396186647

   => Energetics <=

    Nuclear Repulsion Energy =            450.5973415304163723
    One-Electron Energy =               -1468.7912516207550198
    Two-Electron Energy =                 595.2195061284725170
    DFT Exchange-Correlation Energy =       0.0000000000000000
    Empirical Dispersion Energy =           0.0000000000000000
    PCM Polarization Energy =               0.0000000000000000
    EFP Energy =                            0.0000000000000000
    Total Energy =                       -422.9744039618661873

  Mulliken Charges: (a.u.)
   Center  Symbol    Alpha    Beta     Spin     Total
       1     O     4.28391  4.28391  0.00000 -0.56782
       2     C     2.61533  2.61533  0.00000  0.76934
       3     C     3.28773  3.28773  0.00000 -0.57547
       4     O     4.31268  4.31268  0.00000 -0.62536
       5     H     0.39752  0.39752  0.00000  0.20497
       6     H     0.39989  0.39989  0.00000  0.20021
       7     H     0.39752  0.39752  0.00000  0.20497
       8     C     2.99618  2.99618  0.00000  0.00763
       9     C     3.16725  3.16725  0.00000 -0.33450
      10     H     0.41061  0.41061  0.00000  0.17879
      11     H     0.41072  0.41072  0.00000  0.17857
      12     C     3.16287  3.16287  0.00000 -0.32575
      13     H     0.41399  0.41399  0.00000  0.17201
      14     H     0.41373  0.41373  0.00000  0.17254
      15     C     3.15365  3.15365  0.00000 -0.30729
      16     H     0.41846  0.41846  0.00000  0.16308
      17     H     0.41834  0.41834  0.00000  0.16331
      18     C     3.24105  3.24105  0.00000 -0.48210
      19     H     0.41907  0.41907  0.00000  0.16185
      20     H     0.41891  0.41891  0.00000  0.16218
      21     H     0.42108  0.42108  0.00000  0.15784
      22     H     0.41910  0.41910  0.00000  0.16180
      23     H     0.42039  0.42039  0.00000  0.15921

   Total alpha = 36.00000, Total beta = 36.00000, Total charge =  0.00000
