                              Psi4 1.0.54 Driver

  ==> Input File <==

--------------------------------------------------------------------------
set {
	reference rhf
	basis cc-pvtz
}

set_num_threads( 4 )
memory 2 gb

molecule MOL {
0 1

O	 1.715572	 -0.545922	 0.087526
C	 0.860843	 0.273204	 -0.013120
C	 -0.623368	 -0.117453	 -0.005652
C	 1.234459	 1.735100	 -0.159043
C	 -0.892588	 -1.253841	 -1.002900
C	 -1.473463	 1.100646	 -0.372896
C	 -0.981836	 -0.579025	 1.418506
H	 -0.609333	 -0.970024	 -2.010649
H	 -1.950451	 -1.487353	 -1.013175
H	 -0.360848	 -2.161259	 -0.746463
H	 -1.232203	 1.461623	 -1.364827
H	 -2.524364	 0.834451	 -0.354500
H	 -1.312381	 1.914833	 0.318657
H	 -2.035706	 -0.826342	 1.468082
H	 -0.425078	 -1.458934	 1.716857
H	 -0.788494	 0.205047	 2.140903
H	 1.104460	 2.232816	 0.795495
H	 2.272754	 1.800924	 -0.445536
H	 0.617970	 2.250949	 -0.882281

	symmetry c1
}
set optking {
	frozen_dihedral = ("
		1 2 3 5
	")
}

ee,wfn = optimize('scf', return_wfn=True)
oeprop( wfn, 'DIPOLE', 'QUADRUPOLE', 'MULLIKEN_CHARGES')
f=open( 'psi4out.xyz', 'w' )
f.write( "19  " )
f.write( str(ee) + "\n" )
f.write( MOL.save_string_xyz() )
f.close()
--------------------------------------------------------------------------

    Molecular point group: c1
  Charge       = 0
  Multiplicity = 1
  Basis Set: CC-PVTZ
  Basis Set:
  @DF-RHF Final Energy:  -309.16935261765531
    Total Energy =                       -309.1693526176553064
    Molecular point group: c1
  Basis Set: CC-PVTZ
  Basis Set:
  Basis Set: CC-PVTZ
  Basis Set:
  @DF-RHF Final Energy:  -308.90190056836082
    Total Energy =                       -308.9019005683607588
  Basis Set: CC-PVTZ
  Basis Set:
  Basis Set: CC-PVTZ
  Basis Set:
  @DF-RHF Final Energy:  -309.03960934656754
    Total Energy =                       -309.0396093465673175
  Basis Set: CC-PVTZ
  Basis Set:
  Basis Set: CC-PVTZ
  Basis Set:
  @DF-RHF Final Energy:  -309.14932196616417
    Total Energy =                       -309.1493219661640524
  Basis Set: CC-PVTZ
  Basis Set:
  @DF-RHF Final Energy:  -309.16907666762143
    Total Energy =                       -309.1690766676215389
  @DF-RHF Final Energy:  -309.17206120179770
    Total Energy =                       -309.1720612017979875
  @DF-RHF Final Energy:  -309.16942425911446
    Total Energy =                       -309.1694242591144643
  @DF-RHF Final Energy:  -309.17273114320909
    Total Energy =                       -309.1727311432093757
  @DF-RHF Final Energy:  -309.17303522618471
    Total Energy =                       -309.1730352261844246
  @DF-RHF Final Energy:  -309.17303510601619
    Total Energy =                       -309.1730351060160729
  @DF-RHF Final Energy:  -309.17289904064921
    Total Energy =                       -309.1728990406488720
  Basis Set: CC-PVTZ
  Basis Set:
  @DF-RHF Final Energy:  -309.17306932078452
    Total Energy =                       -309.1730693207844070
  Basis Set: CC-PVTZ
  Basis Set:
  Basis Set: CC-PVTZ
  Basis Set:
  @DF-RHF Final Energy:  -309.17307347638683
    Total Energy =                       -309.1730734763869464
  Basis Set: CC-PVTZ
  Basis Set:
  Basis Set: CC-PVTZ
  Basis Set:
  @DF-RHF Final Energy:  -309.17308235142377
    Total Energy =                       -309.1730823514235453
  Basis Set: CC-PVTZ
  Basis Set:
  Charge       = 0
  Multiplicity = 1
  Basis Set: CC-PVTZ
  Basis Set:

    Orbital Energies (a.u.)
    -----------------------

    Doubly Occupied:

       1A    -20.536367     2A    -11.318541     3A    -11.245469
       4A    -11.226177     5A    -11.219844     6A    -11.216858
       7A    -11.211744     8A     -1.398288     9A     -1.109066
      10A     -1.004684    11A     -0.943164    12A     -0.939291
      13A     -0.834008    14A     -0.705699    15A     -0.666837
      16A     -0.633619    17A     -0.624144    18A     -0.589020
      19A     -0.586552    20A     -0.573371    21A     -0.552643
      22A     -0.546687    23A     -0.523499    24A     -0.514998
      25A     -0.503114    26A     -0.472481    27A     -0.462997
      28A     -0.393775

  @DF-RHF Final Energy:  -309.17308289455445

   => Energetics <=

    Nuclear Repulsion Energy =            326.7988921906123778
    One-Electron Energy =               -1066.8380856969081378
    Two-Electron Energy =                 430.8661106117415329
    DFT Exchange-Correlation Energy =       0.0000000000000000
    Empirical Dispersion Energy =           0.0000000000000000
    PCM Polarization Energy =               0.0000000000000000
    EFP Energy =                            0.0000000000000000
    Total Energy =                       -309.1730828945542271
    Molecular point group: c1
  Basis Set: CC-PVTZ
  Basis Set:

  -Total Gradient:
     Atom            X                  Y                   Z
    ------   -----------------  -----------------  -----------------
       1       -0.000311990524    -0.000381511177     0.000773776371
       2        0.000374256371     0.000512107321    -0.001223241551
       3       -0.000082900508    -0.000886339726     0.000612704753
       4        0.000025321333     0.000040878765     0.000000186492
       5       -0.000036533234     0.000582104390    -0.000184208168
       6        0.000005544020     0.000004266325     0.000017700258
       7        0.000026996185     0.000026498946    -0.000044374971
       8        0.000016124384     0.000050985339     0.000006992424
       9       -0.000039261205    -0.000011821905     0.000003630718
      10        0.000045520414    -0.000048007161     0.000010701849
      11        0.000001093234    -0.000014640170     0.000000383818
      12        0.000006696109    -0.000009904646     0.000006692223
      13       -0.000000977121     0.000017995842     0.000016009607
      14       -0.000014562847    -0.000008396643    -0.000009571834
      15        0.000007348620    -0.000002456684    -0.000006037433
      16        0.000015040289     0.000015394047    -0.000021925219
      17       -0.000063514937     0.000020694935     0.000073911422
      18        0.000017390456     0.000017739986     0.000006447102
      19        0.000008408961     0.000074412217    -0.000039777861

  **** Optimization is complete! (in 15 steps) ****
    Final optimized geometry and variables:
    Molecular point group: c1

    Geometry (in Angstrom), charge = 0, multiplicity = 1:

    O            1.668364341854    -0.666491477755     0.350993273262
    C            0.818134766223     0.164184106520     0.352991064093
    C           -0.552461177673    -0.147011837125    -0.276457951191
    C            1.070061364852     1.502809965086     1.010720231078
    C           -0.312629340245    -0.727249680744    -1.676679391503
    C           -1.466580545441     1.078459935286    -0.386901954312
    C           -1.218525540934    -1.204436008094     0.618874109196
    H            0.159772240663     0.001601286829    -2.326739902556
    H           -1.256950090360    -1.011333212095    -2.127236480323
    H            0.325176666228    -1.597585450753    -1.630167027722
    H           -1.034398486279     1.850857207093    -1.012313780406
    H           -2.407730339496     0.786799376867    -0.837387748200
    H           -1.691683002079     1.513211236292     0.579124992631
    H           -2.182404110617    -1.484135346482     0.209292881154
    H           -0.602752665523    -2.090209570872     0.688878931684
    H           -1.383475853587    -0.826764074012     1.622849754671
    H            0.355162950966     1.676675680296     1.806617244651
    H            2.070114117844     1.509156893754     1.415328023175
    H            0.960170671664     2.310474193843     0.297377417009

  Mulliken Charges: (a.u.)
   Center  Symbol    Alpha    Beta     Spin     Total
       1     O     4.18141  4.18141  0.00000 -0.36282
       2     C     2.84615  2.84615  0.00000  0.30769
       3     C     3.00568  3.00568  0.00000 -0.01137
       4     C     3.16273  3.16273  0.00000 -0.32546
       5     C     3.15347  3.15347  0.00000 -0.30695
       6     C     3.16564  3.16564  0.00000 -0.33127
       7     C     3.15338  3.15338  0.00000 -0.30676
       8     H     0.45031  0.45031  0.00000  0.09937
       9     H     0.45074  0.45074  0.00000  0.09851
      10     H     0.43506  0.43506  0.00000  0.12989
      11     H     0.44548  0.44548  0.00000  0.10904
      12     H     0.44252  0.44252  0.00000  0.11496
      13     H     0.44575  0.44575  0.00000  0.10850
      14     H     0.44917  0.44917  0.00000  0.10166
      15     H     0.43684  0.43684  0.00000  0.12632
      16     H     0.44977  0.44977  0.00000  0.10047
      17     H     0.44701  0.44701  0.00000  0.10599
      18     H     0.43170  0.43170  0.00000  0.13660
      19     H     0.44718  0.44718  0.00000  0.10563

   Total alpha = 28.00000, Total beta = 28.00000, Total charge =  0.00000

*** Psi4 exiting successfully. Buy a developer a beer!
