                              Psi4 1.0.54 Driver

  ==> Input File <==

--------------------------------------------------------------------------
set {
	reference rhf
	basis cc-pvtz
}

set_num_threads( 4 )
memory 2 gb

molecule MOL {
0 1

O	 1.107529	 1.476015	 0.403076
C	 0.804826	 0.624723	 1.167755
C	 -0.480160	 -0.162286	 1.137917
O	 1.577241	 0.245839	 2.172842
C	 -1.413045	 0.229353	 0.001137
H	 -0.211931	 -1.212255	 1.082242
H	 -0.959297	 -0.030786	 2.102592
C	 -2.702562	 -0.586401	 0.000228
H	 -0.897937	 0.103077	 -0.944516
H	 -1.646556	 1.285406	 0.077089
C	 -3.953810	 0.284959	 -0.000782
H	 -2.717793	 -1.238567	 -0.869075
H	 -2.719108	 -1.238472	 0.869576
H	 -3.983727	 0.924403	 -0.876454
H	 -4.852989	 -0.320147	 -0.001515
H	 -3.985140	 0.924399	 0.874841
C	 2.819222	 0.903848	 2.320585
H	 3.433116	 0.761074	 1.443672
H	 3.291108	 0.459064	 3.181607
H	 2.673587	 1.961920	 2.480266

	symmetry c1
}
set optking {
	frozen_dihedral = ("
		9 5 8 12
	")
}

ee,wfn = optimize('scf', return_wfn=True)
oeprop( wfn, 'DIPOLE', 'QUADRUPOLE', 'MULLIKEN_CHARGES')
f=open( 'psi4out.xyz', 'w' )
f.write( "20  " )
f.write( str(ee) + "\n" )
f.write( MOL.save_string_xyz() )
f.close()
--------------------------------------------------------------------------

    Molecular point group: c1
  Charge       = 0
  Multiplicity = 1
  Basis Set: CC-PVTZ
  Basis Set:
  @DF-RHF Final Energy:  -384.07733329483210
    Total Energy =                       -384.0773332948321013
    Molecular point group: c1
  Basis Set: CC-PVTZ
  Basis Set:
  Basis Set: CC-PVTZ
  Basis Set:
  @DF-RHF Final Energy:  -384.07758894334313
    Total Energy =                       -384.0775889433426755
  Basis Set: CC-PVTZ
  Basis Set:
  Basis Set: CC-PVTZ
  Basis Set:
  @DF-RHF Final Energy:  -384.07762957929890
    Total Energy =                       -384.0776295792987867
  Basis Set: CC-PVTZ
  Basis Set:
  Basis Set: CC-PVTZ
  Basis Set:
  @DF-RHF Final Energy:  -384.07766124092433
    Total Energy =                       -384.0776612409240443
  Basis Set: CC-PVTZ
  Basis Set:
  Basis Set: CC-PVTZ
  Basis Set:
  @DF-RHF Final Energy:  -384.07766368614944
    Total Energy =                       -384.0776636861492079
  Basis Set: CC-PVTZ
  Basis Set:
  Charge       = 0
  Multiplicity = 1
  Basis Set: CC-PVTZ
  Basis Set:

    Orbital Energies (a.u.)
    -----------------------

    Doubly Occupied:

       1A    -20.596372     2A    -20.534291     3A    -11.364470
       4A    -11.278542     5A    -11.234353     6A    -11.218191
       7A    -11.217147     8A    -11.209558     9A     -1.472257
      10A     -1.365866    11A     -1.087715    12A     -1.024620
      13A     -0.969866    14A     -0.886556    15A     -0.805056
      16A     -0.769429    17A     -0.701427    18A     -0.685979
      19A     -0.676226    20A     -0.637855    21A     -0.603661
      22A     -0.597844    23A     -0.576994    24A     -0.544942
      25A     -0.529378    26A     -0.523533    27A     -0.511241
      28A     -0.476501    29A     -0.474169    30A     -0.466824
      31A     -0.458226    32A     -0.439339

  @DF-RHF Final Energy:  -384.07766387138702

   => Energetics <=

    Nuclear Repulsion Energy =            382.1518474031798860
    One-Electron Energy =               -1280.5821725317418895
    Two-Electron Energy =                 514.3526612571753276
    DFT Exchange-Correlation Energy =       0.0000000000000000
    Empirical Dispersion Energy =           0.0000000000000000
    PCM Polarization Energy =               0.0000000000000000
    EFP Energy =                            0.0000000000000000
    Total Energy =                       -384.0776638713866760
    Molecular point group: c1
  Basis Set: CC-PVTZ
  Basis Set:

  -Total Gradient:
     Atom            X                  Y                   Z
    ------   -----------------  -----------------  -----------------
       1       -0.000020378811     0.000003538403    -0.000018898672
       2        0.000017935769     0.000006792113     0.000000034271
       3       -0.000006858570     0.000011175443    -0.000001775206
       4       -0.000007445887    -0.000018650297     0.000018911329
       5       -0.001231904941     0.001978382032    -0.001012651890
       6        0.000002268429    -0.000007762943    -0.000001769856
       7        0.000005071349     0.000004980370    -0.000010042388
       8        0.001149576806    -0.001841149765     0.001295941529
       9        0.000857868953    -0.001357565909     0.000651371997
      10        0.000002780952     0.000011796016     0.000001917585
      11        0.000013385815    -0.000007146506    -0.000003216196
      12       -0.000775564301     0.001227729248    -0.000923722432
      13       -0.000000638139    -0.000011798698     0.000007884209
      14       -0.000001507361     0.000000017280    -0.000001185473
      15        0.000001151020     0.000000768100     0.000000491686
      16        0.000002809032    -0.000001664473     0.000001156680
      17       -0.000004641368     0.000005515087    -0.000003982101
      18       -0.000000337747    -0.000000339955    -0.000000131361
      19       -0.000004312496    -0.000003533248    -0.000000120375
      20        0.000000741504    -0.000001082296    -0.000000213332

  **** Optimization is complete! (in 6 steps) ****
    Final optimized geometry and variables:
    Molecular point group: c1

    Geometry (in Angstrom), charge = 0, multiplicity = 1:

    O            1.359521968253     1.089223357451    -0.507273582803
    C            1.059531798203     0.235586005645     0.255975190888
    C           -0.227063794909    -0.549175218698     0.230140175969
    O            1.836433006348    -0.147830024485     1.255957792401
    C           -1.166431360678    -0.153122131137    -0.902230479368
    H            0.038349875922    -1.599623966636     0.170235618235
    H           -0.701952978018    -0.419434839161     1.197225781011
    C           -2.468158608225    -0.980636857766    -0.908849123129
    H           -0.639515612018    -0.274075245513    -1.839828217331
    H           -1.391953477927     0.902344168857    -0.816721239556
    C           -3.727572696647    -0.118477174622    -0.938598597236
    H           -2.479183084314    -1.634106775891    -1.774169778327
    H           -2.505932888508    -1.627335882652    -0.038152315855
    H           -3.742498920146     0.518396101718    -1.816517776047
    H           -4.622422097333    -0.730199580820    -0.956912127778
    H           -3.781758976729     0.524100832149    -0.065926851176
    C            3.079876368159     0.508119472548     1.400000763526
    H            3.689407253294     0.367645603580     0.519669987105
    H            3.555362417712     0.059790116768     2.257201625189
    H            2.936369211457     1.565827118148     1.564019198956

  Mulliken Charges: (a.u.)
   Center  Symbol    Alpha    Beta     Spin     Total
       1     O     4.19671  4.19671  0.00000 -0.39342
       2     C     2.80835  2.80835  0.00000  0.38330
       3     C     3.10002  3.10002  0.00000 -0.20003
       4     O     4.14695  4.14695  0.00000 -0.29390
       5     C     3.08819  3.08819  0.00000 -0.17638
       6     H     0.43881  0.43881  0.00000  0.12237
       7     H     0.43977  0.43977  0.00000  0.12046
       8     C     3.08986  3.08986  0.00000 -0.17972
       9     H     0.44319  0.44319  0.00000  0.11362
      10     H     0.44630  0.44630  0.00000  0.10740
      11     C     3.14671  3.14671  0.00000 -0.29341
      12     H     0.44967  0.44967  0.00000  0.10066
      13     H     0.45581  0.45581  0.00000  0.08839
      14     H     0.45250  0.45250  0.00000  0.09500
      15     H     0.44968  0.44968  0.00000  0.10064
      16     H     0.45581  0.45581  0.00000  0.08839
      17     C     3.03769  3.03769  0.00000 -0.07538
      18     H     0.45434  0.45434  0.00000  0.09133
      19     H     0.44530  0.44530  0.00000  0.10941
      20     H     0.45435  0.45435  0.00000  0.09131

   Total alpha = 32.00000, Total beta = 32.00000, Total charge =  0.00000

*** Psi4 exiting successfully. Buy a developer a beer!
