  ==> Input File <==

--------------------------------------------------------------------------
set {
	reference rhf
	basis 6-31G*
}

set_num_threads( 4 )
memory 2 gb

molecule MOL {
0 1

H	 1.447548	 1.010091	 -0.720764
C	 0.850167	 0.441173	 0.000644
C	 -0.623425	 0.760064	 0.000248
O	 1.370371	 -0.359573	 0.707707
C	 -1.518387	 -0.473136	 -0.000101
H	 -0.818289	 1.390622	 -0.866171
H	 -0.818694	 1.390413	 0.866696
H	 -1.333417	 -1.085530	 -0.874338
H	 -2.563510	 -0.183466	 -0.000351
H	 -1.333864	 -1.085676	 0.874123

	symmetry c1
}
set optking {
	frozen_dihedral = ("
		4 2 3 6
	")
}

ee = optimize('scf')
oeprop('DIPOLE', 'QUADRUPOLE', 'MULLIKEN_CHARGES')
f=open( 'psi4out.xyz', 'w' )
f.write( "10  " )
f.write( str(ee) + "\n" )
f.write( MOL.save_string_xyz() )
f.close()
--------------------------------------------------------------------------

    Molecular point group: c1
  Charge       = 0
  Multiplicity = 1
  Basis Set: 6-31G*
  Basis Set:
  @DF-RHF Final Energy:  -191.94887604212539
    Total Energy =                       -191.9488760421253915
    Molecular point group: c1
  Basis Set: 6-31G*
  Basis Set:
  Basis Set: 6-31G*
  Basis Set:
  @DF-RHF Final Energy:  -191.94816326419186
    Total Energy =                       -191.9481632641918907
  Basis Set: 6-31G*
  Basis Set:
  Basis Set: 6-31G*
  Basis Set:
  @DF-RHF Final Energy:  -191.94912207505780
    Total Energy =                       -191.9491220750578009
  Basis Set: 6-31G*
  Basis Set:
  Basis Set: 6-31G*
  Basis Set:
  @DF-RHF Final Energy:  -191.94938374551452
    Total Energy =                       -191.9493837455145524
  Basis Set: 6-31G*
  Basis Set:
  Charge       = 0
  Multiplicity = 1
  Basis Set: 6-31G*
  Basis Set:

    Orbital Energies (a.u.)
    -----------------------

    Doubly Occupied:

       1A    -20.564055     2A    -11.329046     3A    -11.239264
       4A    -11.223821     5A     -1.404585     6A     -1.059424
       7A     -0.907323     8A     -0.779581     9A     -0.683327
      10A     -0.637696    11A     -0.615992    12A     -0.558149
      13A     -0.535048    14A     -0.513874    15A     -0.490522
      16A     -0.412729

  @DF-RHF Final Energy:  -191.94938459436753

   => Energetics <=

    Nuclear Repulsion Energy =            118.7733894201877547
    One-Electron Energy =                -495.5366742389953743
    Two-Electron Energy =                 184.8139002244400331
    DFT Exchange-Correlation Energy =       0.0000000000000000
    Empirical Dispersion Energy =           0.0000000000000000
    PCM Polarization Energy =               0.0000000000000000
    EFP Energy =                            0.0000000000000000
    Total Energy =                       -191.9493845943675865
    Molecular point group: c1
  Basis Set: 6-31G*
  Basis Set:

  -Total Gradient:
     Atom            X                  Y                   Z
    ------   -----------------  -----------------  -----------------
       1       -0.000041174790     0.000014394981    -0.000009351688
       2       -0.000328393039    -0.001685576143    -0.001722280653
       3       -0.000335803319    -0.001526598630    -0.000820685698
       4        0.000269045276     0.001457843288     0.001404824049
       5        0.000051481621     0.000073413015     0.000018993658
       6        0.000354783653     0.001658210771     0.001087545751
       7        0.000020343312    -0.000002575631     0.000016645183
       8        0.000014971102     0.000020962498     0.000002321657
       9        0.000002038516     0.000009846855    -0.000003676429
      10       -0.000007292334    -0.000019921002     0.000025664170

  **** Optimization is complete! (in 5 steps) ****
    Final optimized geometry and variables:
    Molecular point group: c1

    Geometry (in Angstrom), charge = 0, multiplicity = 1:

    H            1.485943872120     0.942550183601    -0.858141497243
    C            0.844611412028     0.364645300019    -0.184374154799
    C           -0.632270017407     0.693572721056    -0.212521473612
    O            1.322801100306    -0.443190885589     0.544672656005
    C           -1.520560513327    -0.550247397108    -0.179909534176
    H           -0.847907073825     1.322691117892    -1.070397487514
    H           -0.824360477158     1.305090191501     0.667637178411
    H           -1.377138188206    -1.157070161302    -1.067903460439
    H           -2.566577641620    -0.268751957812    -0.131513206619
    H           -1.287032959111    -1.159067599804     0.683888418192

  Mulliken Charges: (a.u.)
   Center  Symbol    Alpha    Beta     Spin     Total
       1     H     0.42583  0.42583  0.00000  0.14835
       2     C     2.84394  2.84394  0.00000  0.31212
       3     C     3.20355  3.20355  0.00000 -0.40710
       4     O     4.23617  4.23617  0.00000 -0.47233
       5     C     3.24199  3.24199  0.00000 -0.48398
       6     H     0.41451  0.41451  0.00000  0.17097
       7     H     0.40084  0.40084  0.00000  0.19833
       8     H     0.41603  0.41603  0.00000  0.16794
       9     H     0.41528  0.41528  0.00000  0.16945
      10     H     0.40187  0.40187  0.00000  0.19626

   Total alpha = 16.00000, Total beta = 16.00000, Total charge =  0.00000
