                              Psi4 1.0.54 Driver

  ==> Input File <==

--------------------------------------------------------------------------
set {
	reference rhf
	basis cc-pvtz
}

set_num_threads( 4 )
memory 2 gb

molecule MOL {
0 1

O	 2.868453	 1.353349	 -0.000734
C	 2.841259	 0.166180	 -0.000295
C	 1.542794	 -0.614730	 -0.000853
C	 4.113372	 -0.651103	 0.000743
C	 0.288398	 0.247429	 0.000314
H	 1.557171	 -1.273139	 -0.866508
H	 1.557484	 -1.274998	 0.863344
C	 -0.112464	 0.701791	 -1.400392
H	 0.451067	 1.110828	 0.635290
H	 -0.524339	 -0.308106	 0.454157
C	 -1.368940	 1.567490	 -1.413135
H	 0.708245	 1.256129	 -1.850304
H	 -0.272007	 -0.169250	 -2.032132
C	 -1.776167	 2.026278	 -2.810424
H	 -1.210349	 2.438565	 -0.782112
H	 -2.190085	 1.013949	 -0.964313
C	 -3.032435	 2.890893	 -2.815011
H	 -0.956403	 2.580694	 -3.259367
H	 -1.936145	 1.156199	 -3.441525
H	 -2.892590	 3.787261	 -2.220024
H	 -3.293717	 3.199385	 -3.820787
H	 -3.879613	 2.352169	 -2.403780
H	 4.145311	 -1.294584	 -0.871587
H	 4.970080	 0.004978	 -0.000091
H	 4.145223	 -1.291980	 0.874988

	symmetry c1
}
set optking {
	frozen_dihedral = ("
		9 5 3 6
	")
}

ee,wfn = optimize('scf', return_wfn=True)
oeprop( wfn, 'DIPOLE', 'QUADRUPOLE', 'MULLIKEN_CHARGES')
f=open( 'psi4out.xyz', 'w' )
f.write( "25  " )
f.write( str(ee) + "\n" )
f.write( MOL.save_string_xyz() )
f.close()
--------------------------------------------------------------------------

    Molecular point group: c1
  Charge       = 0
  Multiplicity = 1
  Basis Set: CC-PVTZ
  Basis Set:
  @DF-RHF Final Energy:  -387.27319592082455
    Total Energy =                       -387.2731959208247190
    Molecular point group: c1
  Basis Set: CC-PVTZ
  Basis Set:
  Basis Set: CC-PVTZ
  Basis Set:
  @DF-RHF Final Energy:  -387.27337954335837
    Total Energy =                       -387.2733795433583737
  Basis Set: CC-PVTZ
  Basis Set:
  Basis Set: CC-PVTZ
  Basis Set:
  @DF-RHF Final Energy:  -387.27208096190020
    Total Energy =                       -387.2720809619004285
  Basis Set: CC-PVTZ
  Basis Set:
  Basis Set: CC-PVTZ
  Basis Set:
  @DF-RHF Final Energy:  -387.27344402715710
    Total Energy =                       -387.2734440271564154
  Basis Set: CC-PVTZ
  Basis Set:
  @DF-RHF Final Energy:  -387.27345788063178
    Total Energy =                       -387.2734578806317813
  @DF-RHF Final Energy:  -387.27346281656298
    Total Energy =                       -387.2734628165625281
  @DF-RHF Final Energy:  -387.27347061887338
    Total Energy =                       -387.2734706188736027
  Basis Set: CC-PVTZ
  Basis Set:
  @DF-RHF Final Energy:  -387.27347999604319
    Total Energy =                       -387.2734799960427381
  Basis Set: CC-PVTZ
  Basis Set:
  Basis Set: CC-PVTZ
  Basis Set:
  @DF-RHF Final Energy:  -387.27348305250928
    Total Energy =                       -387.2734830525091638
  Basis Set: CC-PVTZ
  Basis Set:
  Basis Set: CC-PVTZ
  Basis Set:
  @DF-RHF Final Energy:  -387.27348473608322
    Total Energy =                       -387.2734847360827644
  Basis Set: CC-PVTZ
  Basis Set:
  Charge       = 0
  Multiplicity = 1
  Basis Set: CC-PVTZ
  Basis Set:

    Orbital Energies (a.u.)
    -----------------------

    Doubly Occupied:

       1A    -20.539736     2A    -11.321625     3A    -11.230623
       4A    -11.227121     5A    -11.214568     6A    -11.210312
       7A    -11.209963     8A    -11.208134     9A    -11.203956
      10A     -1.400010    11A     -1.092495    12A     -1.055976
      13A     -1.014812    14A     -0.968238    15A     -0.889683
      16A     -0.815186    17A     -0.788301    18A     -0.729169
      19A     -0.670597    20A     -0.638878    21A     -0.634640
      22A     -0.625598    23A     -0.592299    24A     -0.585480
      25A     -0.575022    26A     -0.557328    27A     -0.534350
      28A     -0.526165    29A     -0.516817    30A     -0.500084
      31A     -0.483017    32A     -0.475112    33A     -0.460819
      34A     -0.459511    35A     -0.441612    36A     -0.403350

  @DF-RHF Final Energy:  -387.27348521857118

   => Energetics <=

    Nuclear Repulsion Energy =            447.4739673984437331
    One-Electron Energy =               -1411.8937296665594658
    Two-Electron Energy =                 577.1462770495438690
    DFT Exchange-Correlation Energy =       0.0000000000000000
    Empirical Dispersion Energy =           0.0000000000000000
    PCM Polarization Energy =               0.0000000000000000
    EFP Energy =                            0.0000000000000000
    Total Energy =                       -387.2734852185718637
    Molecular point group: c1
  Basis Set: CC-PVTZ
  Basis Set:

  -Total Gradient:
     Atom            X                  Y                   Z
    ------   -----------------  -----------------  -----------------
       1        0.000046137846     0.000070112200     0.000005822124
       2       -0.000059705182    -0.000120789232     0.000045885206
       3       -0.001279480554    -0.001780899455     0.001217197057
       4       -0.000023881220     0.000018671178    -0.000045166775
       5       -0.000800844857    -0.000932327240     0.001966547268
       6        0.001214313327     0.001617707785    -0.001324309735
       7        0.000021564662    -0.000000394293     0.000002988169
       8       -0.000031252903     0.000006243232     0.000032378233
       9        0.000901985082     0.001138228544    -0.001911561270
      10       -0.000014012570    -0.000018465281    -0.000003409960
      11       -0.000000167464    -0.000000012692    -0.000025319127
      12        0.000007968664     0.000010007398     0.000000374741
      13        0.000000562905    -0.000019869847    -0.000003969998
      14        0.000022782616     0.000004525209     0.000015176024
      15        0.000004342770     0.000007963489    -0.000000856114
      16       -0.000020136646    -0.000008923591     0.000013594451
      17       -0.000011550734    -0.000000179952    -0.000006076872
      18        0.000014211293     0.000006310773    -0.000006435013
      19       -0.000001732858    -0.000007187197    -0.000003701802
      20        0.000006008084     0.000008148042     0.000003224959
      21       -0.000000078579    -0.000005277281     0.000000566200
      22       -0.000013383068    -0.000003942473     0.000006560290
      23        0.000021816965     0.000016595411     0.000074214644
      24       -0.000020883934    -0.000048369876    -0.000012562397
      25        0.000015416359     0.000042125151    -0.000041160300

  **** Optimization is complete! (in 11 steps) ****
    Final optimized geometry and variables:
    Molecular point group: c1

    Geometry (in Angstrom), charge = 0, multiplicity = 1:

    O            2.247979593493     0.494088547392     1.092023220012
    C            2.207319305631    -0.691250966909     1.033566720070
    C            0.902763072373    -1.468227014419     1.041759146729
    C            3.470769068915    -1.517294147707     0.948786339378
    C           -0.353269163629    -0.604536624398     0.960500288161
    H            0.946122532626    -2.172263097018     0.214621814089
    H            0.907173101329    -2.068961057068     1.947325304560
    C           -0.705654610720    -0.187952882015    -0.466610252708
    H           -0.202234516469     0.287335899454     1.554948631552
    H           -1.186819609244    -1.149751442404     1.391070762871
    C           -1.935863705624     0.711110192592    -0.540008877471
    H            0.141269951154     0.329093794364    -0.907283561006
    H           -0.875699914114    -1.077825625451    -1.069346742340
    C           -2.300959565585     1.123967812379    -1.963005967266
    H           -1.762287916763     1.602339527689     0.057599394914
    H           -2.783208542924     0.200741582379    -0.087122111841
    C           -3.529364207847     2.025354113657    -2.029234597342
    H           -1.455332501866     1.634414286136    -2.415514359277
    H           -2.475392360794     0.233967865749    -2.561908255015
    H           -3.372787625507     2.941154588486    -1.469043462541
    H           -3.761361735709     2.299378708289    -3.052090478426
    H           -4.401102086744     1.530452798788    -1.613795279116
    H            3.527541486758    -1.991971375231    -0.025057164267
    H            4.333422595452    -0.884328466672     1.088765505696
    H            3.465646713031    -2.306093031479     1.692096695498

  Mulliken Charges: (a.u.)
   Center  Symbol    Alpha    Beta     Spin     Total
       1     O     4.17316  4.17316  0.00000 -0.34633
       2     C     2.86017  2.86017  0.00000  0.27965
       3     C     3.12252  3.12252  0.00000 -0.24504
       4     C     3.15053  3.15053  0.00000 -0.30106
       5     C     3.09552  3.09552  0.00000 -0.19105
       6     H     0.44516  0.44516  0.00000  0.10968
       7     H     0.43397  0.43397  0.00000  0.13206
       8     C     3.08733  3.08733  0.00000 -0.17466
       9     H     0.44274  0.44274  0.00000  0.11452
      10     H     0.44613  0.44613  0.00000  0.10774
      11     C     3.08886  3.08886  0.00000 -0.17773
      12     H     0.44845  0.44845  0.00000  0.10309
      13     H     0.45835  0.45835  0.00000  0.08330
      14     C     3.08369  3.08369  0.00000 -0.16737
      15     H     0.45155  0.45155  0.00000  0.09691
      16     H     0.45664  0.45664  0.00000  0.08673
      17     C     3.15056  3.15056  0.00000 -0.30113
      18     H     0.45351  0.45351  0.00000  0.09299
      19     H     0.45621  0.45621  0.00000  0.08758
      20     H     0.45440  0.45440  0.00000  0.09121
      21     H     0.44886  0.44886  0.00000  0.10228
      22     H     0.45592  0.45592  0.00000  0.08815
      23     H     0.44938  0.44938  0.00000  0.10124
      24     H     0.43547  0.43547  0.00000  0.12906
      25     H     0.45090  0.45090  0.00000  0.09820

   Total alpha = 36.00000, Total beta = 36.00000, Total charge = -0.00000

*** Psi4 exiting successfully. Buy a developer a beer!
