                              Psi4 1.0.54 Driver

  ==> Input File <==

--------------------------------------------------------------------------
set {
	reference rhf
	basis cc-pvtz
}

set_num_threads( 4 )
memory 2 gb

molecule MOL {
0 1

O	 0.395927	 1.296676	 -0.000076
C	 0.503051	 0.114301	 -0.000074
C	 -0.701422	 -0.805636	 -0.000109
C	 1.858118	 -0.556123	 0.000212
C	 -0.817140	 -1.675434	 -1.241939
H	 -0.647334	 -1.416343	 0.897414
H	 -1.586401	 -0.186844	 0.123777
H	 0.052212	 -2.309414	 -1.353855
H	 -1.695547	 -2.306500	 -1.178599
H	 -0.895185	 -1.069030	 -2.134359
H	 1.961106	 -1.191101	 -0.872843
H	 2.636688	 0.191085	 -0.000109
H	 1.961070	 -1.190284	 0.873873

	symmetry c1
}
set optking {
	frozen_dihedral = ("
		6 3 2 1
	")
}

ee,wfn = optimize('scf', return_wfn=True)
oeprop( wfn, 'DIPOLE', 'QUADRUPOLE', 'MULLIKEN_CHARGES')
f=open( 'psi4out.xyz', 'w' )
f.write( "13  " )
f.write( str(ee) + "\n" )
f.write( MOL.save_string_xyz() )
f.close()
--------------------------------------------------------------------------

    Molecular point group: c1
  Charge       = 0
  Multiplicity = 1
  Basis Set: CC-PVTZ
  Basis Set:
  @DF-RHF Final Energy:  -231.08031791198937
    Total Energy =                       -231.0803179119894253
    Molecular point group: c1
  Basis Set: CC-PVTZ
  Basis Set:
  Basis Set: CC-PVTZ
  Basis Set:
  @DF-RHF Final Energy:  -231.07966116460878
    Total Energy =                       -231.0796611646089787
  Basis Set: CC-PVTZ
  Basis Set:
  Basis Set: CC-PVTZ
  Basis Set:
  @DF-RHF Final Energy:  -231.08031254710806
    Total Energy =                       -231.0803125471078943
  Basis Set: CC-PVTZ
  Basis Set:
  Basis Set: CC-PVTZ
  Basis Set:
  @DF-RHF Final Energy:  -231.08094023873846
    Total Energy =                       -231.0809402387383784
  Basis Set: CC-PVTZ
  Basis Set:
  @DF-RHF Final Energy:  -231.08097118532126
    Total Energy =                       -231.0809711853214594
  @DF-RHF Final Energy:  -231.08098077379026
    Total Energy =                       -231.0809807737902872
  @DF-RHF Final Energy:  -231.08099927460765
    Total Energy =                       -231.0809992746075636
  Basis Set: CC-PVTZ
  Basis Set:
  @DF-RHF Final Energy:  -231.08101271800027
    Total Energy =                       -231.0810127180002382
  Basis Set: CC-PVTZ
  Basis Set:
  Basis Set: CC-PVTZ
  Basis Set:
  @DF-RHF Final Energy:  -231.08102057365997
    Total Energy =                       -231.0810205736600551
  Basis Set: CC-PVTZ
  Basis Set:
  Basis Set: CC-PVTZ
  Basis Set:
  @DF-RHF Final Energy:  -231.08102222732060
    Total Energy =                       -231.0810222273206023
  Basis Set: CC-PVTZ
  Basis Set:
  Charge       = 0
  Multiplicity = 1
  Basis Set: CC-PVTZ
  Basis Set:

    Orbital Energies (a.u.)
    -----------------------

    Doubly Occupied:

       1A    -20.538670     2A    -11.320438     3A    -11.232232
       4A    -11.228650     5A    -11.227226     6A     -1.398339
       7A     -1.068785     8A     -0.995546     9A     -0.888900
      10A     -0.734664    11A     -0.655666    12A     -0.649700
      13A     -0.615621    14A     -0.593840    15A     -0.562242
      16A     -0.543650    17A     -0.530078    18A     -0.504027
      19A     -0.487454    20A     -0.402443

  @DF-RHF Final Energy:  -231.08102276410813

   => Energetics <=

    Nuclear Repulsion Energy =            177.2495332806459487
    One-Electron Energy =                -664.3047708590428329
    Two-Electron Energy =                 255.9742148142887004
    DFT Exchange-Correlation Energy =       0.0000000000000000
    Empirical Dispersion Energy =           0.0000000000000000
    PCM Polarization Energy =               0.0000000000000000
    EFP Energy =                            0.0000000000000000
    Total Energy =                       -231.0810227641081838
    Molecular point group: c1
  Basis Set: CC-PVTZ
  Basis Set:

  -Total Gradient:
     Atom            X                  Y                   Z
    ------   -----------------  -----------------  -----------------
       1        0.000000841220     0.000005177081    -0.000020072875
       2        0.000010054206    -0.000003642630     0.000036989639
       3       -0.000016666541     0.000019808160    -0.000004666836
       4       -0.000023606724     0.000017896793     0.000008902538
       5       -0.000000393262    -0.000000190693     0.000002894321
       6        0.000016456532    -0.000021301549    -0.000012458388
       7        0.000001339271     0.000000139352    -0.000000308640
       8        0.000001109649    -0.000001933699     0.000001033459
       9       -0.000002881014    -0.000000315699    -0.000001190630
      10        0.000000649021     0.000000765407    -0.000002222922
      11        0.000000872301    -0.000017297168    -0.000026818369
      12        0.000013387153     0.000018600649    -0.000000866107
      13       -0.000001161812    -0.000017706005     0.000018784811

  **** Optimization is complete! (in 11 steps) ****
    Final optimized geometry and variables:
    Molecular point group: c1

    Geometry (in Angstrom), charge = 0, multiplicity = 1:

    O            0.074458587322     1.622988793159     0.293591768315
    C            0.220137960976     0.444138886032     0.280623437161
    C           -0.967711944151    -0.493283996582     0.190127048571
    C            1.599744113525    -0.172547841527     0.350390759618
    C           -0.958981450409    -1.372407231841    -1.062768388264
    H           -0.968820774688    -1.124781808067     1.074143587809
    H           -1.858500582948     0.118050117745     0.216501532599
    H           -0.112190624231    -2.047354524266    -1.078777609457
    H           -1.858277230815    -1.973752983410    -1.100439601747
    H           -0.926333985279    -0.767891208875    -1.961786792911
    H            1.871831214899    -0.568278514821    -0.621841501118
    H            2.316961696802     0.582093127089     0.634440621536
    H            1.625402561623    -0.995416332213     1.055258341835

  Mulliken Charges: (a.u.)
   Center  Symbol    Alpha    Beta     Spin     Total
       1     O     4.17135  4.17135  0.00000 -0.34269
       2     C     2.85463  2.85463  0.00000  0.29073
       3     C     3.09724  3.09724  0.00000 -0.19449
       4     C     3.16035  3.16035  0.00000 -0.32069
       5     C     3.15626  3.15626  0.00000 -0.31251
       6     H     0.44990  0.44990  0.00000  0.10021
       7     H     0.43756  0.43756  0.00000  0.12487
       8     H     0.45285  0.45285  0.00000  0.09431
       9     H     0.44244  0.44244  0.00000  0.11512
      10     H     0.44660  0.44660  0.00000  0.10680
      11     H     0.44791  0.44791  0.00000  0.10418
      12     H     0.43298  0.43298  0.00000  0.13404
      13     H     0.44994  0.44994  0.00000  0.10012

   Total alpha = 20.00000, Total beta = 20.00000, Total charge = -0.00000

*** Psi4 exiting successfully. Buy a developer a beer!
