  ==> Input File <==

--------------------------------------------------------------------------
set {
	reference rhf
	basis 6-31G*
}

set_num_threads( 4 )
memory 2 gb

molecule MOL {
0 1

H	 -3.301617	 0.570527	 0.000000
C	 -2.250981	 0.344174	 0.000000
C	 -1.813665	 -0.976045	 0.000000
C	 -1.315303	 1.358057	 0.000000
H	 -2.528860	 -1.779366	 0.000000
C	 -0.467298	 -1.270142	 0.000000
H	 -1.635074	 2.385107	 0.000000
C	 0.047081	 1.078114	 0.000000
H	 -0.115948	 -2.285222	 0.000000
C	 0.472063	 -0.241155	 0.000000
H	 0.749976	 1.888426	 0.000000
O	 1.765256	 -0.628444	 0.000000
C	 2.256078	 -1.408961	 1.051170
H	 2.176553	 -0.891063	 2.001322
H	 3.297968	 -1.589267	 0.832610
H	 1.736796	 -2.359451	 1.116346

	symmetry c1
}
set optking {
	frozen_dihedral = ("
		13 12 10 8
	")
}

ee = optimize('scf')
oeprop('DIPOLE', 'QUADRUPOLE', 'MULLIKEN_CHARGES')
f=open( 'psi4out.xyz', 'w' )
f.write( "16  " )
f.write( str(ee) + "\n" )
f.write( MOL.save_string_xyz() )
f.close()
--------------------------------------------------------------------------

    Molecular point group: c1
  Charge       = 0
  Multiplicity = 1
  Basis Set: 6-31G*
  Basis Set:
  @DF-RHF Final Energy:  -344.57629364752182
    Total Energy =                       -344.5762936475222205
    Molecular point group: c1
  Basis Set: 6-31G*
  Basis Set:
  Basis Set: 6-31G*
  Basis Set:
  @DF-RHF Final Energy:  -344.57970514244005
    Total Energy =                       -344.5797051424400479
  Basis Set: 6-31G*
  Basis Set:
  Basis Set: 6-31G*
  Basis Set:
  @DF-RHF Final Energy:  -344.58021734665721
    Total Energy =                       -344.5802173466574914
  Basis Set: 6-31G*
  Basis Set:
  Basis Set: 6-31G*
  Basis Set:
  @DF-RHF Final Energy:  -344.58027608901068
    Total Energy =                       -344.5802760890105674
  Basis Set: 6-31G*
  Basis Set:
  Basis Set: 6-31G*
  Basis Set:
  @DF-RHF Final Energy:  -344.58028402033585
    Total Energy =                       -344.5802840203360233
  Basis Set: 6-31G*
  Basis Set:
  Charge       = 0
  Multiplicity = 1
  Basis Set: 6-31G*
  Basis Set:

    Orbital Energies (a.u.)
    -----------------------

    Doubly Occupied:

       1A    -20.573826     2A    -11.287347     3A    -11.276103
       4A    -11.233691     5A    -11.232571     6A    -11.226194
       7A    -11.224905     8A    -11.223114     9A     -1.401975
      10A     -1.147310    11A     -1.018052    12A     -1.014436
      13A     -0.934874    14A     -0.833635    15A     -0.806017
      16A     -0.715191    17A     -0.666134    18A     -0.662042
      19A     -0.639535    20A     -0.613651    21A     -0.594295
      22A     -0.583316    23A     -0.529563    24A     -0.508382
      25A     -0.505034    26A     -0.482371    27A     -0.440854
      28A     -0.335037    29A     -0.316990

  @DF-RHF Final Energy:  -344.58028501276391

   => Energetics <=

    Nuclear Repulsion Energy =            347.9306300825634821
    One-Electron Energy =               -1156.9689396925198253
    Two-Electron Energy =                 464.4580245971924342
    DFT Exchange-Correlation Energy =       0.0000000000000000
    Empirical Dispersion Energy =           0.0000000000000000
    PCM Polarization Energy =               0.0000000000000000
    EFP Energy =                            0.0000000000000000
    Total Energy =                       -344.5802850127638521
    Molecular point group: c1
  Basis Set: 6-31G*
  Basis Set:

  -Total Gradient:
     Atom            X                  Y                   Z
    ------   -----------------  -----------------  -----------------
       1       -0.000006958280    -0.000027262914     0.000011269765
       2        0.000032391035     0.000076848916     0.000040715402
       3        0.000026311828    -0.000055702177    -0.000059517124
       4       -0.000035392976    -0.000041688697    -0.000050256767
       5       -0.000029767442     0.000010508250     0.000006974351
       6       -0.000014547206    -0.000091708951     0.000031788486
       7        0.000016301431    -0.000002127039     0.000006475374
       8        0.000022055556    -0.000054363905    -0.000141478768
       9       -0.000006949446     0.000025007501     0.000006713421
      10       -0.000118299340     0.000140280204     0.000199402879
      11        0.000015826229    -0.000005034295     0.000004512057
      12        0.000135681498     0.000162323223    -0.000002994484
      13       -0.000033961427    -0.000154136864     0.000006732718
      14        0.000000885234    -0.000001411005    -0.000021496371
      15        0.000005507852     0.000008020863    -0.000011502528
      16       -0.000009084549     0.000010446891    -0.000027338412

  **** Optimization is complete! (in 6 steps) ****
    Final optimized geometry and variables:
    Molecular point group: c1

    Geometry (in Angstrom), charge = 0, multiplicity = 1:

    H           -3.213086735419     0.883831860555    -0.149767902707
    C           -2.170296560813     0.622621756138    -0.147831883566
    C           -1.783912684486    -0.708138239461    -0.157357655616
    C           -1.200894944862     1.612689593219    -0.142220641644
    H           -2.528561953534    -1.484088564921    -0.171620539721
    C           -0.442018037698    -1.051966299447    -0.158804109048
    H           -1.489281603583     2.648793371470    -0.139400372010
    C            0.143103277884     1.278146867619    -0.135785988925
    H           -0.145862869875    -2.084501382363    -0.187893934411
    C            0.522044568153    -0.054502379767    -0.142517353425
    H            0.906529715559     2.034100119924    -0.132518022917
    O            1.851821397084    -0.343369256747    -0.178382525948
    C            2.371146234862    -1.087037043294     0.893702310364
    H            2.170055700857    -0.595446151980     1.840067693191
    H            3.438779929390    -1.146879732131     0.739501486360
    H            1.963020445443    -2.091057759656     0.923331338882

  Mulliken Charges: (a.u.)
   Center  Symbol    Alpha    Beta     Spin     Total
       1     H     0.40014  0.40014  0.00000  0.19972
       2     C     3.10709  3.10709  0.00000 -0.21418
       3     C     3.09544  3.09544  0.00000 -0.19089
       4     C     3.09587  3.09587  0.00000 -0.19173
       5     H     0.39873  0.39873  0.00000  0.20254
       6     C     3.12587  3.12587  0.00000 -0.25175
       7     H     0.39837  0.39837  0.00000  0.20325
       8     C     3.12222  3.12222  0.00000 -0.24443
       9     H     0.39634  0.39634  0.00000  0.20731
      10     C     2.79613  2.79613  0.00000  0.40773
      11     H     0.39333  0.39333  0.00000  0.21335
      12     O     4.33187  4.33187  0.00000 -0.66374
      13     C     3.08360  3.08360  0.00000 -0.16721
      14     H     0.42131  0.42131  0.00000  0.15739
      15     H     0.40942  0.40942  0.00000  0.18115
      16     H     0.42426  0.42426  0.00000  0.15149

   Total alpha = 29.00000, Total beta = 29.00000, Total charge =  0.00000
