  ==> Input File <==

--------------------------------------------------------------------------
set {
	reference rhf
	basis 6-31G*
}

set_num_threads( 4 )
memory 2 gb

molecule MOL {
0 1

H	 2.089711	 -0.928549	 -0.628723
C	 1.773699	 0.111571	 -0.773941
C	 0.692068	 0.589600	 0.160137
O	 2.277649	 0.775677	 -1.620774
C	 -0.558097	 -0.297372	 0.091132
H	 0.460470	 1.619126	 -0.086681
H	 1.094136	 0.567976	 1.172414
C	 -1.850991	 0.512573	 -0.019058
H	 -0.476753	 -0.965681	 -0.762987
H	 -0.604799	 -0.930658	 0.975228
C	 -3.096943	 -0.368295	 -0.099594
H	 -1.800724	 1.150330	 -0.898172
H	 -1.931651	 1.177355	 0.838044
H	 -3.060452	 -1.020287	 -0.967456
H	 -3.996858	 0.233488	 -0.175704
H	 -3.191959	 -0.995686	 0.782074

	symmetry c1
}
set optking {
	frozen_dihedral = ("
		6 3 5 9
	")
}

ee = optimize('scf')
oeprop('DIPOLE', 'QUADRUPOLE', 'MULLIKEN_CHARGES')
f=open( 'psi4out.xyz', 'w' )
f.write( "16  " )
f.write( str(ee) + "\n" )
f.write( MOL.save_string_xyz() )
f.close()
--------------------------------------------------------------------------

    Molecular point group: c1
  Charge       = 0
  Multiplicity = 1
  Basis Set: 6-31G*
  Basis Set:
  @DF-RHF Final Energy:  -270.01506156806352
    Total Energy =                       -270.0150615680635156
    Molecular point group: c1
  Basis Set: 6-31G*
  Basis Set:
  Basis Set: 6-31G*
  Basis Set:
  @DF-RHF Final Energy:  -270.01454321646816
    Total Energy =                       -270.0145432164682120
  Basis Set: 6-31G*
  Basis Set:
  Basis Set: 6-31G*
  Basis Set:
  @DF-RHF Final Energy:  -270.01326336796615
    Total Energy =                       -270.0132633679663172
  Basis Set: 6-31G*
  Basis Set:
  Basis Set: 6-31G*
  Basis Set:
  @DF-RHF Final Energy:  -270.01537979143586
    Total Energy =                       -270.0153797914358620
  Basis Set: 6-31G*
  Basis Set:
  @DF-RHF Final Energy:  -270.01535840389704
    Total Energy =                       -270.0153584038968120
  Basis Set: 6-31G*
  Basis Set:
  @DF-RHF Final Energy:  -270.01543096920750
    Total Energy =                       -270.0154309692075003
  Basis Set: 6-31G*
  Basis Set:
  Basis Set: 6-31G*
  Basis Set:
  @DF-RHF Final Energy:  -270.01543977605240
    Total Energy =                       -270.0154397760524034
  Basis Set: 6-31G*
  Basis Set:
  Basis Set: 6-31G*
  Basis Set:
  @DF-RHF Final Energy:  -270.01544486151465
    Total Energy =                       -270.0154448615143110
  Basis Set: 6-31G*
  Basis Set:
  Charge       = 0
  Multiplicity = 1
  Basis Set: 6-31G*
  Basis Set:

    Orbital Energies (a.u.)
    -----------------------

    Doubly Occupied:

       1A    -20.561993     2A    -11.327014     3A    -11.236239
       4A    -11.235007     5A    -11.228690     6A    -11.217795
       7A     -1.402247     8A     -1.094112     9A     -1.017740
      10A     -0.906233    11A     -0.812573    12A     -0.795234
      13A     -0.672004    14A     -0.649425    15A     -0.625497
      16A     -0.603342    17A     -0.589994    18A     -0.538756
      19A     -0.527778    20A     -0.517798    21A     -0.486178
      22A     -0.482392    23A     -0.470010    24A     -0.410081

  @DF-RHF Final Energy:  -270.01544542384858

   => Energetics <=

    Nuclear Repulsion Energy =            229.1218618245125640
    One-Electron Energy =                -819.4583503609705986
    Two-Electron Energy =                 320.3210431126094591
    DFT Exchange-Correlation Energy =       0.0000000000000000
    Empirical Dispersion Energy =           0.0000000000000000
    PCM Polarization Energy =               0.0000000000000000
    EFP Energy =                            0.0000000000000000
    Total Energy =                       -270.0154454238486323
    Molecular point group: c1
  Basis Set: 6-31G*
  Basis Set:

  -Total Gradient:
     Atom            X                  Y                   Z
    ------   -----------------  -----------------  -----------------
       1       -0.000027045450    -0.000001942428     0.000029603890
       2       -0.000004550631    -0.000002611870    -0.000018954355
       3        0.000833346943    -0.000952566336    -0.002544090586
       4       -0.000006916784     0.000026551909     0.000011140201
       5       -0.001413319086     0.002068808124    -0.001068636111
       6       -0.000438872007     0.000440857645     0.002257100396
       7        0.000006173768    -0.000003920661     0.000001429722
       8        0.000012658293    -0.000004293523    -0.000015509739
       9        0.001033724802    -0.001559498116     0.001338147139
      10        0.000003228589    -0.000004669459     0.000005844603
      11       -0.000003061445    -0.000001370072    -0.000003142652
      12       -0.000009363730     0.000008709714    -0.000002393426
      13        0.000017418762    -0.000015047656     0.000000565951
      14        0.000007824566    -0.000001676133     0.000010205638
      15       -0.000003147805    -0.000000967218    -0.000007320636
      16       -0.000008098793     0.000003636080     0.000006009967

  **** Optimization is complete! (in 9 steps) ****
    Final optimized geometry and variables:
    Molecular point group: c1

    Geometry (in Angstrom), charge = 0, multiplicity = 1:

    H            2.128972381149    -1.183474862340    -0.339391342306
    C            1.913361874479    -0.109590385978    -0.393303777996
    C            0.800401561773     0.367862854038     0.503284395023
    O            2.542604734908     0.590377621396    -1.118321531099
    C           -0.460689278696    -0.523375245123     0.431708714124
    H            0.580127620107     1.399291639979     0.254647477619
    H            1.190667736923     0.372332536296     1.519494141905
    C           -1.757417752865     0.282014032971     0.335674164665
    H           -0.393118228370    -1.201114724273    -0.417473175195
    H           -0.503960133245    -1.165920092662     1.306689924794
    C           -3.002205672990    -0.602275945116     0.293807485073
    H           -1.724184681544     0.907137631524    -0.553236871445
    H           -1.821320875172     0.959232000865     1.184320758739
    H           -2.979740857354    -1.271019437780    -0.561890233409
    H           -3.904432899391    -0.003513121254     0.221671129799
    H           -3.080939603994    -1.212835776515     1.188810205214

  Mulliken Charges: (a.u.)
   Center  Symbol    Alpha    Beta     Spin     Total
       1     H     0.43143  0.43143  0.00000  0.13715
       2     C     2.83179  2.83179  0.00000  0.33642
       3     C     3.21130  3.21130  0.00000 -0.42260
       4     O     4.23805  4.23805  0.00000 -0.47610
       5     C     3.16552  3.16552  0.00000 -0.33104
       6     H     0.39720  0.39720  0.00000  0.20560
       7     H     0.40488  0.40488  0.00000  0.19024
       8     C     3.15316  3.15316  0.00000 -0.30633
       9     H     0.41674  0.41674  0.00000  0.16651
      10     H     0.41574  0.41574  0.00000  0.16852
      11     C     3.24122  3.24122  0.00000 -0.48243
      12     H     0.41700  0.41700  0.00000  0.16600
      13     H     0.41941  0.41941  0.00000  0.16117
      14     H     0.41982  0.41982  0.00000  0.16037
      15     H     0.41614  0.41614  0.00000  0.16773
      16     H     0.42061  0.42061  0.00000  0.15879

   Total alpha = 24.00000, Total beta = 24.00000, Total charge = -0.00000
