  ==> Input File <==

--------------------------------------------------------------------------
set {
	reference rhf
	basis cc-pvtz
}

set_num_threads( 4 )
memory 2 gb

molecule MOL {
0 1

H	 -3.162190	 0.493205	 -0.000107
C	 -2.363908	 -0.234727	 0.000005
O	 -1.158738	 0.454634	 -0.000087
H	 -2.464314	 -0.863616	 -0.882153
H	 -2.464327	 -0.863359	 0.882345
C	 -0.028611	 -0.359694	 0.000037
C	 1.007105	 0.223928	 0.939755
H	 0.378688	 -0.434122	 -1.008529
H	 -0.295081	 -1.368980	 0.314647
C	 2.279826	 -0.613539	 0.996161
H	 1.237822	 1.232801	 0.615919
H	 0.569425	 0.305322	 1.928574
H	 2.747878	 -0.687739	 0.020196
H	 3.001532	 -0.174283	 1.673816
H	 2.075067	 -1.621311	 1.341902

	symmetry c1
}
set optking {
	frozen_dihedral = ("
		8 6 3 2
	")
}

ee = optimize('scf')
oeprop('DIPOLE', 'QUADRUPOLE', 'MULLIKEN_CHARGES')
f=open( 'psi4out.xyz', 'w' )
f.write( "15  " )
f.write( str(ee) + "\n" )
f.write( MOL.save_string_xyz() )
f.close()
--------------------------------------------------------------------------

    Molecular point group: c1
  Charge       = 0
  Multiplicity = 1
  Basis Set: CC-PVTZ
  Basis Set:
  @DF-RHF Final Energy:  -232.22512747054111
    Total Energy =                       -232.2251274705411106
    Molecular point group: c1
  Basis Set: CC-PVTZ
  Basis Set:
  Basis Set: CC-PVTZ
  Basis Set:
  @DF-RHF Final Energy:  -232.22532469457778
    Total Energy =                       -232.2253246945779779
  Basis Set: CC-PVTZ
  Basis Set:
  Basis Set: CC-PVTZ
  Basis Set:
  @DF-RHF Final Energy:  -232.22538357170447
    Total Energy =                       -232.2253835717042989
  Basis Set: CC-PVTZ
  Basis Set:
  Charge       = 0
  Multiplicity = 1
  Basis Set: CC-PVTZ
  Basis Set:

    Orbital Energies (a.u.)
    -----------------------

    Doubly Occupied:

       1A    -20.545072     2A    -11.264111     3A    -11.262384
       4A    -11.212357     5A    -11.210587     6A     -1.378116
       7A     -1.057779     8A     -0.956682     9A     -0.878096
      10A     -0.808614    11A     -0.674058    12A     -0.654833
      13A     -0.634483    14A     -0.604278    15A     -0.567167
      16A     -0.540703    17A     -0.503914    18A     -0.491774
      19A     -0.480890    20A     -0.463834    21A     -0.409845

  @DF-RHF Final Energy:  -232.22538432783574

   => Energetics <=

    Nuclear Repulsion Energy =            190.0169227951232642
    One-Electron Energy =                -691.2854557551763719
    Two-Electron Energy =                 269.0431486322171963
    DFT Exchange-Correlation Energy =       0.0000000000000000
    Empirical Dispersion Energy =           0.0000000000000000
    PCM Polarization Energy =               0.0000000000000000
    EFP Energy =                            0.0000000000000000
    Total Energy =                       -232.2253843278359113
    Molecular point group: c1
  Basis Set: CC-PVTZ
  Basis Set:

  -Total Gradient:
     Atom            X                  Y                   Z
    ------   -----------------  -----------------  -----------------
       1       -0.000009228422     0.000002856979    -0.000002010248
       2       -0.000125012214     0.000027099787     0.002034334665
       3        0.000476306742     0.000437461250    -0.002838001495
       4        0.000030579164     0.000014423971     0.000016586621
       5        0.000043550651     0.000011533852    -0.000007444280
       6       -0.001887959563    -0.002461798704     0.000397867953
       7        0.000001025178    -0.000003983272    -0.000067680611
       8        0.001445176602     0.002008080631     0.000457615663
       9        0.000011337771    -0.000028295854    -0.000000533824
      10        0.000009714309    -0.000018661553     0.000019761367
      11        0.000003385414     0.000015416190     0.000005959167
      12       -0.000013362216    -0.000007677369    -0.000012746100
      13        0.000000023837     0.000001958184     0.000000963434
      14        0.000006561378    -0.000001456494     0.000004087931
      15        0.000007901368     0.000003042403    -0.000008760244

  **** Optimization is complete! (in 4 steps) ****
    Final optimized geometry and variables:
    Molecular point group: c1

    Geometry (in Angstrom), charge = 0, multiplicity = 1:

    H           -3.077495357469     0.653658447277    -0.417761453074
    C           -2.302431613065    -0.099197450224    -0.401839563168
    O           -1.077342942074     0.555246887098    -0.385954318068
    H           -2.413982268489    -0.728970970111    -1.282042731244
    H           -2.435497454907    -0.717923746350     0.482525440319
    C            0.052595702826    -0.266930978277    -0.352780761117
    C            1.093508471090     0.331387111276     0.576283905126
    H            0.469146886467    -0.348024212285    -1.354857848542
    H           -0.210678911378    -1.268060589173    -0.020111102328
    C            2.385871785070    -0.477170534947     0.602977777905
    H            1.295688650982     1.347385069137     0.255115853695
    H            0.673032300176     0.398188051936     1.574227491018
    H            2.838002246718    -0.530983801679    -0.381792147362
    H            3.109717586344    -0.028951419243     1.272635502663
    H            2.210306734893    -1.493241135528     0.941304192137

  Mulliken Charges: (a.u.)
   Center  Symbol    Alpha    Beta     Spin     Total
       1     H     0.44924  0.44924  0.00000  0.10153
       2     C     3.03156  3.03156  0.00000 -0.06313
       3     O     4.17682  4.17682  0.00000 -0.35365
       4     H     0.47092  0.47092  0.00000  0.05817
       5     H     0.47231  0.47231  0.00000  0.05537
       6     C     2.96116  2.96116  0.00000  0.07769
       7     C     3.07951  3.07951  0.00000 -0.15901
       8     H     0.46440  0.46440  0.00000  0.07120
       9     H     0.47570  0.47570  0.00000  0.04860
      10     C     3.15562  3.15562  0.00000 -0.31123
      11     H     0.45035  0.45035  0.00000  0.09929
      12     H     0.45437  0.45437  0.00000  0.09126
      13     H     0.45536  0.45536  0.00000  0.08929
      14     H     0.44646  0.44646  0.00000  0.10708
      15     H     0.45623  0.45623  0.00000  0.08754

   Total alpha = 21.00000, Total beta = 21.00000, Total charge = -0.00000
