                              Psi4 1.0.54 Driver

  ==> Input File <==

--------------------------------------------------------------------------
set {
	reference rhf
	basis cc-pvtz
}

set_num_threads( 4 )
memory 2 gb

molecule MOL {
0 1

H	 -1.364746	 0.067696	 -1.625901
C	 -0.776521	 -0.484937	 -0.925102
C	 -0.771634	 -1.865038	 -0.919312
C	 0.000000	 0.179985	 0.000046
H	 -1.368704	 -2.400767	 -1.630660
C	 0.000002	 -2.552036	 -0.000012
N	 0.000000	 1.644631	 0.000076
C	 0.776520	 -0.484975	 0.925168
H	 0.000000	 -3.625035	 -0.000032
C	 0.771636	 -1.865075	 0.919319
O	 1.050559	 2.194174	 -0.000073
O	 -1.050559	 2.194174	 -0.000074
H	 1.364752	 0.067629	 1.625984
H	 1.368703	 -2.400834	 1.630647

	symmetry c1
}
set optking {
	frozen_dihedral = ("
		2 4 7 11
	")
}

ee,wfn = optimize('scf', return_wfn=True)
oeprop( wfn, 'DIPOLE', 'QUADRUPOLE', 'MULLIKEN_CHARGES')
f=open( 'psi4out.xyz', 'w' )
f.write( "14  " )
f.write( str(ee) + "\n" )
f.write( MOL.save_string_xyz() )
f.close()
--------------------------------------------------------------------------

    Molecular point group: c1
  Charge       = 0
  Multiplicity = 1
  Basis Set: CC-PVTZ
  Basis Set:
  @DF-RHF Final Energy:  -434.32486762626598
    Total Energy =                       -434.3248676262660410
    Molecular point group: c1
  Basis Set: CC-PVTZ
  Basis Set:
  Basis Set: CC-PVTZ
  Basis Set:
  @DF-RHF Final Energy:  -434.31856063148513
    Total Energy =                       -434.3185606314848428
  Basis Set: CC-PVTZ
  Basis Set:
  Basis Set: CC-PVTZ
  Basis Set:
  @DF-RHF Final Energy:  -434.32446966491324
    Total Energy =                       -434.3244696649129537
  Basis Set: CC-PVTZ
  Basis Set:
  Basis Set: CC-PVTZ
  Basis Set:
  @DF-RHF Final Energy:  -434.32532678012046
    Total Energy =                       -434.3253267801204629
  Basis Set: CC-PVTZ
  Basis Set:
  Basis Set: CC-PVTZ
  Basis Set:
  @DF-RHF Final Energy:  -434.32533807364683
    Total Energy =                       -434.3253380736466625
  Basis Set: CC-PVTZ
  Basis Set:
  Basis Set: CC-PVTZ
  Basis Set:
  @DF-RHF Final Energy:  -434.32536065549897
    Total Energy =                       -434.3253606554997077
  Basis Set: CC-PVTZ
  Basis Set:
  Charge       = 0
  Multiplicity = 1
  Basis Set: CC-PVTZ
  Basis Set:

    Orbital Energies (a.u.)
    -----------------------

    Doubly Occupied:

       1A    -20.595334     2A    -20.594949     3A    -15.847566
       4A    -11.305212     5A    -11.267963     6A    -11.267713
       7A    -11.262004     8A    -11.259690     9A    -11.259325
      10A     -1.642972    11A     -1.425971    12A     -1.206068
      13A     -1.096773    14A     -1.056429    15A     -0.959472
      16A     -0.872067    17A     -0.830143    18A     -0.786960
      19A     -0.740370    20A     -0.736368    21A     -0.715912
      22A     -0.655376    23A     -0.651243    24A     -0.626217
      25A     -0.559495    26A     -0.547847    27A     -0.533269
      28A     -0.497183    29A     -0.489025    30A     -0.457199
      31A     -0.374153    32A     -0.370293

  @DF-RHF Final Energy:  -434.32536086842799

   => Energetics <=

    Nuclear Repulsion Energy =            417.9294097259147520
    One-Electron Energy =               -1419.5284248526513693
    Two-Electron Energy =                 567.2736542583086248
    DFT Exchange-Correlation Energy =       0.0000000000000000
    Empirical Dispersion Energy =           0.0000000000000000
    PCM Polarization Energy =               0.0000000000000000
    EFP Energy =                            0.0000000000000000
    Total Energy =                       -434.3253608684279925
    Molecular point group: c1
  Basis Set: CC-PVTZ
  Basis Set:

  -Total Gradient:
     Atom            X                  Y                   Z
    ------   -----------------  -----------------  -----------------
       1       -0.000001325667    -0.000001817998     0.000006844108
       2        0.003763693623    -0.000224341008    -0.002932853660
       3       -0.000039285309     0.000033679001     0.000007617009
       4       -0.005300183905     0.000255472055     0.002187511947
       5       -0.000001862832     0.000001138946     0.000001990210
       6        0.000017489304     0.000000279840     0.000033373031
       7        0.001413323906     0.000209415663     0.006138495050
       8        0.000004164404     0.000018608046    -0.000015978853
       9        0.000003473236     0.000000402596    -0.000006004446
      10        0.000005383963    -0.000026212211    -0.000016198974
      11        0.000218455780    -0.000252027518    -0.005405459404
      12       -0.000076678371    -0.000015395067    -0.000006953160
      13       -0.000003139375    -0.000003390330     0.000001904307
      14       -0.000003508760     0.000004187992     0.000005712835

  **** Optimization is complete! (in 7 steps) ****
    Final optimized geometry and variables:
    Molecular point group: c1

    Geometry (in Angstrom), charge = 0, multiplicity = 1:

    H           -1.368110932424     0.078353270779    -1.617007668478
    C           -0.784497450675    -0.476901656434    -0.911653122879
    C           -0.775694147581    -1.857900390402    -0.910189588747
    C           -0.025743932992     0.180347850137     0.028765143845
    H           -1.353143181334    -2.393077929736    -1.638060332929
    C           -0.026315088049    -2.545804331340     0.026131067760
    N            0.020844497064     1.641020464835    -0.012901916813
    C            0.755312518753    -0.479578299883     0.949393018185
    H           -0.029950301058    -3.618576198948     0.027812925998
    C            0.733333109582    -1.859855357228     0.956371727379
    O            1.090787913264     2.150235387786     0.016781652269
    O           -1.011554751054     2.214783472920    -0.115311788005
    H            1.359290497756     0.073656729293     1.639113275173
    H            1.316548843144    -2.396877108328     1.678265239403

  Mulliken Charges: (a.u.)
   Center  Symbol    Alpha    Beta     Spin     Total
       1     H     0.40708  0.40708  0.00000  0.18584
       2     C     3.08667  3.08667  0.00000 -0.17333
       3     C     3.06879  3.06879  0.00000 -0.13759
       4     C     2.93792  2.93792  0.00000  0.12416
       5     H     0.41718  0.41718  0.00000  0.16564
       6     C     3.07020  3.07020  0.00000 -0.14039
       7     N     3.27720  3.27720  0.00000  0.44560
       8     C     3.08519  3.08519  0.00000 -0.17038
       9     H     0.41754  0.41754  0.00000  0.16492
      10     C     3.06817  3.06817  0.00000 -0.13635
      11     O     4.16786  4.16786  0.00000 -0.33573
      12     O     4.17016  4.17016  0.00000 -0.34033
      13     H     0.40881  0.40881  0.00000  0.18238
      14     H     0.41722  0.41722  0.00000  0.16556

   Total alpha = 32.00000, Total beta = 32.00000, Total charge = -0.00000

*** Psi4 exiting successfully. Buy a developer a beer!
