  ==> Input File <==

--------------------------------------------------------------------------
set {
	reference rhf
	basis 6-31G*
}

set_num_threads( 4 )
memory 2 gb

molecule MOL {
0 1

O	 -0.757779	 -0.958886	 1.282891
C	 0.403879	 -1.051462	 1.048286
C	 1.245376	 -0.013843	 0.345420
O	 1.130001	 -2.110441	 1.384355
C	 0.455112	 1.231400	 -0.050772
H	 2.074439	 0.222950	 1.004035
H	 1.685735	 -0.491420	 -0.526189
C	 -0.998893	 1.219485	 0.433193
H	 0.482531	 1.345121	 -1.130325
H	 0.957290	 2.103070	 0.354729
C	 -1.883438	 0.145884	 -0.207175
H	 -1.431207	 2.195402	 0.224832
H	 -1.019646	 1.105716	 1.516076
C	 -3.347647	 0.245583	 0.225435
H	 -1.822183	 0.231698	 -1.291012
H	 -1.510341	 -0.844814	 0.042401
C	 -4.239992	 -0.825570	 -0.404234
H	 -3.732888	 1.230466	 -0.033079
H	 -3.408585	 0.170602	 1.310038
C	 -5.701275	 -0.716658	 0.029921
H	 -4.179496	 -0.752714	 -1.488058
H	 -3.859041	 -1.810759	 -0.143352
H	 -6.308102	 -1.488908	 -0.432678
H	 -6.122175	 0.245478	 -0.248167
H	 -5.799072	 -0.820114	 1.106957
C	 0.459296	 -3.163838	 2.051733
H	 0.039642	 -2.816376	 2.984827
H	 1.206827	 -3.919558	 2.236371
H	 -0.331819	 -3.562905	 1.433332

	symmetry c1
}
set optking {
	frozen_dihedral = ("
		6 3 5 9
	")
}

ee = optimize('scf')
oeprop('DIPOLE', 'QUADRUPOLE', 'MULLIKEN_CHARGES')
f=open( 'psi4out.xyz', 'w' )
f.write( "29  " )
f.write( str(ee) + "\n" )
f.write( MOL.save_string_xyz() )
f.close()
--------------------------------------------------------------------------

    Molecular point group: c1
  Charge       = 0
  Multiplicity = 1
  Basis Set: 6-31G*
  Basis Set:
  @DF-RHF Final Energy:  -500.94935632202476
    Total Energy =                       -500.9493563220239594
    Molecular point group: c1
  Basis Set: 6-31G*
  Basis Set:
  Basis Set: 6-31G*
  Basis Set:
  @DF-RHF Final Energy:  -500.98833849698565
    Total Energy =                       -500.9883384969859890
  Basis Set: 6-31G*
  Basis Set:
  Basis Set: 6-31G*
  Basis Set:
  @DF-RHF Final Energy:  -501.00697509339852
    Total Energy =                       -501.0069750933985233
  Basis Set: 6-31G*
  Basis Set:
  Basis Set: 6-31G*
  Basis Set:
  @DF-RHF Final Energy:  -501.01978276860530
    Total Energy =                       -501.0197827686040455
  Basis Set: 6-31G*
  Basis Set:
  @DF-RHF Final Energy:  -501.02620473866909
    Total Energy =                       -501.0262047386684117
  @DF-RHF Final Energy:  -501.02493316259120
    Total Energy =                       -501.0249331625914238
  @DF-RHF Final Energy:  -501.02960815782671
    Total Energy =                       -501.0296081578267149
  @DF-RHF Final Energy:  -501.03014426238815
    Total Energy =                       -501.0301442623881485
  @DF-RHF Final Energy:  -501.03041422384842
    Total Energy =                       -501.0304142238480836
  @DF-RHF Final Energy:  -501.03066690489345
    Total Energy =                       -501.0306669048934509
  @DF-RHF Final Energy:  -501.03081801138569
    Total Energy =                       -501.0308180113861454
  @DF-RHF Final Energy:  -501.03091828741140
    Total Energy =                       -501.0309182874118505
  @DF-RHF Final Energy:  -501.03103894161825
    Total Energy =                       -501.0310389416181351
  @DF-RHF Final Energy:  -501.03119973202115
    Total Energy =                       -501.0311997320219461
  @DF-RHF Final Energy:  -501.03145261529880
    Total Energy =                       -501.0314526152984627
  @DF-RHF Final Energy:  -501.03160938437463
    Total Energy =                       -501.0316093843740646
  @DF-RHF Final Energy:  -501.03199325801597
    Total Energy =                       -501.0319932580159730
  @DF-RHF Final Energy:  -501.03237532018886
    Total Energy =                       -501.0323753201887484
  @DF-RHF Final Energy:  -501.03267649562486
    Total Energy =                       -501.0326764956246279
  @DF-RHF Final Energy:  -501.03309361944878
    Total Energy =                       -501.0330936194488913
  @DF-RHF Final Energy:  -501.03297143084069
    Total Energy =                       -501.0329714308404618
  Basis Set: 6-31G*
  Basis Set:
  @DF-RHF Final Energy:  -501.03335050125713
    Total Energy =                       -501.0333505012561091
  Basis Set: 6-31G*
  Basis Set:
  Basis Set: 6-31G*
  Basis Set:
  @DF-RHF Final Energy:  -501.03343277738713
    Total Energy =                       -501.0334327773866789
  Basis Set: 6-31G*
  Basis Set:
  Basis Set: 6-31G*
  Basis Set:
  @DF-RHF Final Energy:  -501.03343650935756
    Total Energy =                       -501.0334365093578981
  Basis Set: 6-31G*
  Basis Set:
  Charge       = 0
  Multiplicity = 1
  Basis Set: 6-31G*
  Basis Set:

    Orbital Energies (a.u.)
    -----------------------

    Doubly Occupied:

       1A    -20.606580     2A    -20.543040     3A    -11.372868
       4A    -11.281382     5A    -11.234549     6A    -11.228869
       7A    -11.213625     8A    -11.212894     9A    -11.212274
      10A    -11.210700    11A    -11.207057    12A     -1.470307
      13A     -1.361932    14A     -1.093974    15A     -1.063014
      16A     -1.016727    17A     -0.976530    18A     -0.929423
      19A     -0.862574    20A     -0.801728    21A     -0.787830
      22A     -0.767813    23A     -0.690203    24A     -0.680675
      25A     -0.672841    26A     -0.648235    27A     -0.623102
      28A     -0.612897    29A     -0.592142    30A     -0.578374
      31A     -0.561424    32A     -0.553555    33A     -0.533936
      34A     -0.526786    35A     -0.518993    36A     -0.507286
      37A     -0.497005    38A     -0.477606    39A     -0.469714
      40A     -0.461799    41A     -0.457513    42A     -0.452373
      43A     -0.438758    44A     -0.427381

  @DF-RHF Final Energy:  -501.03343720320902

   => Energetics <=

    Nuclear Repulsion Energy =            649.1186917299120296
    One-Electron Energy =               -1969.4276866628881635
    Two-Electron Energy =                 819.2755577297677974
    DFT Exchange-Correlation Energy =       0.0000000000000000
    Empirical Dispersion Energy =           0.0000000000000000
    PCM Polarization Energy =               0.0000000000000000
    EFP Energy =                            0.0000000000000000
    Total Energy =                       -501.0334372032082229
    Molecular point group: c1
  Basis Set: 6-31G*
  Basis Set:

  -Total Gradient:
     Atom            X                  Y                   Z
    ------   -----------------  -----------------  -----------------
       1       -0.000087255052     0.000079303172     0.000172785842
       2        0.000066704272    -0.000130505157    -0.000157148907
       3        0.000381930926    -0.000051633826    -0.000567060410
       4        0.000026882868     0.000040968514     0.000026617205
       5        0.000426055313     0.000461027503     0.000089449947
       6       -0.000369817886    -0.000037033174     0.000454891861
       7        0.000014889178     0.000015177898    -0.000022234514
       8       -0.000006297868    -0.000012949315     0.000035055363
       9       -0.000430710415    -0.000362313253    -0.000004195561
      10       -0.000009099102     0.000003409104    -0.000005795414
      11       -0.000082909111     0.000003118564    -0.000019827995
      12        0.000010705183     0.000016082034    -0.000003302915
      13       -0.000001994173    -0.000015236976    -0.000002126607
      14        0.000088800676     0.000021024565     0.000020942257
      15       -0.000001720272    -0.000002537360     0.000009118920
      16        0.000019358479    -0.000018116151     0.000011608417
      17       -0.000004939511    -0.000000732985    -0.000011181547
      18        0.000004013099     0.000002125879    -0.000001464570
      19        0.000003947897     0.000002017687    -0.000016493966
      20       -0.000006434759    -0.000014058342    -0.000000142890
      21       -0.000000265577    -0.000000664576    -0.000001457914
      22       -0.000002424357     0.000007238950     0.000001337294
      23       -0.000006344486    -0.000000339025     0.000001932417
      24        0.000004751697    -0.000001829451    -0.000001171648
      25       -0.000003282073     0.000000421851     0.000001629683
      26       -0.000072016238    -0.000004693045    -0.000014700955
      27        0.000013294043     0.000013177259     0.000000320102
      28        0.000011810749     0.000000099830    -0.000002345829
      29        0.000012366483    -0.000012550172     0.000004962333

  **** Optimization is complete! (in 25 steps) ****
    Final optimized geometry and variables:
    Molecular point group: c1

    Geometry (in Angstrom), charge = 0, multiplicity = 1:

    O            1.398196819976    -0.067527656164     1.898227418450
    C            1.841176599996    -0.342948902815     0.828236906789
    C            2.508765848991     0.642281638549    -0.103299765697
    O            1.827700872605    -1.575967530018     0.339525184294
    C            1.598519971618     1.753984683607    -0.712876619145
    H            3.277783441193     1.112385563959     0.498840635190
    H            3.003045430185     0.088984824834    -0.889312662387
    C            0.117845244121     1.785459848167    -0.309074705653
    H            1.653399316948     1.674058796038    -1.794156550747
    H            2.038493722396     2.711860183382    -0.460082121138
    C           -0.733968756902     0.686474738837    -0.952054317959
    H           -0.281275581721     2.749134298165    -0.617432969097
    H            0.025795333758     1.745282393366     0.770036871971
    C           -2.194651839175     0.728002660103    -0.500439343940
    H           -0.687579166295     0.791817366382    -2.034996212603
    H           -0.322181765499    -0.294779530180    -0.730683132938
    C           -3.063316304825    -0.345555127964    -1.158592875821
    H           -2.611604329760     1.709844230962    -0.719291445988
    H           -2.237996389173     0.612774550203     0.580893146288
    C           -4.520368191116    -0.299681429571    -0.699564283599
    H           -3.021999469709    -0.230205866091    -2.239691332814
    H           -2.647994178656    -1.327617868896    -0.941399113438
    H           -5.110419783564    -1.072555833444    -1.182619051224
    H           -4.975074672947     0.658620641469    -0.934388141151
    H           -4.597872394201    -0.446513459024     0.374022473547
    C            1.251502717242    -2.582003641546     1.152888295546
    H            1.782468525311    -2.661680342955     2.090418657353
    H            1.339514291330    -3.499879744894     0.592896766105
    H            0.212461556415    -2.361476117133     1.350792216946

  Mulliken Charges: (a.u.)
   Center  Symbol    Alpha    Beta     Spin     Total
       1     O     4.28614  4.28614  0.00000 -0.57228
       2     C     2.61289  2.61289  0.00000  0.77421
       3     C     3.20524  3.20524  0.00000 -0.41048
       4     O     4.30378  4.30378  0.00000 -0.60756
       5     C     3.15633  3.15633  0.00000 -0.31266
       6     H     0.39881  0.39881  0.00000  0.20239
       7     H     0.39881  0.39881  0.00000  0.20238
       8     C     3.16823  3.16823  0.00000 -0.33646
       9     H     0.41613  0.41613  0.00000  0.16773
      10     H     0.41275  0.41275  0.00000  0.17449
      11     C     3.15808  3.15808  0.00000 -0.31617
      12     H     0.42072  0.42072  0.00000  0.15856
      13     H     0.40068  0.40068  0.00000  0.19865
      14     C     3.15120  3.15120  0.00000 -0.30240
      15     H     0.42465  0.42465  0.00000  0.15070
      16     H     0.42069  0.42069  0.00000  0.15862
      17     C     3.15113  3.15113  0.00000 -0.30226
      18     H     0.42432  0.42432  0.00000  0.15135
      19     H     0.41978  0.41978  0.00000  0.16043
      20     C     3.23929  3.23929  0.00000 -0.47858
      21     H     0.42354  0.42354  0.00000  0.15293
      22     H     0.42455  0.42455  0.00000  0.15089
      23     H     0.41998  0.41998  0.00000  0.16004
      24     H     0.42178  0.42178  0.00000  0.15644
      25     H     0.42131  0.42131  0.00000  0.15738
      26     C     3.09341  3.09341  0.00000 -0.18682
      27     H     0.40800  0.40800  0.00000  0.18400
      28     H     0.40824  0.40824  0.00000  0.18351
      29     H     0.40953  0.40953  0.00000  0.18094

   Total alpha = 44.00000, Total beta = 44.00000, Total charge =  0.00000
