                              Psi4 1.0.54 Driver

  ==> Input File <==

--------------------------------------------------------------------------
set {
	reference rhf
	basis cc-pvtz
}

set_num_threads( 4 )
memory 2 gb

molecule MOL {
0 1

O	 0.233673	 0.912963	 0.887974
C	 0.485107	 0.171416	 -0.000134
C	 1.606966	 -0.836201	 0.000174
O	 -0.199227	 0.129848	 -1.129977
C	 2.988788	 -0.202529	 -0.000115
H	 1.465110	 -1.474645	 -0.864821
H	 1.465209	 -1.474077	 0.865596
H	 3.131767	 0.419673	 -0.873407
H	 3.750876	 -0.972315	 0.000098
H	 3.131883	 0.420264	 0.872742
C	 -1.291912	 1.025866	 -1.276537
C	 -1.904230	 0.788623	 -2.637151
H	 -0.932777	 2.040226	 -1.174353
H	 -2.004480	 0.846399	 -0.483844
H	 -1.181410	 0.970370	 -3.422563
H	 -2.743646	 1.458404	 -2.782084
H	 -2.259278	 -0.230218	 -2.728119

	symmetry c1
}
set optking {
	frozen_dihedral = ("
		4 2 3 6
	")
}

ee,wfn = optimize('scf', return_wfn=True)
oeprop( wfn, 'DIPOLE', 'QUADRUPOLE', 'MULLIKEN_CHARGES')
f=open( 'psi4out.xyz', 'w' )
f.write( "17  " )
f.write( str(ee) + "\n" )
f.write( MOL.save_string_xyz() )
f.close()
--------------------------------------------------------------------------

    Molecular point group: c1
  Charge       = 0
  Multiplicity = 1
  Basis Set: CC-PVTZ
  Basis Set:
  @DF-RHF Final Energy:  -345.03815581147626
    Total Energy =                       -345.0381558114759173
    Molecular point group: c1
  Basis Set: CC-PVTZ
  Basis Set:
  Basis Set: CC-PVTZ
  Basis Set:
  @DF-RHF Final Energy:  -345.03866598323401
    Total Energy =                       -345.0386659832337273
  Basis Set: CC-PVTZ
  Basis Set:
  Basis Set: CC-PVTZ
  Basis Set:
  @DF-RHF Final Energy:  -345.03731168729666
    Total Energy =                       -345.0373116872962100
  Basis Set: CC-PVTZ
  Basis Set:
  Basis Set: CC-PVTZ
  Basis Set:
  @DF-RHF Final Energy:  -344.99130138274023
    Total Energy =                       -344.9913013827407440
  Basis Set: CC-PVTZ
  Basis Set:
  Basis Set: CC-PVTZ
  Basis Set:
  @DF-RHF Final Energy:  -345.03719387433568
    Total Energy =                       -345.0371938743356850
  Basis Set: CC-PVTZ
  Basis Set:
  Basis Set: CC-PVTZ
  Basis Set:
  @DF-RHF Final Energy:  -345.03885777681830
    Total Energy =                       -345.0388577768185883
  Basis Set: CC-PVTZ
  Basis Set:
  Basis Set: CC-PVTZ
  Basis Set:
  @DF-RHF Final Energy:  -345.03886794037021
    Total Energy =                       -345.0388679403704373
  Basis Set: CC-PVTZ
  Basis Set:
  Charge       = 0
  Multiplicity = 1
  Basis Set: CC-PVTZ
  Basis Set:

    Orbital Energies (a.u.)
    -----------------------

    Doubly Occupied:

       1A    -20.595919     2A    -20.529912     3A    -11.362979
       4A    -11.282680     5A    -11.234390     6A    -11.222022
       7A    -11.220649     8A     -1.470744     9A     -1.363569
      10A     -1.071560    11A     -1.033100    12A     -0.910063
      13A     -0.852343    14A     -0.778559    15A     -0.696762
      16A     -0.687970    17A     -0.669511    18A     -0.619180
      19A     -0.598581    20A     -0.576369    21A     -0.555551
      22A     -0.535259    23A     -0.526552    24A     -0.510852
      25A     -0.502343    26A     -0.495260    27A     -0.455027
      28A     -0.435847

  @DF-RHF Final Energy:  -345.03886850940904

   => Energetics <=

    Nuclear Repulsion Energy =            315.9771184840003002
    One-Electron Energy =               -1096.4448596750817160
    Two-Electron Energy =                 435.4288726816723738
    DFT Exchange-Correlation Energy =       0.0000000000000000
    Empirical Dispersion Energy =           0.0000000000000000
    PCM Polarization Energy =               0.0000000000000000
    EFP Energy =                            0.0000000000000000
    Total Energy =                       -345.0388685094089851
    Molecular point group: c1
  Basis Set: CC-PVTZ
  Basis Set:

  -Total Gradient:
     Atom            X                  Y                   Z
    ------   -----------------  -----------------  -----------------
       1        0.000014745163     0.000002573387     0.000021646610
       2        0.000045117782    -0.000058089819     0.000155031192
       3        0.000068841938     0.000048850972    -0.000121012211
       4        0.000014088311    -0.000002741120    -0.000141459595
       5       -0.000017585203    -0.000002420800    -0.000004694099
       6       -0.000053772861    -0.000025581507     0.000094629217
       7        0.000002265494     0.000001476012     0.000005267644
       8        0.000006251884     0.000006495206    -0.000002226072
       9       -0.000002767712     0.000005015647     0.000003861491
      10        0.000003310680     0.000000671609    -0.000000193572
      11       -0.000025394698    -0.000053194064     0.000035376525
      12       -0.000019771730     0.000047418367    -0.000010882756
      13       -0.000019931551     0.000006175737    -0.000008867117
      14       -0.000020248502     0.000025850767    -0.000026412080
      15        0.000001675653    -0.000005467980     0.000003549969
      16       -0.000009509961    -0.000004560926    -0.000009916710
      17        0.000012685308     0.000007528516     0.000006301566

  **** Optimization is complete! (in 8 steps) ****
    Final optimized geometry and variables:
    Molecular point group: c1

    Geometry (in Angstrom), charge = 0, multiplicity = 1:

    O            0.352220864946     0.988456706145     1.204159273631
    C            0.341875520463     0.000784073818     0.549403147482
    C            1.395122145917    -1.076025741149     0.637492741652
    O           -0.588750921699    -0.266941507311    -0.347896028845
    C            2.750690205523    -0.563177331603     0.149514109989
    H            1.081683913079    -1.938960603217     0.068472808314
    H            1.467029062706    -1.360734679420     1.679790652730
    H            2.708460454745    -0.282139295884    -0.896456321877
    H            3.502399394046    -1.334728853267     0.257497853426
    H            3.060446306128     0.300633613637     0.721649227602
    C           -1.626199636725     0.687495378918    -0.529546293062
    C           -2.555805913218     0.161365049946    -1.597953044347
    H           -1.188471204825     1.633776789203    -0.814248013342
    H           -2.141006155857     0.831218235462     0.409779001408
    H           -2.028421370810     0.019906379660    -2.532966533985
    H           -3.360935361176     0.867772347210    -1.762075247868
    H           -2.986988430934    -0.786575099991    -1.301597271613

  Mulliken Charges: (a.u.)
   Center  Symbol    Alpha    Beta     Spin     Total
       1     O     4.20513  4.20513  0.00000 -0.41027
       2     C     2.80841  2.80841  0.00000  0.38319
       3     C     3.08438  3.08438  0.00000 -0.16876
       4     O     4.14964  4.14964  0.00000 -0.29928
       5     C     3.14698  3.14698  0.00000 -0.29397
       6     H     0.44136  0.44136  0.00000  0.11727
       7     H     0.44418  0.44418  0.00000  0.11163
       8     H     0.45295  0.45295  0.00000  0.09411
       9     H     0.44891  0.44891  0.00000  0.10217
      10     H     0.44237  0.44237  0.00000  0.11525
      11     C     2.97787  2.97787  0.00000  0.04426
      12     C     3.13318  3.13318  0.00000 -0.26637
      13     H     0.45390  0.45390  0.00000  0.09221
      14     H     0.45366  0.45366  0.00000  0.09267
      15     H     0.45155  0.45155  0.00000  0.09690
      16     H     0.45422  0.45422  0.00000  0.09156
      17     H     0.45129  0.45129  0.00000  0.09742

   Total alpha = 28.00000, Total beta = 28.00000, Total charge = -0.00000

*** Psi4 exiting successfully. Buy a developer a beer!
