  ==> Input File <==

--------------------------------------------------------------------------
set {
	reference rhf
	basis 6-31G*
}

set_num_threads( 4 )
memory 2 gb

molecule MOL {
0 1

H	 -1.523722	 -1.395462	 -0.365007
O	 -2.310168	 -0.871793	 -0.309793
C	 -2.026376	 0.340750	 0.341611
C	 -0.673256	 0.843270	 -0.132153
H	 -2.792215	 1.080697	 0.115987
H	 -2.013526	 0.200402	 1.421792
C	 0.486613	 -0.083066	 0.235839
H	 -0.715586	 0.970948	 -1.210718
H	 -0.508072	 1.829858	 0.297090
C	 1.840406	 0.433480	 -0.254303
H	 0.300215	 -1.068318	 -0.178947
H	 0.519509	 -0.203625	 1.318070
C	 3.000220	 -0.489290	 0.118523
H	 1.809207	 0.553576	 -1.335192
H	 2.021860	 1.424500	 0.157276
H	 2.864959	 -1.479103	 -0.307933
H	 3.946603	 -0.099227	 -0.243630
H	 3.080049	 -0.602997	 1.196117

	symmetry c1
}
set optking {
	frozen_dihedral = ("
		1 2 3 4
	")
}

ee = optimize('scf')
oeprop('DIPOLE', 'QUADRUPOLE', 'MULLIKEN_CHARGES')
f=open( 'psi4out.xyz', 'w' )
f.write( "18  " )
f.write( str(ee) + "\n" )
f.write( MOL.save_string_xyz() )
f.close()
--------------------------------------------------------------------------

    Molecular point group: c1
  Charge       = 0
  Multiplicity = 1
  Basis Set: 6-31G*
  Basis Set:
  @DF-RHF Final Energy:  -271.17507354106806
    Total Energy =                       -271.1750735410681159
    Molecular point group: c1
  Basis Set: 6-31G*
  Basis Set:
  Basis Set: 6-31G*
  Basis Set:
  @DF-RHF Final Energy:  -271.17683674536727
    Total Energy =                       -271.1768367453672113
  Basis Set: 6-31G*
  Basis Set:
  Basis Set: 6-31G*
  Basis Set:
  @DF-RHF Final Energy:  -271.17791995913421
    Total Energy =                       -271.1779199591342149
  Basis Set: 6-31G*
  Basis Set:
  Basis Set: 6-31G*
  Basis Set:
  @DF-RHF Final Energy:  -271.17798380948244
    Total Energy =                       -271.1779838094825550
  Basis Set: 6-31G*
  Basis Set:
  Basis Set: 6-31G*
  Basis Set:
  @DF-RHF Final Energy:  -271.17800214109297
    Total Energy =                       -271.1780021410932022
  Basis Set: 6-31G*
  Basis Set:
  Basis Set: 6-31G*
  Basis Set:
  @DF-RHF Final Energy:  -271.17800255675149
    Total Energy =                       -271.1780025567516645
  Basis Set: 6-31G*
  Basis Set:
  Basis Set: 6-31G*
  Basis Set:
  @DF-RHF Final Energy:  -271.17800425406176
    Total Energy =                       -271.1780042540619888
  Basis Set: 6-31G*
  Basis Set:
  Charge       = 0
  Multiplicity = 1
  Basis Set: 6-31G*
  Basis Set:

    Orbital Energies (a.u.)
    -----------------------

    Doubly Occupied:

       1A    -20.550034     2A    -11.266649     3A    -11.226343
       4A    -11.223187     5A    -11.221178     6A    -11.214546
       7A     -1.357654     8A     -1.086712     9A     -1.014732
      10A     -0.923981    11A     -0.833882    12A     -0.797629
      13A     -0.681083    14A     -0.655572    15A     -0.618123
      16A     -0.613780    17A     -0.577631    18A     -0.563645
      19A     -0.533832    20A     -0.509012    21A     -0.497018
      22A     -0.479168    23A     -0.473374    24A     -0.450616
      25A     -0.428762

  @DF-RHF Final Energy:  -271.17800430037448

   => Energetics <=

    Nuclear Repulsion Energy =            248.6452275684280266
    One-Electron Energy =                -860.0501756509893312
    Two-Electron Energy =                 340.2269437821869360
    DFT Exchange-Correlation Energy =       0.0000000000000000
    Empirical Dispersion Energy =           0.0000000000000000
    PCM Polarization Energy =               0.0000000000000000
    EFP Energy =                            0.0000000000000000
    Total Energy =                       -271.1780043003743685
    Molecular point group: c1
  Basis Set: 6-31G*
  Basis Set:

  -Total Gradient:
     Atom            X                  Y                   Z
    ------   -----------------  -----------------  -----------------
       1        0.000460244155     0.000898423394    -0.002166861071
       2       -0.000262111660    -0.001466022760     0.003148193520
       3       -0.000881549335     0.001363778822    -0.002082584203
       4        0.000681448986    -0.000800773234     0.001092688463
       5        0.000002416172     0.000002386514     0.000000789438
       6        0.000000516826     0.000001525607     0.000000877902
       7       -0.000001869674     0.000001684016     0.000005099248
       8        0.000000276781     0.000003714720    -0.000002703396
       9       -0.000002322533    -0.000004325801     0.000001836179
      10        0.000000887154     0.000002030934     0.000006192581
      11       -0.000003543518     0.000001801759    -0.000002464437
      12        0.000006572945    -0.000001346956     0.000003153822
      13       -0.000000058551    -0.000002954199    -0.000004984596
      14        0.000001629146    -0.000002662830     0.000001490088
      15       -0.000003092808     0.000002905803    -0.000000905055
      16        0.000001417919    -0.000001755504     0.000001225527
      17       -0.000000069005    -0.000000291137    -0.000000394573
      18       -0.000000792988     0.000001880853    -0.000000649439

  **** Optimization is complete! (in 8 steps) ****
    Final optimized geometry and variables:
    Molecular point group: c1

    Geometry (in Angstrom), charge = 0, multiplicity = 1:

    H           -1.740573074246    -1.453105712848    -0.348113901851
    O           -2.464699745594    -0.852521275247    -0.252016604814
    C           -2.024917993068     0.342999034818     0.339448711555
    C           -0.665159779760     0.818219055804    -0.162798062964
    H           -2.780891975307     1.083305694693     0.111056567436
    H           -1.993995143464     0.233818033855     1.423085395817
    C            0.503216102025    -0.098905328709     0.211195703256
    H           -0.711085220373     0.934935318264    -1.243153958286
    H           -0.483013526354     1.807463866718     0.251959675782
    C            1.858934823363     0.445884281782    -0.243060866812
    H            0.366209859877    -1.086314238739    -0.228753081839
    H            0.516428481449    -0.244858093513     1.290022328191
    C            3.024879229937    -0.470859308280     0.124509320569
    H            1.842534929794     0.596672676302    -1.320047574454
    H            2.016509824116     1.426556203256     0.200185935711
    H            2.914719240937    -1.449531068811    -0.334067616571
    H            3.970661859991    -0.055113758359    -0.208330323866
    H            3.086918308220    -0.615100325933     1.199395840532

  Mulliken Charges: (a.u.)
   Center  Symbol    Alpha    Beta     Spin     Total
       1     H     0.27853  0.27853  0.00000  0.44294
       2     O     4.37583  4.37583  0.00000 -0.75167
       3     C     2.98473  2.98473  0.00000  0.03053
       4     C     3.17520  3.17520  0.00000 -0.35041
       5     H     0.41622  0.41622  0.00000  0.16756
       6     H     0.43186  0.43186  0.00000  0.13629
       7     C     3.15924  3.15924  0.00000 -0.31848
       8     H     0.41519  0.41519  0.00000  0.16962
       9     H     0.42017  0.42017  0.00000  0.15966
      10     C     3.15061  3.15061  0.00000 -0.30121
      11     H     0.43103  0.43103  0.00000  0.13794
      12     H     0.41995  0.41995  0.00000  0.16009
      13     C     3.23996  3.23996  0.00000 -0.47992
      14     H     0.42064  0.42064  0.00000  0.15871
      15     H     0.42109  0.42109  0.00000  0.15782
      16     H     0.42134  0.42134  0.00000  0.15731
      17     H     0.41756  0.41756  0.00000  0.16488
      18     H     0.42084  0.42084  0.00000  0.15833

   Total alpha = 25.00000, Total beta = 25.00000, Total charge =  0.00000
