                              Psi4 1.0.54 Driver

  ==> Input File <==

--------------------------------------------------------------------------
set {
	reference rhf
	basis cc-pvtz
}

set_num_threads( 4 )
memory 2 gb

molecule MOL {
0 1

O	 -2.409218	 -0.877237	 -0.574278
C	 -1.922978	 0.063265	 -0.045005
C	 -2.677327	 1.290212	 0.383961
O	 -0.637375	 0.157174	 0.243149
H	 -2.270491	 2.160124	 -0.115496
H	 -3.720890	 1.176477	 0.139669
H	 -2.557266	 1.437031	 1.449606
C	 0.162530	 -1.009518	 0.097799
C	 1.587210	 -0.664190	 0.477086
H	 0.096803	 -1.356267	 -0.924704
H	 -0.233803	 -1.785900	 0.736810
C	 2.256770	 0.342732	 -0.454344
H	 2.154716	 -1.590834	 0.479041
H	 1.598751	 -0.289614	 1.496104
C	 3.698146	 0.643205	 -0.057145
H	 2.235038	 -0.042575	 -1.470299
H	 1.683491	 1.262594	 -0.461300
H	 4.150202	 1.356548	 -0.736242
H	 4.305463	 -0.255904	 -0.069842
H	 3.749130	 1.061068	 0.942759

	symmetry c1
}
set optking {
	frozen_dihedral = ("
		1 2 4 8
	")
}

ee,wfn = optimize('scf', return_wfn=True)
oeprop( wfn, 'DIPOLE', 'QUADRUPOLE', 'MULLIKEN_CHARGES')
f=open( 'psi4out.xyz', 'w' )
f.write( "20  " )
f.write( str(ee) + "\n" )
f.write( MOL.save_string_xyz() )
f.close()
--------------------------------------------------------------------------

    Molecular point group: c1
  Charge       = 0
  Multiplicity = 1
  Basis Set: CC-PVTZ
  Basis Set:
  @DF-RHF Final Energy:  -384.08697093746144
    Total Energy =                       -384.0869709374618424
    Molecular point group: c1
  Basis Set: CC-PVTZ
  Basis Set:
  Basis Set: CC-PVTZ
  Basis Set:
  @DF-RHF Final Energy:  -384.08561494330178
    Total Energy =                       -384.0856149433019482
  Basis Set: CC-PVTZ
  Basis Set:
  Basis Set: CC-PVTZ
  Basis Set:
  @DF-RHF Final Energy:  -384.08701249517304
    Total Energy =                       -384.0870124951733260
  Basis Set: CC-PVTZ
  Basis Set:
  Basis Set: CC-PVTZ
  Basis Set:
  @DF-RHF Final Energy:  -384.08704695140551
    Total Energy =                       -384.0870469514055685
  Basis Set: CC-PVTZ
  Basis Set:
  Basis Set: CC-PVTZ
  Basis Set:
  @DF-RHF Final Energy:  -384.08704994207966
    Total Energy =                       -384.0870499420792612
  Basis Set: CC-PVTZ
  Basis Set:
  Basis Set: CC-PVTZ
  Basis Set:
  @DF-RHF Final Energy:  -384.08705121916830
    Total Energy =                       -384.0870512191685293
  Basis Set: CC-PVTZ
  Basis Set:
  Charge       = 0
  Multiplicity = 1
  Basis Set: CC-PVTZ
  Basis Set:

    Orbital Energies (a.u.)
    -----------------------

    Doubly Occupied:

       1A    -20.593872     2A    -20.532896     3A    -11.366743
       4A    -11.280419     5A    -11.231735     6A    -11.223603
       7A    -11.218630     8A    -11.211479     9A     -1.470729
      10A     -1.365286    11A     -1.087153    12A     -1.029083
      13A     -0.982366    14A     -0.881171    15A     -0.812339
      16A     -0.776542    17A     -0.692780    18A     -0.686410
      19A     -0.670502    20A     -0.632195    21A     -0.602126
      22A     -0.593924    23A     -0.573355    24A     -0.549581
      25A     -0.546438    26A     -0.535422    27A     -0.512159
      28A     -0.484921    29A     -0.475322    30A     -0.472976
      31A     -0.451999    32A     -0.441943

  @DF-RHF Final Energy:  -384.08705177367989

   => Energetics <=

    Nuclear Repulsion Energy =            385.4938698927678047
    One-Electron Energy =               -1287.1896476646761585
    Two-Electron Energy =                 517.6087259982282376
    DFT Exchange-Correlation Energy =       0.0000000000000000
    Empirical Dispersion Energy =           0.0000000000000000
    PCM Polarization Energy =               0.0000000000000000
    EFP Energy =                            0.0000000000000000
    Total Energy =                       -384.0870517736800593
    Molecular point group: c1
  Basis Set: CC-PVTZ
  Basis Set:

  -Total Gradient:
     Atom            X                  Y                   Z
    ------   -----------------  -----------------  -----------------
       1        0.000490185208     0.001344251547    -0.003052731439
       2       -0.000912569665    -0.002259250626     0.005890320686
       3        0.000050306041    -0.000000790701    -0.000035825830
       4        0.000880360548     0.001401945557    -0.005183802611
       5       -0.000019944296    -0.000003332501    -0.000062174593
       6       -0.000044470070     0.000016278264    -0.000004692212
       7        0.000011352340    -0.000006584929     0.000011879816
       8       -0.000431218729    -0.000498772562     0.002431913236
       9       -0.000007620746     0.000013227340     0.000000506468
      10       -0.000007542044     0.000012047828    -0.000009505656
      11       -0.000017113845    -0.000013743614     0.000015650725
      12        0.000000990797     0.000001799103    -0.000000528553
      13        0.000004273996    -0.000009518607    -0.000003829836
      14        0.000001661992     0.000002355931     0.000002044013
      15        0.000003665594    -0.000003827912     0.000002385864
      16       -0.000000593545    -0.000005434979    -0.000006142256
      17       -0.000015711102     0.000007313736    -0.000000136688
      18        0.000001863150     0.000005624439    -0.000004621684
      19        0.000010873538    -0.000008286022     0.000001098935
      20        0.000001250831     0.000004698710     0.000008191617

  **** Optimization is complete! (in 7 steps) ****
    Final optimized geometry and variables:
    Molecular point group: c1

    Geometry (in Angstrom), charge = 0, multiplicity = 1:

    O           -2.426832075943    -0.909209535754    -0.496902768299
    C           -1.927403669707     0.055960035857    -0.028340805589
    C           -2.667852493924     1.310466472601     0.339564765220
    O           -0.631866966337     0.168094020355     0.206584346235
    H           -2.246930321355     2.151247859241    -0.196454646439
    H           -3.711950596140     1.199142141936     0.096105676326
    H           -2.550753692098     1.503385734218     1.398316126005
    C            0.168344362494    -1.000991786935     0.082213926889
    C            1.591570291370    -0.650611144210     0.462063517266
    H            0.107963041826    -1.365205507959    -0.934272887673
    H           -0.232017714909    -1.766043672266     0.732809749840
    C            2.264466985199     0.341093679623    -0.483085931755
    H            2.158786789491    -1.577245001183     0.480501622732
    H            1.599500714615    -0.259624570902     1.474910359073
    C            3.700992908686     0.655636489553    -0.079662384406
    H            2.252780261886    -0.063743878670    -1.491492952185
    H            1.687146532215     1.257901238173    -0.512383653725
    H            4.155305588860     1.358446667839    -0.768157644982
    H            4.312406433671    -0.240718730192    -0.070802249760
    H            3.741753046772     1.092150204744     0.912723676861

  Mulliken Charges: (a.u.)
   Center  Symbol    Alpha    Beta     Spin     Total
       1     O     4.19661  4.19661  0.00000 -0.39322
       2     C     2.80877  2.80877  0.00000  0.38246
       3     C     3.13837  3.13837  0.00000 -0.27674
       4     O     4.15399  4.15399  0.00000 -0.30798
       5     H     0.44550  0.44550  0.00000  0.10900
       6     H     0.43793  0.43793  0.00000  0.12413
       7     H     0.44649  0.44649  0.00000  0.10703
       8     C     2.99319  2.99319  0.00000  0.01362
       9     C     3.08411  3.08411  0.00000 -0.16822
      10     H     0.44943  0.44943  0.00000  0.10115
      11     H     0.44637  0.44637  0.00000  0.10726
      12     C     3.08612  3.08612  0.00000 -0.17224
      13     H     0.45181  0.45181  0.00000  0.09637
      14     H     0.45229  0.45229  0.00000  0.09541
      15     C     3.15017  3.15017  0.00000 -0.30034
      16     H     0.45464  0.45464  0.00000  0.09072
      17     H     0.44703  0.44703  0.00000  0.10594
      18     H     0.44729  0.44729  0.00000  0.10543
      19     H     0.45546  0.45546  0.00000  0.08908
      20     H     0.45443  0.45443  0.00000  0.09114

   Total alpha = 32.00000, Total beta = 32.00000, Total charge =  0.00000

*** Psi4 exiting successfully. Buy a developer a beer!
