                              Psi4 1.0.54 Driver

  ==> Input File <==

--------------------------------------------------------------------------
set {
	reference rhf
	basis cc-pvtz
}

set_num_threads( 4 )
memory 2 gb

molecule MOL {
0 1

H	 1.918451	 1.612670	 0.527527
O	 1.039722	 1.264855	 0.551915
C	 1.050374	 0.054877	 0.000135
C	 -0.318151	 -0.570512	 0.000144
O	 2.038931	 -0.433478	 -0.426752
C	 -1.454884	 0.441630	 -0.000560
H	 -0.371613	 -1.223646	 -0.864985
H	 -0.371920	 -1.222758	 0.865929
C	 -2.822577	 -0.232186	 0.000063
H	 -1.359760	 1.084704	 -0.867077
H	 -1.359641	 1.085996	 0.864983
H	 -2.954352	 -0.858985	 -0.875745
H	 -3.615886	 0.505352	 0.000019
H	 -2.953878	 -0.858359	 0.876394

	symmetry c1
}
set optking {
	frozen_dihedral = ("
		2 3 4 7
	")
}

ee,wfn = optimize('scf', return_wfn=True)
oeprop( wfn, 'DIPOLE', 'QUADRUPOLE', 'MULLIKEN_CHARGES')
f=open( 'psi4out.xyz', 'w' )
f.write( "14  " )
f.write( str(ee) + "\n" )
f.write( MOL.save_string_xyz() )
f.close()
--------------------------------------------------------------------------

    Molecular point group: c1
  Charge       = 0
  Multiplicity = 1
  Basis Set: CC-PVTZ
  Basis Set:
  @DF-RHF Final Energy:  -305.99783998584252
    Total Energy =                       -305.9978399858426314
    Molecular point group: c1
  Basis Set: CC-PVTZ
  Basis Set:
  Basis Set: CC-PVTZ
  Basis Set:
  @DF-RHF Final Energy:  -305.99843385223994
    Total Energy =                       -305.9984338522403959
  Basis Set: CC-PVTZ
  Basis Set:
  Basis Set: CC-PVTZ
  Basis Set:
  @DF-RHF Final Energy:  -305.99859073937665
    Total Energy =                       -305.9985907393765956
  Basis Set: CC-PVTZ
  Basis Set:
  Basis Set: CC-PVTZ
  Basis Set:
  @DF-RHF Final Energy:  -305.99868220531721
    Total Energy =                       -305.9986822053171522
  Basis Set: CC-PVTZ
  Basis Set:
  Basis Set: CC-PVTZ
  Basis Set:
  @DF-RHF Final Energy:  -305.99870169643651
    Total Energy =                       -305.9987016964367967
  Basis Set: CC-PVTZ
  Basis Set:
  Basis Set: CC-PVTZ
  Basis Set:
  @DF-RHF Final Energy:  -305.99870323846238
    Total Energy =                       -305.9987032384624968
  Basis Set: CC-PVTZ
  Basis Set:
  Charge       = 0
  Multiplicity = 1
  Basis Set: CC-PVTZ
  Basis Set:

    Orbital Energies (a.u.)
    -----------------------

    Doubly Occupied:

       1A    -20.606693     2A    -20.537550     3A    -11.374127
       4A    -11.239880     5A    -11.229080     6A    -11.218006
       7A     -1.478984     8A     -1.368259     9A     -1.086588
      10A     -0.979563    11A     -0.848589    12A     -0.820114
      13A     -0.703962    14A     -0.684343    15A     -0.665379
      16A     -0.621657    17A     -0.593676    18A     -0.565281
      19A     -0.551456    20A     -0.526060    21A     -0.498671
      22A     -0.491888    23A     -0.473293    24A     -0.440098

  @DF-RHF Final Energy:  -305.99870334568618

   => Energetics <=

    Nuclear Repulsion Energy =            240.8747323180453179
    One-Electron Energy =                -894.5404781080683279
    Two-Electron Energy =                 347.6670424443369711
    DFT Exchange-Correlation Energy =       0.0000000000000000
    Empirical Dispersion Energy =           0.0000000000000000
    PCM Polarization Energy =               0.0000000000000000
    EFP Energy =                            0.0000000000000000
    Total Energy =                       -305.9987033456860672
    Molecular point group: c1
  Basis Set: CC-PVTZ
  Basis Set:

  -Total Gradient:
     Atom            X                  Y                   Z
    ------   -----------------  -----------------  -----------------
       1       -0.000019404164    -0.000031888658    -0.000009638005
       2       -0.000176738138     0.000317977291    -0.000655961063
       3        0.000170963792    -0.000189277504     0.000778957445
       4        0.000308222970    -0.000749069518     0.000379545811
       5       -0.000023926924    -0.000066391578     0.000015405405
       6       -0.000017246082     0.000032267752     0.000033771954
       7       -0.000268729941     0.000685824338    -0.000517853717
       8        0.000012190625     0.000015491308    -0.000004048980
       9        0.000008017040    -0.000011160320    -0.000004066646
      10        0.000001169237     0.000005405170    -0.000008253880
      11       -0.000006942563    -0.000014119917    -0.000008486615
      12        0.000003359972     0.000001237848     0.000004904471
      13        0.000009909094     0.000000953140    -0.000004742641
      14       -0.000000844911     0.000002750645     0.000000466461

  **** Optimization is complete! (in 7 steps) ****
    Final optimized geometry and variables:
    Molecular point group: c1

    Geometry (in Angstrom), charge = 0, multiplicity = 1:

    H            2.141777235213     1.386120763752     0.361240197920
    O            1.230855812604     1.140272295066     0.423494958591
    C            1.100657979965    -0.091066104637    -0.056665516157
    C           -0.306158665434    -0.628884510767     0.015436106944
    O            2.023456151249    -0.699713098333    -0.478349329439
    C           -1.426896606128     0.407458240242     0.016831849120
    H           -0.410641633854    -1.312287019455    -0.816469904929
    H           -0.350502304199    -1.230100455888     0.919299509191
    C           -2.802900376930    -0.248881299181     0.044833586597
    H           -1.340935206093     1.033500164667    -0.865032164446
    H           -1.315912658809     1.063704487668     0.870250474087
    H           -2.952395939152    -0.888674851028    -0.818195227244
    H           -3.587257970568     0.498232090962     0.042633430916
    H           -2.928923168246    -0.858309170817     0.933524090146

  Mulliken Charges: (a.u.)
   Center  Symbol    Alpha    Beta     Spin     Total
       1     H     0.38244  0.38244  0.00000  0.23511
       2     O     4.15499  4.15499  0.00000 -0.30997
       3     C     2.81245  2.81245  0.00000  0.37510
       4     C     3.09294  3.09294  0.00000 -0.18588
       5     O     4.19567  4.19567  0.00000 -0.39134
       6     C     3.08594  3.08594  0.00000 -0.17188
       7     H     0.43519  0.43519  0.00000  0.12962
       8     H     0.44236  0.44236  0.00000  0.11527
       9     C     3.15119  3.15119  0.00000 -0.30238
      10     H     0.44865  0.44865  0.00000  0.10270
      11     H     0.44434  0.44434  0.00000  0.11132
      12     H     0.45378  0.45378  0.00000  0.09243
      13     H     0.44548  0.44548  0.00000  0.10903
      14     H     0.45457  0.45457  0.00000  0.09086

   Total alpha = 24.00000, Total beta = 24.00000, Total charge =  0.00000

*** Psi4 exiting successfully. Buy a developer a beer!
