                              Psi4 1.0.54 Driver

  ==> Input File <==

--------------------------------------------------------------------------
set {
	reference rhf
	basis cc-pvtz
}

set_num_threads( 4 )
memory 2 gb

molecule MOL {
0 1

H	 -2.826407	 -0.114921	 0.760965
C	 -2.602817	 0.656199	 0.027299
O	 -1.239954	 0.738500	 -0.224434
H	 -3.096016	 0.406442	 -0.900745
H	 -3.000345	 1.602133	 0.390707
C	 -0.470272	 1.065462	 0.885667
C	 0.992832	 1.024028	 0.522410
H	 -0.718841	 2.067420	 1.235327
H	 -0.656021	 0.369938	 1.701249
O	 1.401606	 -0.295166	 0.366636
H	 1.149409	 1.586485	 -0.395500
H	 1.566734	 1.505954	 1.313837
C	 2.714315	 -0.441627	 -0.061017
H	 2.765292	 -0.641548	 -1.128869
H	 3.305661	 0.447341	 0.150952
H	 3.143725	 -1.278506	 0.470147

	symmetry c1
}
set optking {
	frozen_dihedral = ("
		7 10 13 14
	")
}

ee,wfn = optimize('scf', return_wfn=True)
oeprop( wfn, 'DIPOLE', 'QUADRUPOLE', 'MULLIKEN_CHARGES')
f=open( 'psi4out.xyz', 'w' )
f.write( "16  " )
f.write( str(ee) + "\n" )
f.write( MOL.save_string_xyz() )
f.close()
--------------------------------------------------------------------------

    Molecular point group: c1
  Charge       = 0
  Multiplicity = 1
  Basis Set: CC-PVTZ
  Basis Set:
  @DF-RHF Final Energy:  -307.09509957801890
    Total Energy =                       -307.0950995780190738
    Molecular point group: c1
  Basis Set: CC-PVTZ
  Basis Set:
  Basis Set: CC-PVTZ
  Basis Set:
  @DF-RHF Final Energy:  -307.09525779991793
    Total Energy =                       -307.0952577999181017
  Basis Set: CC-PVTZ
  Basis Set:
  Charge       = 0
  Multiplicity = 1
  Basis Set: CC-PVTZ
  Basis Set:

    Orbital Energies (a.u.)
    -----------------------

    Doubly Occupied:

       1A    -20.547544     2A    -20.545119     3A    -11.267696
       4A    -11.266645     5A    -11.261397     6A    -11.261150
       7A     -1.389996     8A     -1.372288     9A     -1.031870
      10A     -0.937235    11A     -0.892168    12A     -0.823959
      13A     -0.685355    14A     -0.681504    15A     -0.658905
      16A     -0.636236    17A     -0.630931    18A     -0.597799
      19A     -0.552992    20A     -0.538461    21A     -0.508982
      22A     -0.479353    23A     -0.464262    24A     -0.421135
      25A     -0.411177

  @DF-RHF Final Energy:  -307.09528960278175

   => Energetics <=

    Nuclear Repulsion Energy =            258.6707119836424340
    One-Electron Energy =                -931.8036857987009398
    Two-Electron Energy =                 366.0376842122768721
    DFT Exchange-Correlation Energy =       0.0000000000000000
    Empirical Dispersion Energy =           0.0000000000000000
    PCM Polarization Energy =               0.0000000000000000
    EFP Energy =                            0.0000000000000000
    Total Energy =                       -307.0952896027815768
    Molecular point group: c1
  Basis Set: CC-PVTZ
  Basis Set:

  -Total Gradient:
     Atom            X                  Y                   Z
    ------   -----------------  -----------------  -----------------
       1        0.000002160892    -0.000000503539    -0.000001736400
       2       -0.000013223831     0.000002605062    -0.000000297218
       3       -0.000032614765     0.000004154597    -0.000014879923
       4        0.000003207927     0.000001189317     0.000001139473
       5       -0.000003233745     0.000000884629    -0.000000690870
       6        0.000098145465    -0.000143152475    -0.000050890258
       7        0.000602294837     0.000254986349     0.002086596522
       8        0.000081392816    -0.000024752173    -0.000028382693
       9       -0.000029246600    -0.000009475812     0.000041819537
      10       -0.000941797973    -0.000718790525    -0.002776183988
      11       -0.000020961244    -0.000022205514    -0.000003274316
      12       -0.000017256737     0.000001958293     0.000006372917
      13        0.000360997608     0.003203307910     0.000304609103
      14       -0.000122406049    -0.002551426415     0.000463366404
      15        0.000029477395    -0.000025863777    -0.000026246455
      16        0.000003064007     0.000027084071    -0.000001321833

  **** Optimization is complete! (in 3 steps) ****
    Final optimized geometry and variables:
    Molecular point group: c1

    Geometry (in Angstrom), charge = 0, multiplicity = 1:

    H           -2.945654985938    -0.596988445143     0.530934499306
    C           -2.736837296390     0.169629777953    -0.211727684322
    O           -1.376566666887     0.269033062366    -0.471057881074
    H           -3.230834269792    -0.096821079501    -1.134689846332
    H           -3.146327066772     1.113446088354     0.143886813010
    C           -0.606296335739     0.618673694719     0.631725654849
    C            0.855452847799     0.594336857087     0.262579656227
    H           -0.866734659430     1.621124574553     0.971333874237
    H           -0.778671743969    -0.070249421277     1.455822782696
    O            1.278736003301    -0.723114787603     0.121886989084
    H            0.997046698303     1.150507961188    -0.661296869471
    H            1.424822251476     1.091566258938     1.046839065991
    C            2.592566942387    -0.891024978698    -0.308898193576
    H            2.625195348127    -1.111082901818    -1.371713294700
    H            3.203280633331    -0.015998081346    -0.108854987240
    H            3.021659904462    -1.732478218798     0.219996411991

  Mulliken Charges: (a.u.)
   Center  Symbol    Alpha    Beta     Spin     Total
       1     H     0.47016  0.47016  0.00000  0.05969
       2     C     3.03202  3.03202  0.00000 -0.06404
       3     O     4.17046  4.17046  0.00000 -0.34091
       4     H     0.44642  0.44642  0.00000  0.10717
       5     H     0.47371  0.47371  0.00000  0.05257
       6     C     2.96249  2.96249  0.00000  0.07502
       7     C     2.95921  2.95921  0.00000  0.08159
       8     H     0.47616  0.47616  0.00000  0.04769
       9     H     0.47109  0.47109  0.00000  0.05782
      10     O     4.17402  4.17402  0.00000 -0.34805
      11     H     0.47114  0.47114  0.00000  0.05772
      12     H     0.47563  0.47563  0.00000  0.04874
      13     C     3.02887  3.02887  0.00000 -0.05775
      14     H     0.46075  0.46075  0.00000  0.07849
      15     H     0.47412  0.47412  0.00000  0.05175
      16     H     0.45375  0.45375  0.00000  0.09250

   Total alpha = 25.00000, Total beta = 25.00000, Total charge = -0.00000

*** Psi4 exiting successfully. Buy a developer a beer!
