                              Psi4 1.0.54 Driver

  ==> Input File <==

--------------------------------------------------------------------------
set {
	reference rhf
	basis cc-pvtz
}

set_num_threads( 4 )
memory 2 gb

molecule MOL {
0 1

O	 1.387049	 0.859445	 -2.078300
C	 0.555677	 0.913411	 -1.217704
C	 -0.604607	 1.878965	 -1.345292
N	 0.622280	 0.144970	 -0.099307
H	 -0.627643	 2.579337	 -0.519886
H	 -0.473900	 2.419629	 -2.267837
H	 -1.552544	 1.355697	 -1.369402
C	 1.664396	 -0.854993	 0.000772
C	 -0.454405	 0.011588	 0.852907
H	 2.462727	 -0.615153	 -0.690869
H	 1.261798	 -1.821849	 -0.240651
H	 2.081615	 -0.891605	 1.003877
H	 -0.038890	 -0.140158	 1.840812
H	 -1.065802	 0.896878	 0.889676
H	 -1.093629	 -0.838807	 0.626490

	symmetry c1
}
set optking {
	frozen_dihedral = ("
		2 4 8 10
	")
}

ee,wfn = optimize('scf', return_wfn=True)
oeprop( wfn, 'DIPOLE', 'QUADRUPOLE', 'MULLIKEN_CHARGES')
f=open( 'psi4out.xyz', 'w' )
f.write( "15  " )
f.write( str(ee) + "\n" )
f.write( MOL.save_string_xyz() )
f.close()
--------------------------------------------------------------------------

    Molecular point group: c1
  Charge       = 0
  Multiplicity = 1
  Basis Set: CC-PVTZ
  Basis Set:
  @DF-RHF Final Energy:  -286.13526416361356
    Total Energy =                       -286.1352641636134422
    Molecular point group: c1
  Basis Set: CC-PVTZ
  Basis Set:
  Basis Set: CC-PVTZ
  Basis Set:
  @DF-RHF Final Energy:  -286.13559597145314
    Total Energy =                       -286.1355959714532560
  Basis Set: CC-PVTZ
  Basis Set:
  Basis Set: CC-PVTZ
  Basis Set:
  @DF-RHF Final Energy:  -286.13559535388504
    Total Energy =                       -286.1355953538852646
  Basis Set: CC-PVTZ
  Basis Set:
  Basis Set: CC-PVTZ
  Basis Set:
  @DF-RHF Final Energy:  -286.13562810987071
    Total Energy =                       -286.1356281098705949
  Basis Set: CC-PVTZ
  Basis Set:
  Basis Set: CC-PVTZ
  Basis Set:
  @DF-RHF Final Energy:  -286.13563921488469
    Total Energy =                       -286.1356392148849181
  Basis Set: CC-PVTZ
  Basis Set:
  Charge       = 0
  Multiplicity = 1
  Basis Set: CC-PVTZ
  Basis Set:

    Orbital Energies (a.u.)
    -----------------------

    Doubly Occupied:

       1A    -20.503631     2A    -15.578464     3A    -11.335155
       4A    -11.263975     5A    -11.246423     6A    -11.226481
       7A     -1.387373     8A     -1.246320     9A     -1.015096
      10A     -0.973193    11A     -0.920844    12A     -0.739037
      13A     -0.683308    14A     -0.661954    15A     -0.653818
      16A     -0.590280    17A     -0.578174    18A     -0.567522
      19A     -0.561746    20A     -0.548390    21A     -0.530365
      22A     -0.507328    23A     -0.413718    24A     -0.370499

  @DF-RHF Final Energy:  -286.13563969092667

   => Energetics <=

    Nuclear Repulsion Energy =            252.8957529643979001
    One-Electron Energy =                -889.8566006451178509
    Two-Electron Energy =                 350.8252079897932276
    DFT Exchange-Correlation Energy =       0.0000000000000000
    Empirical Dispersion Energy =           0.0000000000000000
    PCM Polarization Energy =               0.0000000000000000
    EFP Energy =                            0.0000000000000000
    Total Energy =                       -286.1356396909267801
    Molecular point group: c1
  Basis Set: CC-PVTZ
  Basis Set:

  -Total Gradient:
     Atom            X                  Y                   Z
    ------   -----------------  -----------------  -----------------
       1       -0.000026864368    -0.000021502142     0.000023682401
       2        0.000007319429     0.000013735845    -0.000035251031
       3        0.000018847901     0.000029216011    -0.000000631131
       4        0.000066910505     0.000013591224     0.000062631381
       5       -0.000006026821     0.000004894186    -0.000019814005
       6       -0.000009107161     0.000000541935    -0.000003134558
       7        0.000007440043    -0.000009249129     0.000001277297
       8       -0.000064814583    -0.000049556286     0.000001050944
       9       -0.000049763985    -0.000016743637    -0.000015329551
      10        0.000026182390     0.000016778899    -0.000033861659
      11        0.000022986503     0.000012758999     0.000010112448
      12        0.000006589566     0.000020660605     0.000001598730
      13        0.000004213961    -0.000010155398    -0.000020436032
      14        0.000009296282    -0.000007786393     0.000026957094
      15       -0.000013209663     0.000002815281     0.000001147671

  **** Optimization is complete! (in 6 steps) ****
    Final optimized geometry and variables:
    Molecular point group: c1

    Geometry (in Angstrom), charge = 0, multiplicity = 1:

    O            0.861820351792     0.380770540665    -1.435648868022
    C            0.029634202561     0.431037922862    -0.575612598073
    C           -1.130556482163     1.397026843483    -0.701223967781
    N            0.094234334191    -0.343231780327     0.538585832962
    H           -1.151377864852     2.097862246912     0.123832508197
    H           -1.001236328297     1.937365513872    -1.624153905003
    H           -2.078810046318     0.874352906842    -0.723288295182
    C            1.136960243523    -1.342305796285     0.638742138372
    C           -0.977285265786    -0.473268534643     1.496820395402
    H            1.933127642426    -1.102578285308    -0.042286299850
    H            0.757991284019    -2.332345084288     0.398734306462
    H            1.523428775333    -1.362633448779     1.650605381467
    H           -0.556792056772    -0.617741483198     2.483843922636
    H           -1.591509092516     0.410003865399     1.531001754560
    H           -1.614591177844    -1.327129925793     1.278496787939

  Mulliken Charges: (a.u.)
   Center  Symbol    Alpha    Beta     Spin     Total
       1     O     4.22073  4.22073  0.00000 -0.44146
       2     C     2.84544  2.84544  0.00000  0.30913
       3     C     3.16077  3.16077  0.00000 -0.32154
       4     N     3.56173  3.56173  0.00000 -0.12346
       5     H     0.44887  0.44887  0.00000  0.10226
       6     H     0.42863  0.42863  0.00000  0.14275
       7     H     0.44925  0.44925  0.00000  0.10150
       8     C     3.09897  3.09897  0.00000 -0.19793
       9     C     3.09564  3.09564  0.00000 -0.19129
      10     H     0.42627  0.42627  0.00000  0.14745
      11     H     0.45791  0.45791  0.00000  0.08418
      12     H     0.45666  0.45666  0.00000  0.08667
      13     H     0.44948  0.44948  0.00000  0.10104
      14     H     0.44506  0.44506  0.00000  0.10987
      15     H     0.45459  0.45459  0.00000  0.09082

   Total alpha = 24.00000, Total beta = 24.00000, Total charge = -0.00000

*** Psi4 exiting successfully. Buy a developer a beer!
