                              Psi4 1.0.54 Driver

  ==> Input File <==

--------------------------------------------------------------------------
set {
	reference rhf
	basis cc-pvtz
}

set_num_threads( 4 )
memory 2 gb

molecule MOL {
0 1

H	 3.459101	 0.139266	 -0.762951
C	 2.749156	 -0.051729	 0.031265
C	 1.322304	 0.099773	 -0.484271
H	 2.929445	 -1.053887	 0.403481
H	 2.954281	 0.646699	 0.834672
C	 0.308557	 -0.162619	 0.622645
H	 1.143368	 -0.594400	 -1.295960
H	 1.169532	 1.100095	 -0.870217
N	 -1.069352	 -0.004081	 0.085342
H	 0.371632	 -1.172932	 0.991288
H	 0.400391	 0.548875	 1.426218
O	 -1.279047	 -0.424722	 -1.002622
O	 -1.857355	 0.558008	 0.769483

	symmetry c1
}
set optking {
	frozen_dihedral = ("
		12 9 6 3
	")
}

ee,wfn = optimize('scf', return_wfn=True)
oeprop( wfn, 'DIPOLE', 'QUADRUPOLE', 'MULLIKEN_CHARGES')
f=open( 'psi4out.xyz', 'w' )
f.write( "13  " )
f.write( str(ee) + "\n" )
f.write( MOL.save_string_xyz() )
f.close()
--------------------------------------------------------------------------

    Molecular point group: c1
  Charge       = 0
  Multiplicity = 1
  Basis Set: CC-PVTZ
  Basis Set:
  @DF-RHF Final Energy:  -321.85997003323229
    Total Energy =                       -321.8599700332323437
    Molecular point group: c1
  Basis Set: CC-PVTZ
  Basis Set:
  Basis Set: CC-PVTZ
  Basis Set:
  @DF-RHF Final Energy:  -321.85508931638458
    Total Energy =                       -321.8550893163845217
  Basis Set: CC-PVTZ
  Basis Set:
  Basis Set: CC-PVTZ
  Basis Set:
  @DF-RHF Final Energy:  -321.85978135925916
    Total Energy =                       -321.8597813592592161
  Basis Set: CC-PVTZ
  Basis Set:
  Basis Set: CC-PVTZ
  Basis Set:
  @DF-RHF Final Energy:  -321.86060760130545
    Total Energy =                       -321.8606076013054462
  Basis Set: CC-PVTZ
  Basis Set:
  Basis Set: CC-PVTZ
  Basis Set:
  @DF-RHF Final Energy:  -321.86079971671137
    Total Energy =                       -321.8607997167113126
  Basis Set: CC-PVTZ
  Basis Set:
  Basis Set: CC-PVTZ
  Basis Set:
  @DF-RHF Final Energy:  -321.86087231610679
    Total Energy =                       -321.8608723161065654
  Basis Set: CC-PVTZ
  Basis Set:
  Basis Set: CC-PVTZ
  Basis Set:
  @DF-RHF Final Energy:  -321.86087356833923
    Total Energy =                       -321.8608735683393434
  Basis Set: CC-PVTZ
  Basis Set:
  Charge       = 0
  Multiplicity = 1
  Basis Set: CC-PVTZ
  Basis Set:

    Orbital Energies (a.u.)
    -----------------------

    Doubly Occupied:

       1A    -20.591270     2A    -20.590463     3A    -15.838005
       4A    -11.298460     5A    -11.249200     6A    -11.235573
       7A     -1.636926     8A     -1.421011     9A     -1.132305
      10A     -1.027139    11A     -0.884681    12A     -0.829419
      13A     -0.763623    14A     -0.746022    15A     -0.730293
      16A     -0.663726    17A     -0.605850    18A     -0.581451
      19A     -0.551835    20A     -0.522257    21A     -0.510250
      22A     -0.487604    23A     -0.474379    24A     -0.454518

  @DF-RHF Final Energy:  -321.86087382397955

   => Energetics <=

    Nuclear Repulsion Energy =            247.6856579256760540
    One-Electron Energy =                -929.4405445996493427
    Two-Electron Energy =                 359.8940128499940556
    DFT Exchange-Correlation Energy =       0.0000000000000000
    Empirical Dispersion Energy =           0.0000000000000000
    PCM Polarization Energy =               0.0000000000000000
    EFP Energy =                            0.0000000000000000
    Total Energy =                       -321.8608738239792046
    Molecular point group: c1
  Basis Set: CC-PVTZ
  Basis Set:

  -Total Gradient:
     Atom            X                  Y                   Z
    ------   -----------------  -----------------  -----------------
       1        0.000002634780    -0.000001519077     0.000002899088
       2       -0.000001099848    -0.000006800200    -0.000006062230
       3       -0.000010286328    -0.000378818747    -0.000094695501
       4        0.000002176823     0.000001466698     0.000002200303
       5       -0.000002213660     0.000001072998    -0.000003951934
       6        0.000057430337     0.000699738927     0.000075449384
       7        0.000007273398     0.000002638946    -0.000012949076
       8       -0.000007992124    -0.000010046602     0.000012445460
       9       -0.000188008595    -0.000777991589     0.000161178931
      10        0.000002958194     0.000009459127    -0.000003228808
      11       -0.000000327981     0.000000168779     0.000005740744
      12        0.000134355403     0.000467211983    -0.000154899611
      13        0.000003099595    -0.000006581244     0.000015873251

  **** Optimization is complete! (in 8 steps) ****
    Final optimized geometry and variables:
    Molecular point group: c1

    Geometry (in Angstrom), charge = 0, multiplicity = 1:

    H            3.501342699542     0.109249034348    -0.727161212825
    C            2.767449198924    -0.066494818031     0.048505123299
    C            1.356536368528     0.086577639617    -0.511564007847
    H            2.930888129973    -1.065401479386     0.437910543396
    H            2.956858187288     0.639158216089     0.849624848856
    C            0.320438109010    -0.154942684094     0.571143101853
    H            1.196181623845    -0.607470400624    -1.323291306793
    H            1.224964859653     1.084358881429    -0.914495223258
    N           -1.077808136546     0.010638024954     0.076881218812
    H            0.359959294000    -1.171382977310     0.939255202020
    H            0.412693873108     0.523985138533     1.401377132191
    O           -1.334513292194    -0.405758391474    -1.002320247040
    O           -1.849111528850     0.528339328238     0.812135192737

  Mulliken Charges: (a.u.)
   Center  Symbol    Alpha    Beta     Spin     Total
       1     H     0.44141  0.44141  0.00000  0.11718
       2     C     3.15194  3.15194  0.00000 -0.30389
       3     C     3.09439  3.09439  0.00000 -0.18878
       4     H     0.45264  0.45264  0.00000  0.09471
       5     H     0.45248  0.45248  0.00000  0.09504
       6     C     3.04278  3.04278  0.00000 -0.08556
       7     H     0.43361  0.43361  0.00000  0.13277
       8     H     0.44364  0.44364  0.00000  0.11272
       9     N     3.27567  3.27567  0.00000  0.44865
      10     H     0.43719  0.43719  0.00000  0.12563
      11     H     0.43174  0.43174  0.00000  0.13653
      12     O     4.17217  4.17217  0.00000 -0.34433
      13     O     4.17034  4.17034  0.00000 -0.34068

   Total alpha = 24.00000, Total beta = 24.00000, Total charge = -0.00000

*** Psi4 exiting successfully. Buy a developer a beer!
