  ==> Input File <==

--------------------------------------------------------------------------
set {
	reference rhf
	basis 6-31G*
}

set_num_threads( 1 )
memory 2 gb

molecule MOL {
0 1

H	 -2.646374	 -0.642757	 1.268656
C	 -2.083525	 -0.384536	 0.393091
O	 -0.807605	 -0.127164	 0.768327
F	 -2.118945	 -1.383102	 -0.486752
F	 -2.621877	 0.670592	 -0.209486
C	 0.084052	 0.273579	 -0.209957
C	 -0.059566	 -0.703388	 -1.369728
Cl	 1.743859	 0.268290	 0.408288
H	 -0.125472	 1.264157	 -0.574141
F	 0.754562	 -0.375365	 -2.350410
F	 -1.294843	 -0.642236	 -1.825566
F	 0.189394	 -1.938830	 -1.009625

	symmetry c1
}
set optking {
	frozen_dihedral = ("
		10 7 6 9,
		6 3 2 4
	")
}

ee = energy('scf')
oeprop('DIPOLE', 'QUADRUPOLE', 'MULLIKEN_CHARGES')
f=open( 'psi4out.xyz', 'w' )
f.write( "12  " )
f.write( str(ee) + "\n" )
f.write( MOL.save_string_xyz() )
f.close()
--------------------------------------------------------------------------

    Molecular point group: c1

    Geometry (in Angstrom), charge = 0, multiplicity = 1:

       Center              X                  Y                   Z               Mass
    ------------   -----------------  -----------------  -----------------  -----------------
           H         -2.232325103527    -0.254098388551     1.805250393267     1.007825032070
           C         -1.669476103527     0.004122611449     0.929685393267    12.000000000000
           O         -0.393556103527     0.261494611449     1.304921393267    15.994914619560
           F         -1.704896103527    -0.994443388551     0.049842393267    18.998403224000
           F         -2.207828103527     1.059250611449     0.327108393267    18.998403224000
           C          0.498100896473     0.662237611449     0.326637393267    12.000000000000
           C          0.354482896473    -0.314729388551    -0.833133606733    12.000000000000
          CL          2.157907896473     0.656948611449     0.944882393267    34.968852682000
           H          0.288576896473     1.652815611449    -0.037546606733     1.007825032070
           F          1.168610896473     0.013293611449    -1.813815606733    18.998403224000
           F         -0.880794103527    -0.253577388551    -1.288971606733    18.998403224000
           F          0.603442896473    -1.550171388551    -0.473030606733    18.998403224000

  Charge       = 0
  Multiplicity = 1
  Basis Set: 6-31G*
  Basis Set:

    Orbital Energies (a.u.)
    -----------------------

    Doubly Occupied:

       1A   -104.851701     2A    -26.353911     3A    -26.352792
       4A    -26.342325     5A    -26.331831     6A    -26.314684
       7A    -20.644910     8A    -11.519690     9A    -11.484185
      10A    -11.399869    11A    -10.585877    12A     -8.055275
      13A     -8.051676    14A     -8.051575    15A     -1.767145
      16A     -1.714755    17A     -1.659226    18A     -1.652960
      19A     -1.617339    20A     -1.485016    21A     -1.181611
      22A     -1.042815    23A     -0.996918    24A     -0.918122
      25A     -0.874787    26A     -0.849191    27A     -0.838111
      28A     -0.822402    29A     -0.819872    30A     -0.771963
      31A     -0.741522    32A     -0.717041    33A     -0.708188
      34A     -0.693978    35A     -0.666653    36A     -0.663349
      37A     -0.658171    38A     -0.647603    39A     -0.643209
      40A     -0.621415    41A     -0.550969    42A     -0.545763
      43A     -0.535258    44A     -0.483765    45A     -0.470728

  @DF-RHF Final Energy: -1146.21676366025122

   => Energetics <=

    Nuclear Repulsion Energy =            778.9450862904741371
    One-Electron Energy =               -3140.9235371103713987
    Two-Electron Energy =                1215.7616871596485453
    DFT Exchange-Correlation Energy =       0.0000000000000000
    Empirical Dispersion Energy =           0.0000000000000000
    PCM Polarization Energy =               0.0000000000000000
    EFP Energy =                            0.0000000000000000
    Total Energy =                      -1146.2167636602487164

  Mulliken Charges: (a.u.)
   Center  Symbol    Alpha    Beta     Spin     Total
       1     H     0.39705  0.39705  0.00000  0.20590
       2     C     2.55599  2.55599  0.00000  0.88802
       3     O     4.30740  4.30740  0.00000 -0.61480
       4     F     4.68538  4.68538  0.00000 -0.37075
       5     F     4.69286  4.69286  0.00000 -0.38573
       6     C     3.03289  3.03289  0.00000 -0.06579
       7     C     2.44839  2.44839  0.00000  1.10322
       8    CL     8.48871  8.48871  0.00000  0.02258
       9     H     0.36899  0.36899  0.00000  0.26202
      10     F     4.67554  4.67554  0.00000 -0.35109
      11     F     4.67508  4.67508  0.00000 -0.35015
      12     F     4.67171  4.67171  0.00000 -0.34343

   Total alpha = 45.00000, Total beta = 45.00000, Total charge = -0.00000
