  ==> Input File <==

--------------------------------------------------------------------------
set {
	reference rhf
	basis cc-pvtz
}

set_num_threads( 4 )
memory 2 gb

molecule MOL {
0 1

O	 -0.694481	 1.313155	 -0.204815
C	 -0.862519	 0.151932	 -0.046791
C	 -2.171428	 -0.477048	 0.339095
O	 0.085519	 -0.757083	 -0.192238
H	 -2.467997	 -1.191667	 -0.417688
H	 -2.923379	 0.287970	 0.444097
H	 -2.053854	 -1.015120	 1.270901
C	 1.394352	 -0.463295	 0.282236
C	 1.540863	 -0.783182	 1.755364
H	 1.619546	 0.573162	 0.085104
H	 2.046910	 -1.084344	 -0.312925
H	 2.565637	 -0.610457	 2.064324
H	 0.895247	 -0.154781	 2.353423
H	 1.297702	 -1.821227	 1.947535

	symmetry c1
}
set optking {
	frozen_dihedral = ("
		8 4 2 1
	")
}

ee = optimize('scf')
oeprop('DIPOLE', 'QUADRUPOLE', 'MULLIKEN_CHARGES')
f=open( 'psi4out.xyz', 'w' )
f.write( "14  " )
f.write( str(ee) + "\n" )
f.write( MOL.save_string_xyz() )
f.close()
--------------------------------------------------------------------------

    Molecular point group: c1
  Charge       = 0
  Multiplicity = 1
  Basis Set: CC-PVTZ
  Basis Set:
  @DF-RHF Final Energy:  -305.98332775260633
    Total Energy =                       -305.9833277526065558
    Molecular point group: c1
  Basis Set: CC-PVTZ
  Basis Set:
  Basis Set: CC-PVTZ
  Basis Set:
  @DF-RHF Final Energy:  -305.98062113522889
    Total Energy =                       -305.9806211352291712
  Basis Set: CC-PVTZ
  Basis Set:
  Basis Set: CC-PVTZ
  Basis Set:
  @DF-RHF Final Energy:  -305.98406191688832
    Total Energy =                       -305.9840619168880949
  Basis Set: CC-PVTZ
  Basis Set:
  Basis Set: CC-PVTZ
  Basis Set:
  @DF-RHF Final Energy:  -305.98413154565492
    Total Energy =                       -305.9841315456544635
  Basis Set: CC-PVTZ
  Basis Set:
  @DF-RHF Final Energy:  -305.98414229911077
    Total Energy =                       -305.9841422991107720
  @DF-RHF Final Energy:  -305.98414886901503
    Total Energy =                       -305.9841488690149731
  @DF-RHF Final Energy:  -305.98415014579189
    Total Energy =                       -305.9841501457915456
  Basis Set: CC-PVTZ
  Basis Set:
  @DF-RHF Final Energy:  -305.98355824739656
    Total Energy =                       -305.9835582473963314
  Basis Set: CC-PVTZ
  Basis Set:
  Basis Set: CC-PVTZ
  Basis Set:
  @DF-RHF Final Energy:  -305.98415073532874
    Total Energy =                       -305.9841507353287966
  Basis Set: CC-PVTZ
  Basis Set:
  Basis Set: CC-PVTZ
  Basis Set:
  @DF-RHF Final Energy:  -305.98415211836306
    Total Energy =                       -305.9841521183632267
  Basis Set: CC-PVTZ
  Basis Set:
  Charge       = 0
  Multiplicity = 1
  Basis Set: CC-PVTZ
  Basis Set:

    Orbital Energies (a.u.)
    -----------------------

    Doubly Occupied:

       1A    -20.587002     2A    -20.536948     3A    -11.368751
       4A    -11.285719     5A    -11.232330     6A    -11.223811
       7A     -1.465984     8A     -1.366710     9A     -1.054109
      10A     -1.004331    11A     -0.885176    12A     -0.764710
      13A     -0.699202    14A     -0.685179    15A     -0.666097
      16A     -0.614709    17A     -0.590457    18A     -0.572125
      19A     -0.558676    20A     -0.538401    21A     -0.518850
      22A     -0.495589    23A     -0.454139    24A     -0.441056

  @DF-RHF Final Energy:  -305.98415253648511

   => Energetics <=

    Nuclear Repulsion Energy =            249.1181765946849680
    One-Electron Energy =                -910.9845372721746344
    Two-Electron Energy =                 355.8822081410047531
    DFT Exchange-Correlation Energy =       0.0000000000000000
    Empirical Dispersion Energy =           0.0000000000000000
    PCM Polarization Energy =               0.0000000000000000
    EFP Energy =                            0.0000000000000000
    Total Energy =                       -305.9841525364848849
    Molecular point group: c1
  Basis Set: CC-PVTZ
  Basis Set:

  -Total Gradient:
     Atom            X                  Y                   Z
    ------   -----------------  -----------------  -----------------
       1       -0.002652073180    -0.000282006536    -0.008989048811
       2        0.003275786394    -0.001387702380     0.016744042677
       3       -0.000068630192     0.000071948871    -0.000107129248
       4        0.000983924472     0.004970620256    -0.014032314221
       5        0.000006636387    -0.000039090137     0.000023205961
       6       -0.000001017636    -0.000004031102     0.000012663749
       7       -0.000002790610     0.000007196281     0.000000410806
       8       -0.001562512361    -0.003363442356     0.006341988213
       9        0.000013053757     0.000011106904     0.000008931692
      10        0.000011012187     0.000019383174     0.000002363270
      11       -0.000003164089    -0.000001852700    -0.000005090833
      12       -0.000003098539    -0.000000842168     0.000009363882
      13        0.000002015079     0.000000364509    -0.000001710225
      14        0.000000858335    -0.000001652621    -0.000007676910

  **** Optimization is complete! (in 11 steps) ****
    Final optimized geometry and variables:
    Molecular point group: c1

    Geometry (in Angstrom), charge = 0, multiplicity = 1:

    O           -0.575559750043     1.491462304998    -0.386230063552
    C           -0.750432533433     0.325510082948    -0.313121449199
    C           -2.078316736151    -0.320651030536    -0.041140381620
    O            0.197279250162    -0.575994376138    -0.564454232572
    H           -2.291864775283    -1.050256283616    -0.810960079930
    H           -2.851961917129     0.429147185667    -0.005793426335
    H           -2.030677410771    -0.848200461594     0.904050407646
    C            1.518961200931    -0.315316159662    -0.110370370662
    C            1.657740047487    -0.596406395075     1.371725020513
    H            1.783376007521     0.705149768880    -0.343329440713
    H            2.149204565366    -0.974698846102    -0.687418647768
    H            2.687165479513    -0.447278334034     1.676403454966
    H            1.037651418160     0.072695755328     1.956565949298
    H            1.377688075000    -1.617830792568     1.597932660480

  Mulliken Charges: (a.u.)
   Center  Symbol    Alpha    Beta     Spin     Total
       1     O     4.18892  4.18892  0.00000 -0.37783
       2     C     2.80163  2.80163  0.00000  0.39674
       3     C     3.13656  3.13656  0.00000 -0.27312
       4     O     4.16638  4.16638  0.00000 -0.33276
       5     H     0.44373  0.44373  0.00000  0.11253
       6     H     0.43816  0.43816  0.00000  0.12369
       7     H     0.44942  0.44942  0.00000  0.10116
       8     C     2.98712  2.98712  0.00000  0.02577
       9     C     3.14826  3.14826  0.00000 -0.29652
      10     H     0.44505  0.44505  0.00000  0.10991
      11     H     0.44553  0.44553  0.00000  0.10895
      12     H     0.44881  0.44881  0.00000  0.10239
      13     H     0.44990  0.44990  0.00000  0.10019
      14     H     0.45054  0.45054  0.00000  0.09892

   Total alpha = 24.00000, Total beta = 24.00000, Total charge = -0.00000
