                              Psi4 1.0.54 Driver

  ==> Input File <==

--------------------------------------------------------------------------
set {
	reference rhf
	basis cc-pvtz
}

set_num_threads( 4 )
memory 2 gb

molecule MOL {
0 1

O	 1.847685	 1.294399	 -0.000190
C	 1.704209	 0.119472	 -0.000093
C	 0.380337	 -0.600947	 -0.000234
O	 2.715427	 -0.733672	 0.000025
C	 -0.824290	 0.329213	 -0.000115
H	 0.371455	 -1.255476	 -0.865660
H	 0.371410	 -1.255787	 0.864952
C	 -0.512939	 1.682227	 0.632682
H	 -1.642297	 -0.145613	 0.529675
H	 -1.167536	 0.469407	 -1.018849
C	 -1.709337	 2.629340	 0.641491
H	 -0.166892	 1.534379	 1.653291
H	 0.310316	 2.151646	 0.098702
C	 -1.398356	 3.981439	 1.274366
H	 -2.531886	 2.161894	 1.175405
H	 -2.054789	 2.779021	 -0.377537
H	 -1.082729	 3.867687	 2.306196
H	 -2.267825	 4.628482	 1.264602
H	 -0.602131	 4.489874	 0.740742
C	 4.020999	 -0.192556	 0.000019
H	 4.182809	 0.412891	 -0.879449
H	 4.692590	 -1.035653	 0.000152
H	 4.182726	 0.413087	 0.879368

	symmetry c1
}
set optking {
	frozen_dihedral = ("
		9 5 3 6
	")
}

ee,wfn = optimize('scf', return_wfn=True)
oeprop( wfn, 'DIPOLE', 'QUADRUPOLE', 'MULLIKEN_CHARGES')
f=open( 'psi4out.xyz', 'w' )
f.write( "23  " )
f.write( str(ee) + "\n" )
f.write( MOL.save_string_xyz() )
f.close()
--------------------------------------------------------------------------

    Molecular point group: c1
  Charge       = 0
  Multiplicity = 1
  Basis Set: CC-PVTZ
  Basis Set:
  @DF-RHF Final Energy:  -423.10150984540792
    Total Energy =                       -423.1015098454079180
    Molecular point group: c1
  Basis Set: CC-PVTZ
  Basis Set:
  Basis Set: CC-PVTZ
  Basis Set:
  @DF-RHF Final Energy:  -423.11767522702445
    Total Energy =                       -423.1176752270239376
  Basis Set: CC-PVTZ
  Basis Set:
  Basis Set: CC-PVTZ
  Basis Set:
  @DF-RHF Final Energy:  -423.12031772151477
    Total Energy =                       -423.1203177215146525
  Basis Set: CC-PVTZ
  Basis Set:
  Basis Set: CC-PVTZ
  Basis Set:
  @DF-RHF Final Energy:  -423.11576410806168
    Total Energy =                       -423.1157641080612848
  Basis Set: CC-PVTZ
  Basis Set:
  @DF-RHF Final Energy:  -423.12178953375928
    Total Energy =                       -423.1217895337591699
  @DF-RHF Final Energy:  -423.12262460236082
    Total Energy =                       -423.1226246023608155
  @DF-RHF Final Energy:  -423.11818757979529
    Total Energy =                       -423.1181875797951761
  @DF-RHF Final Energy:  -423.12369148002978
    Total Energy =                       -423.1236914800299473
  @DF-RHF Final Energy:  -423.12333087815944
    Total Energy =                       -423.1233308781593223
  @DF-RHF Final Energy:  -423.12434280047017
    Total Energy =                       -423.1243428004701173
  @DF-RHF Final Energy:  -423.12441331549968
    Total Energy =                       -423.1244133155001919
  @DF-RHF Final Energy:  -423.12460154767882
    Total Energy =                       -423.1246015476788216
  @DF-RHF Final Energy:  -423.12467331774286
    Total Energy =                       -423.1246733177426904
  @DF-RHF Final Energy:  -423.12470401056191
    Total Energy =                       -423.1247040105617998
  @DF-RHF Final Energy:  -423.12478028044950
    Total Energy =                       -423.1247802804502953
  Basis Set: CC-PVTZ
  Basis Set:
  @DF-RHF Final Energy:  -423.12482334601356
    Total Energy =                       -423.1248233460138408
  Basis Set: CC-PVTZ
  Basis Set:
  Basis Set: CC-PVTZ
  Basis Set:
  @DF-RHF Final Energy:  -423.12483904109632
    Total Energy =                       -423.1248390410962656
  Basis Set: CC-PVTZ
  Basis Set:
  Basis Set: CC-PVTZ
  Basis Set:
  @DF-RHF Final Energy:  -423.12484511777018
    Total Energy =                       -423.1248451177701781
  Basis Set: CC-PVTZ
  Basis Set:
  Charge       = 0
  Multiplicity = 1
  Basis Set: CC-PVTZ
  Basis Set:

    Orbital Energies (a.u.)
    -----------------------

    Doubly Occupied:

       1A    -20.598238     2A    -20.530294     3A    -11.363288
       4A    -11.278350     5A    -11.232336     6A    -11.226887
       7A    -11.215973     8A    -11.215049     9A    -11.208012
      10A     -1.471926    11A     -1.363761    12A     -1.094815
      13A     -1.043079    14A     -0.985046    15A     -0.935683
      16A     -0.847128    17A     -0.800909    18A     -0.769545
      19A     -0.695024    20A     -0.680960    21A     -0.674672
      22A     -0.651198    23A     -0.609021    24A     -0.601358
      25A     -0.576556    26A     -0.567182    27A     -0.551057
      28A     -0.530416    29A     -0.526357    30A     -0.506899
      31A     -0.492735    32A     -0.472124    33A     -0.468180
      34A     -0.459741    35A     -0.452972    36A     -0.434108

  @DF-RHF Final Energy:  -423.12484535687344

   => Energetics <=

    Nuclear Repulsion Energy =            471.1572314756487572
    One-Electron Energy =               -1510.3024051600214079
    Two-Electron Energy =                 616.0203283274991009
    DFT Exchange-Correlation Energy =       0.0000000000000000
    Empirical Dispersion Energy =           0.0000000000000000
    PCM Polarization Energy =               0.0000000000000000
    EFP Energy =                            0.0000000000000000
    Total Energy =                       -423.1248453568734931
    Molecular point group: c1
  Basis Set: CC-PVTZ
  Basis Set:

  -Total Gradient:
     Atom            X                  Y                   Z
    ------   -----------------  -----------------  -----------------
       1        0.000030982164     0.000102520100    -0.000114679105
       2       -0.000056230480    -0.000078452793    -0.000104259489
       3       -0.003875094842    -0.004847907975     0.004022602871
       4       -0.000002590149     0.000013614636     0.000109915902
       5       -0.001075449581    -0.001165342199    -0.006952705132
       6        0.003442127809     0.004232535946    -0.002320341725
       7       -0.000020923775     0.000005566187     0.000009326699
       8       -0.000034405213    -0.000026405495     0.000000735628
       9        0.001478620931     0.001737045892     0.005329898087
      10        0.000034529006    -0.000005939890     0.000010386838
      11        0.000009187494     0.000016727917    -0.000011216564
      12        0.000026713468    -0.000009542321    -0.000006651789
      13        0.000029841276     0.000041599361    -0.000025646201
      14       -0.000008336414     0.000007399197     0.000012071462
      15        0.000018474719    -0.000006502728    -0.000009192130
      16        0.000001348274     0.000006698075    -0.000002863698
      17        0.000002542322     0.000002303326     0.000007239762
      18        0.000001599555    -0.000003356236     0.000006295160
      19       -0.000006970138    -0.000004134435    -0.000001686133
      20       -0.000022544649    -0.000023732446     0.000033318128
      21        0.000009518582    -0.000007263859    -0.000019529552
      22        0.000030479711     0.000002127816     0.000035789798
      23       -0.000013420071     0.000010441927    -0.000008808815

  **** Optimization is complete! (in 19 steps) ****
    Final optimized geometry and variables:
    Molecular point group: c1

    Geometry (in Angstrom), charge = 0, multiplicity = 1:

    O            1.557664618614    -0.310681258842    -1.470457519287
    C            1.095078773533    -0.918202344101    -0.563987386960
    C           -0.243322367010    -1.615527482201    -0.609390257856
    O            1.705091236289    -1.054099247782     0.600538780650
    C           -1.433085439583    -0.631085197651    -0.591416130614
    H           -0.235326628430    -2.145991512850    -1.552480222052
    H           -0.308338483579    -2.318780149896     0.206772968101
    C           -1.228519232388     0.619106197602     0.266593467974
    H           -2.284391455029    -1.161444083905    -0.178800903089
    H           -1.677490570399    -0.336922955708    -1.603866760356
    C           -2.479246595516     1.490945324946     0.336216102801
    H           -0.940196707874     0.325287304243     1.272822719362
    H           -0.409816513163     1.209760282225    -0.131864310451
    C           -2.285363023606     2.746040399294     1.180455321674
    H           -3.302536013727     0.908681509371     0.741023960387
    H           -2.773305253068     1.776042070105    -0.670101785157
    H           -2.021172435573     2.493591457454     2.202069131271
    H           -3.190266628902     3.341864815789     1.210882017097
    H           -1.492773370417     3.368513040485     0.779167971994
    C            2.964326984915    -0.428853851478     0.748789344558
    H            3.668102514082    -0.815021202813     0.026623966795
    H            3.293804380624    -0.656561231738     1.749588480089
    H            2.876614172467     0.639582754201     0.618765560887

  Mulliken Charges: (a.u.)
   Center  Symbol    Alpha    Beta     Spin     Total
       1     O     4.20926  4.20926  0.00000 -0.41852
       2     C     2.78999  2.78999  0.00000  0.42001
       3     C     3.09900  3.09900  0.00000 -0.19800
       4     O     4.15223  4.15223  0.00000 -0.30446
       5     C     3.09136  3.09136  0.00000 -0.18271
       6     H     0.43664  0.43664  0.00000  0.12673
       7     H     0.43915  0.43915  0.00000  0.12171
       8     C     3.09904  3.09904  0.00000 -0.19808
       9     H     0.45064  0.45064  0.00000  0.09873
      10     H     0.44603  0.44603  0.00000  0.10795
      11     C     3.08648  3.08648  0.00000 -0.17296
      12     H     0.44921  0.44921  0.00000  0.10159
      13     H     0.44669  0.44669  0.00000  0.10663
      14     C     3.15000  3.15000  0.00000 -0.30000
      15     H     0.45442  0.45442  0.00000  0.09116
      16     H     0.45316  0.45316  0.00000  0.09369
      17     H     0.45546  0.45546  0.00000  0.08908
      18     H     0.44815  0.44815  0.00000  0.10371
      19     H     0.45398  0.45398  0.00000  0.09204
      20     C     3.03845  3.03845  0.00000 -0.07689
      21     H     0.45139  0.45139  0.00000  0.09721
      22     H     0.44517  0.44517  0.00000  0.10966
      23     H     0.45413  0.45413  0.00000  0.09175

   Total alpha = 36.00000, Total beta = 36.00000, Total charge = -0.00000

*** Psi4 exiting successfully. Buy a developer a beer!
