  ==> Input File <==

--------------------------------------------------------------------------
set {
	reference rhf
	basis 6-31G*
}

set_num_threads( 1 )
memory 2 gb

molecule MOL {
0 1

H	 1.889450	 1.682615	 0.337137
O	 1.002121	 1.337458	 0.354473
C	 1.050492	 0.053836	 0.000068
C	 -0.318135	 -0.576402	 0.000164
O	 2.071092	 -0.488261	 -0.274710
C	 -1.454360	 0.441875	 -0.000474
H	 -0.374042	 -1.230163	 -0.866135
H	 -0.374274	 -1.229227	 0.867154
C	 -2.826123	 -0.230780	 0.000056
H	 -1.357605	 1.085198	 -0.868380
H	 -1.357504	 1.086451	 0.866496
H	 -2.959731	 -0.858053	 -0.876869
H	 -3.619374	 0.509403	 -0.000080
H	 -2.959371	 -0.857318	 0.877556

	symmetry c1
}
set optking {
	frozen_dihedral = ("
		7 4 6 10,
		1 2 3 5
	")
}

ee = energy('scf')
oeprop('DIPOLE', 'QUADRUPOLE', 'MULLIKEN_CHARGES')
f=open( 'psi4out.xyz', 'w' )
f.write( "14  " )
f.write( str(ee) + "\n" )
f.write( MOL.save_string_xyz() )
f.close()
--------------------------------------------------------------------------

    Molecular point group: c1

    Geometry (in Angstrom), charge = 0, multiplicity = 1:

       Center              X                  Y                   Z               Mass
    ------------   -----------------  -----------------  -----------------  -----------------
           H          1.941931672217     1.568642384330     0.318817397997     1.007825032070
           O          1.054602672217     1.223485384330     0.336153397997    15.994914619560
           C          1.102973672217    -0.060136615670    -0.018251602003    12.000000000000
           C         -0.265653327783    -0.690374615670    -0.018155602003    12.000000000000
           O          2.123573672217    -0.602233615670    -0.293029602003    15.994914619560
           C         -1.401878327783     0.327902384330    -0.018793602003    12.000000000000
           H         -0.321560327783    -1.344135615670    -0.884454602003     1.007825032070
           H         -0.321792327783    -1.343199615670     0.848834397997     1.007825032070
           C         -2.773641327783    -0.344752615670    -0.018263602003    12.000000000000
           H         -1.305123327783     0.971225384330    -0.886699602003     1.007825032070
           H         -1.305022327783     0.972478384330     0.848176397997     1.007825032070
           H         -2.907249327783    -0.972025615670    -0.895188602003     1.007825032070
           H         -3.566892327783     0.395430384330    -0.018399602003     1.007825032070
           H         -2.906889327783    -0.971290615670     0.859236397997     1.007825032070

  Charge       = 0
  Multiplicity = 1
  Basis Set: 6-31G*
  Basis Set:

    Orbital Energies (a.u.)
    -----------------------

    Doubly Occupied:

       1A    -20.614453     2A    -20.549142     3A    -11.381914
       4A    -11.241038     5A    -11.227668     6A    -11.218187
       7A     -1.475572     8A     -1.365365     9A     -1.086272
      10A     -0.978004    11A     -0.844173    12A     -0.819343
      13A     -0.700137    14A     -0.680012    15A     -0.665337
      16A     -0.615159    17A     -0.589277    18A     -0.565739
      19A     -0.548734    20A     -0.524866    21A     -0.497237
      22A     -0.490121    23A     -0.467980    24A     -0.436767

  @DF-RHF Final Energy:  -305.87714817325821

   => Energetics <=

    Nuclear Repulsion Energy =            241.6256696865776803
    One-Electron Energy =                -895.8404932684661617
    Two-Electron Energy =                 348.3376754086297638
    DFT Exchange-Correlation Energy =       0.0000000000000000
    Empirical Dispersion Energy =           0.0000000000000000
    PCM Polarization Energy =               0.0000000000000000
    EFP Energy =                            0.0000000000000000
    Total Energy =                       -305.8771481732587176

  Mulliken Charges: (a.u.)
   Center  Symbol    Alpha    Beta     Spin     Total
       1     H     0.26739  0.26739  0.00000  0.46522
       2     O     4.34922  4.34922  0.00000 -0.69843
       3     C     2.62028  2.62028  0.00000  0.75944
       4     C     3.21424  3.21424  0.00000 -0.42848
       5     O     4.28168  4.28168  0.00000 -0.56336
       6     C     3.15407  3.15407  0.00000 -0.30814
       7     H     0.39640  0.39640  0.00000  0.20719
       8     H     0.39704  0.39704  0.00000  0.20592
       9     C     3.24280  3.24280  0.00000 -0.48560
      10     H     0.41412  0.41412  0.00000  0.17176
      11     H     0.40714  0.40714  0.00000  0.18572
      12     H     0.42019  0.42019  0.00000  0.15962
      13     H     0.41504  0.41504  0.00000  0.16993
      14     H     0.42039  0.42039  0.00000  0.15923

   Total alpha = 24.00000, Total beta = 24.00000, Total charge = -0.00000
