  ==> Input File <==

--------------------------------------------------------------------------
set {
	reference rhf
	basis 6-31G*
}

set_num_threads( 1 )
memory 2 gb

molecule MOL {
0 1

H	 -3.161837	 0.500524	 -0.000234
C	 -2.367097	 -0.232926	 -0.000000
O	 -1.158440	 0.455814	 -0.000122
H	 -2.468853	 -0.861886	 -0.882833
H	 -2.468942	 -0.861421	 0.883154
C	 -0.029776	 -0.365156	 0.000148
C	 0.776046	 -0.090250	 1.257820
H	 0.575076	 -0.172074	 -0.886854
H	 -0.328277	 -1.413704	 -0.036629
C	 2.037159	 -0.948845	 1.343203
H	 1.037826	 0.963230	 1.275500
H	 0.140866	 -0.269749	 2.119810
H	 2.698887	 -0.766172	 0.501080
H	 2.592207	 -0.732523	 2.249830
H	 1.795601	 -2.008089	 1.350679

	symmetry c1
}
set optking {
	frozen_dihedral = ("
		6 3 2 4,
		11 7 6 8
	")
}

ee = energy('scf')
oeprop('DIPOLE', 'QUADRUPOLE', 'MULLIKEN_CHARGES')
f=open( 'psi4out.xyz', 'w' )
f.write( "15  " )
f.write( str(ee) + "\n" )
f.write( MOL.save_string_xyz() )
f.close()
--------------------------------------------------------------------------

    Molecular point group: c1

    Geometry (in Angstrom), charge = 0, multiplicity = 1:

       Center              X                  Y                   Z               Mass
    ------------   -----------------  -----------------  -----------------  -----------------
           H         -2.984750160870     0.743814174900    -0.511040329427     1.007825032070
           C         -2.190010160870     0.010364174900    -0.510806329427    12.000000000000
           O         -0.981353160870     0.699104174900    -0.510928329427    15.994914619560
           H         -2.291766160870    -0.618595825100    -1.393639329427     1.007825032070
           H         -2.291855160870    -0.618130825100     0.372347670573     1.007825032070
           C          0.147310839130    -0.121865825100    -0.510658329427    12.000000000000
           C          0.953132839130     0.153040174900     0.747013670573    12.000000000000
           H          0.752162839130     0.071216174900    -1.397660329427     1.007825032070
           H         -0.151190160870    -1.170413825100    -0.547435329427     1.007825032070
           C          2.214245839130    -0.705554825100     0.832396670573    12.000000000000
           H          1.214912839130     1.206520174900     0.764693670573     1.007825032070
           H          0.317952839130    -0.026458825100     1.609003670573     1.007825032070
           H          2.875973839130    -0.522881825100    -0.009726329427     1.007825032070
           H          2.769293839130    -0.489232825100     1.739023670573     1.007825032070
           H          1.972687839130    -1.764798825100     0.839872670573     1.007825032070

  Charge       = 0
  Multiplicity = 1
  Basis Set: 6-31G*
  Basis Set:

    Orbital Energies (a.u.)
    -----------------------

    Doubly Occupied:

       1A    -20.551014     2A    -11.265677     3A    -11.265223
       4A    -11.212976     5A    -11.212119     6A     -1.377968
       7A     -1.055969     8A     -0.955910     9A     -0.879776
      10A     -0.808670    11A     -0.671957    12A     -0.653247
      13A     -0.636450    14A     -0.600039    15A     -0.568706
      16A     -0.537159    17A     -0.505377    18A     -0.493452
      19A     -0.482319    20A     -0.463811    21A     -0.404280

  @DF-RHF Final Energy:  -232.13506107552820

   => Energetics <=

    Nuclear Repulsion Energy =            190.9056452364222309
    One-Electron Energy =                -692.8772532326802320
    Two-Electron Energy =                 269.8365469207298588
    DFT Exchange-Correlation Energy =       0.0000000000000000
    Empirical Dispersion Energy =           0.0000000000000000
    PCM Polarization Energy =               0.0000000000000000
    EFP Energy =                            0.0000000000000000
    Total Energy =                       -232.1350610755281423

  Mulliken Charges: (a.u.)
   Center  Symbol    Alpha    Beta     Spin     Total
       1     H     0.41284  0.41284  0.00000  0.17432
       2     C     3.08103  3.08103  0.00000 -0.16207
       3     O     4.30521  4.30521  0.00000 -0.61043
       4     H     0.42915  0.42915  0.00000  0.14169
       5     H     0.43066  0.43066  0.00000  0.13867
       6     C     2.98836  2.98836  0.00000  0.02328
       7     C     3.15598  3.15598  0.00000 -0.31195
       8     H     0.42331  0.42331  0.00000  0.15338
       9     H     0.43210  0.43210  0.00000  0.13581
      10     C     3.24914  3.24914  0.00000 -0.49827
      11     H     0.41381  0.41381  0.00000  0.17237
      12     H     0.42000  0.42000  0.00000  0.16001
      13     H     0.42047  0.42047  0.00000  0.15906
      14     H     0.41601  0.41601  0.00000  0.16798
      15     H     0.42193  0.42193  0.00000  0.15614

   Total alpha = 21.00000, Total beta = 21.00000, Total charge =  0.00000
