                              Psi4 1.0.54 Driver

  ==> Input File <==

--------------------------------------------------------------------------
set {
	reference rhf
	basis cc-pvtz
}

set_num_threads( 4 )
memory 2 gb

molecule MOL {
0 1

H	 1.048073	 0.331734	 2.318100
C	 1.551330	 0.260585	 1.344794
C	 0.692262	 0.592428	 0.156232
O	 2.687282	 -0.062057	 1.288666
C	 -0.554654	 -0.292621	 0.086567
H	 1.293335	 0.497768	 -0.738524
H	 0.390959	 1.633458	 0.252935
C	 -1.846385	 0.513195	 -0.016346
H	 -0.473986	 -0.956115	 -0.769708
H	 -0.597929	 -0.929215	 0.966651
C	 -3.089953	 -0.365049	 -0.098564
H	 -1.798267	 1.154820	 -0.891143
H	 -1.925398	 1.173265	 0.842889
H	 -3.055079	 -1.012299	 -0.968245
H	 -3.988403	 0.236438	 -0.170014
H	 -3.183055	 -0.995885	 0.779079

	symmetry c1
}
set optking {
	frozen_dihedral = ("
		6 3 5 9
	")
}

ee,wfn = optimize('scf', return_wfn=True)
oeprop( wfn, 'DIPOLE', 'QUADRUPOLE', 'MULLIKEN_CHARGES')
f=open( 'psi4out.xyz', 'w' )
f.write( "16  " )
f.write( str(ee) + "\n" )
f.write( MOL.save_string_xyz() )
f.close()
--------------------------------------------------------------------------

    Molecular point group: c1
  Charge       = 0
  Multiplicity = 1
  Basis Set: CC-PVTZ
  Basis Set:
  @DF-RHF Final Energy:  -270.11437070469071
    Total Energy =                       -270.1143707046904865
    Molecular point group: c1
  Basis Set: CC-PVTZ
  Basis Set:
  Basis Set: CC-PVTZ
  Basis Set:
  @DF-RHF Final Energy:  -270.11446339392455
    Total Energy =                       -270.1144633939246660
  Basis Set: CC-PVTZ
  Basis Set:
  Basis Set: CC-PVTZ
  Basis Set:
  @DF-RHF Final Energy:  -270.11152377424389
    Total Energy =                       -270.1115237742438353
  Basis Set: CC-PVTZ
  Basis Set:
  Basis Set: CC-PVTZ
  Basis Set:
  @DF-RHF Final Energy:  -270.11461674376443
    Total Energy =                       -270.1146167437643157
  Basis Set: CC-PVTZ
  Basis Set:
  @DF-RHF Final Energy:  -270.11468577148020
    Total Energy =                       -270.1146857714803673
  Basis Set: CC-PVTZ
  Basis Set:
  @DF-RHF Final Energy:  -270.11468916208287
    Total Energy =                       -270.1146891620827546
  Basis Set: CC-PVTZ
  Basis Set:
  Basis Set: CC-PVTZ
  Basis Set:
  @DF-RHF Final Energy:  -270.11469411408888
    Total Energy =                       -270.1146941140887066
  Basis Set: CC-PVTZ
  Basis Set:
  Basis Set: CC-PVTZ
  Basis Set:
  @DF-RHF Final Energy:  -270.11469538984016
    Total Energy =                       -270.1146953898399943
  Basis Set: CC-PVTZ
  Basis Set:
  Charge       = 0
  Multiplicity = 1
  Basis Set: CC-PVTZ
  Basis Set:

    Orbital Energies (a.u.)
    -----------------------

    Doubly Occupied:

       1A    -20.551698     2A    -11.321600     3A    -11.234680
       4A    -11.233999     5A    -11.228424     6A    -11.217200
       7A     -1.406994     8A     -1.096455     9A     -1.019592
      10A     -0.907530    11A     -0.816142    12A     -0.794316
      13A     -0.674200    14A     -0.656531    15A     -0.623391
      16A     -0.607686    17A     -0.583085    18A     -0.556584
      19A     -0.535690    20A     -0.508726    21A     -0.485247
      22A     -0.483830    23A     -0.477081    24A     -0.412039

  @DF-RHF Final Energy:  -270.11469564256868

   => Energetics <=

    Nuclear Repulsion Energy =            229.4136579000673635
    One-Electron Energy =                -820.1912674930412095
    Two-Electron Energy =                 320.6629139504052546
    DFT Exchange-Correlation Energy =       0.0000000000000000
    Empirical Dispersion Energy =           0.0000000000000000
    PCM Polarization Energy =               0.0000000000000000
    EFP Energy =                            0.0000000000000000
    Total Energy =                       -270.1146956425685630
    Molecular point group: c1
  Basis Set: CC-PVTZ
  Basis Set:

  -Total Gradient:
     Atom            X                  Y                   Z
    ------   -----------------  -----------------  -----------------
       1       -0.000023149362     0.000004650310     0.000019932737
       2        0.000024649481    -0.000013444832    -0.000008817913
       3       -0.001334548838     0.001964998393    -0.001228402186
       4        0.000006455506     0.000001559255    -0.000001954361
       5        0.001201633802    -0.001799080932     0.001465891441
       6        0.000905707118    -0.001332764530     0.000774473478
       7        0.000003331413    -0.000003190100     0.000003593533
       8        0.000005441639     0.000002747211    -0.000013202045
       9       -0.000789647569     0.001183225179    -0.001017282947
      10        0.000002874903    -0.000003523384     0.000002528031
      11       -0.000003313075    -0.000004241427     0.000004590221
      12        0.000000016533     0.000004280456     0.000001556486
      13        0.000002598702    -0.000004456573    -0.000002587020
      14       -0.000000447593     0.000001887022     0.000001090440
      15        0.000000023232    -0.000001309860     0.000000861841
      16       -0.000001625895    -0.000001336189    -0.000002271735

  **** Optimization is complete! (in 9 steps) ****
    Final optimized geometry and variables:
    Molecular point group: c1

    Geometry (in Angstrom), charge = 0, multiplicity = 1:

    H            1.132387956595     0.161203777177     1.855460353548
    C            1.655592202342     0.168055059737     0.889622693003
    C            0.789283689283     0.484794584050    -0.299679500711
    O            2.813806999210    -0.061857418106     0.842063245349
    C           -0.467491405691    -0.408824398449    -0.363856843469
    H            1.402262850659     0.386739220991    -1.184362190576
    H            0.500218759801     1.528288500618    -0.205475199457
    C           -1.770706614142     0.377089546035    -0.494696157812
    H           -0.378108626294    -1.080158197925    -1.209855360514
    H           -0.524864283214    -1.038952013943     0.519517632589
    C           -2.999635216780    -0.518943637017    -0.593734604120
    H           -1.714696471806     1.014659411413    -1.372590326066
    H           -1.874767405425     1.042055216928     0.358444347187
    H           -2.940320072028    -1.170095735711    -1.459265751212
    H           -3.905645067208     0.068613019416    -0.683465197905
    H           -3.098362020339    -1.147165516137     0.285224111710

  Mulliken Charges: (a.u.)
   Center  Symbol    Alpha    Beta     Spin     Total
       1     H     0.46723  0.46723  0.00000  0.06553
       2     C     2.90273  2.90273  0.00000  0.19455
       3     C     3.08525  3.08525  0.00000 -0.17051
       4     O     4.16419  4.16419  0.00000 -0.32838
       5     C     3.10373  3.10373  0.00000 -0.20747
       6     H     0.43914  0.43914  0.00000  0.12172
       7     H     0.44857  0.44857  0.00000  0.10286
       8     C     3.08554  3.08554  0.00000 -0.17108
       9     H     0.44331  0.44331  0.00000  0.11339
      10     H     0.45186  0.45186  0.00000  0.09628
      11     C     3.14955  3.14955  0.00000 -0.29910
      12     H     0.45074  0.45074  0.00000  0.09852
      13     H     0.45392  0.45392  0.00000  0.09215
      14     H     0.45350  0.45350  0.00000  0.09301
      15     H     0.44669  0.44669  0.00000  0.10662
      16     H     0.45404  0.45404  0.00000  0.09192

   Total alpha = 24.00000, Total beta = 24.00000, Total charge = -0.00000

*** Psi4 exiting successfully. Buy a developer a beer!
