  ==> Input File <==

--------------------------------------------------------------------------
set {
	reference rhf
	basis cc-pvtz
}

set_num_threads( 4 )
memory 2 gb

molecule MOL {
0 1

H	 3.078425	 -1.344495	 -0.391983
O	 2.173507	 -1.597788	 -0.411770
C	 1.364203	 -0.540413	 -0.205732
C	 1.856132	 0.738928	 0.003970
C	 0.002482	 -0.763422	 -0.207949
H	 2.917201	 0.910860	 0.005377
C	 0.986754	 1.790790	 0.210664
H	 -0.380557	 -1.750329	 -0.369621
C	 -0.861704	 0.296439	 0.000000
H	 1.378805	 2.776255	 0.371842
C	 -0.376824	 1.576139	 0.209954
C	 -2.330689	 0.069587	 0.000000
H	 -1.055306	 2.392108	 0.370404
O	 -2.848621	 -0.993976	 0.000000
H	 -2.934306	 0.982410	 0.000000

	symmetry c1
}
set optking {
	frozen_dihedral = ("
		11 9 12 14
	")
}

ee = optimize('scf')
oeprop('DIPOLE', 'QUADRUPOLE', 'MULLIKEN_CHARGES')
f=open( 'psi4out.xyz', 'w' )
f.write( "15  " )
f.write( str(ee) + "\n" )
f.write( MOL.save_string_xyz() )
f.close()
--------------------------------------------------------------------------

    Molecular point group: c1
  Charge       = 0
  Multiplicity = 1
  Basis Set: CC-PVTZ
  Basis Set:
  @DF-RHF Final Energy:  -418.43857645404080
    Total Energy =                       -418.4385764540406853
    Molecular point group: c1
  Basis Set: CC-PVTZ
  Basis Set:
  Basis Set: CC-PVTZ
  Basis Set:
  @DF-RHF Final Energy:  -418.43818456556329
    Total Energy =                       -418.4381845655630059
  Basis Set: CC-PVTZ
  Basis Set:
  Basis Set: CC-PVTZ
  Basis Set:
  @DF-RHF Final Energy:  -418.43861056934708
    Total Energy =                       -418.4386105693471336
  Basis Set: CC-PVTZ
  Basis Set:
  Basis Set: CC-PVTZ
  Basis Set:
  @DF-RHF Final Energy:  -418.43862946635244
    Total Energy =                       -418.4386294663527224
  Basis Set: CC-PVTZ
  Basis Set:
  Charge       = 0
  Multiplicity = 1
  Basis Set: CC-PVTZ
  Basis Set:

    Orbital Energies (a.u.)
    -----------------------

    Doubly Occupied:

       1A    -20.595782     2A    -20.554600     3A    -11.327569
       4A    -11.311851     5A    -11.251046     6A    -11.250795
       7A    -11.247545     8A    -11.243052     9A    -11.237285
      10A     -1.427550    11A     -1.410325    12A     -1.174266
      13A     -1.052085    14A     -1.030914    15A     -0.902749
      16A     -0.850170    17A     -0.817044    18A     -0.740346
      19A     -0.706272    20A     -0.689923    21A     -0.644805
      22A     -0.640722    23A     -0.614693    24A     -0.608724
      25A     -0.580034    26A     -0.556350    27A     -0.545833
      28A     -0.516426    29A     -0.492793    30A     -0.426852
      31A     -0.358325    32A     -0.330796

  @DF-RHF Final Energy:  -418.43862961162648

   => Energetics <=

    Nuclear Repulsion Energy =            404.1035037635488720
    One-Electron Energy =               -1370.8092217831585913
    Two-Electron Energy =                 548.2670884079834650
    DFT Exchange-Correlation Energy =       0.0000000000000000
    Empirical Dispersion Energy =           0.0000000000000000
    PCM Polarization Energy =               0.0000000000000000
    EFP Energy =                            0.0000000000000000
    Total Energy =                       -418.4386296116263111
    Molecular point group: c1
  Basis Set: CC-PVTZ
  Basis Set:

  -Total Gradient:
     Atom            X                  Y                   Z
    ------   -----------------  -----------------  -----------------
       1       -0.000000702662     0.000001524600    -0.000012445401
       2       -0.000001859513    -0.000008467693     0.000003003593
       3        0.000041071849     0.000038263344     0.000036639012
       4        0.000008644612    -0.000044191584    -0.000063350758
       5       -0.000046931350     0.000012830570     0.000021767692
       6       -0.000001750379     0.000002876079     0.000006379849
       7       -0.000052553662     0.000007707936     0.000053658569
       8        0.000002771292     0.000001801971    -0.000011629276
       9       -0.000072942503     0.000304792772    -0.001207437624
      10        0.000002630531     0.000000531406    -0.000009264628
      11        0.000098554766    -0.000217791610     0.001360171311
      12       -0.000001742327    -0.000070726836    -0.001897381768
      13       -0.000001848357    -0.000001798535    -0.000004336259
      14        0.000024895511    -0.000026501634     0.001728143632
      15        0.000001762192    -0.000000850787    -0.000003917942

  **** Optimization is complete! (in 5 steps) ****
    Final optimized geometry and variables:
    Molecular point group: c1

    Geometry (in Angstrom), charge = 0, multiplicity = 1:

    H            3.079043317772    -1.349725653109    -0.329064440315
    O            2.174025238141    -1.602533616348    -0.355774965592
    C            1.364574707484    -0.545243567305    -0.151553113804
    C            1.856592365472     0.733549729212     0.063356429216
    C            0.002905423835    -0.767382250537    -0.158448626557
    H            2.917910256487     0.904159897936     0.071140432053
    C            0.987194955287     1.785542978227     0.267484808529
    H           -0.379970856655    -1.755251457880    -0.315251559224
    C           -0.861540363898     0.294434942625     0.039219575777
    H            1.379140437988     2.769936553445     0.435452225407
    C           -0.377011079821     1.573191043969     0.253754203747
    C           -2.330325072432     0.064586817890     0.057020601267
    H           -1.055569031668     2.390277526607     0.408433918897
    O           -2.845328586638    -1.000195803977     0.054741114861
    H           -2.935321652495     0.976086377339     0.091459631620

  Mulliken Charges: (a.u.)
   Center  Symbol    Alpha    Beta     Spin     Total
       1     H     0.38732  0.38732  0.00000  0.22537
       2     O     4.16968  4.16968  0.00000 -0.33935
       3     C     2.84154  2.84154  0.00000  0.31693
       4     C     3.12682  3.12682  0.00000 -0.25364
       5     C     3.11903  3.11903  0.00000 -0.23805
       6     H     0.43125  0.43125  0.00000  0.13749
       7     C     3.06282  3.06282  0.00000 -0.12563
       8     H     0.40527  0.40527  0.00000  0.18947
       9     C     2.96882  2.96882  0.00000  0.06235
      10     H     0.41937  0.41937  0.00000  0.16126
      11     C     3.10987  3.10987  0.00000 -0.21974
      12     C     2.90997  2.90997  0.00000  0.18005
      13     H     0.42334  0.42334  0.00000  0.15332
      14     O     4.16833  4.16833  0.00000 -0.33665
      15     H     0.45658  0.45658  0.00000  0.08683

   Total alpha = 32.00000, Total beta = 32.00000, Total charge = -0.00000
