  ==> Input File <==

--------------------------------------------------------------------------
set {
	reference rhf
	basis cc-pvtz
}

set_num_threads( 4 )
memory 2 gb

molecule MOL {
0 1

O	 -1.122364	 -1.102771	 2.056748
C	 -0.439844	 -1.126239	 1.089554
C	 0.815782	 -1.946189	 0.931609
O	 -0.695554	 -0.422406	 0.000602
C	 1.154279	 -2.776244	 2.159372
H	 1.618413	 -1.259813	 0.685394
H	 0.682336	 -2.572161	 0.056231
H	 1.302744	 -2.146591	 3.026386
H	 2.062219	 -3.341408	 1.987373
H	 0.358155	 -3.470878	 2.391524
C	 -1.852370	 0.402254	 0.000718
C	 -3.063338	 -0.501097	 -0.000437
H	 -1.831732	 1.039442	 -0.872158
H	 -1.832493	 1.038301	 0.874430
H	 -3.071944	 -1.133732	 -0.879113
H	 -3.966302	 0.097976	 -0.000483
H	 -3.072764	 -1.134834	 0.877435

	symmetry c1
}
set optking {
	frozen_dihedral = ("
		2 4 11 13
	")
}

ee = optimize('scf')
oeprop('DIPOLE', 'QUADRUPOLE', 'MULLIKEN_CHARGES')
f=open( 'psi4out.xyz', 'w' )
f.write( "17  " )
f.write( str(ee) + "\n" )
f.write( MOL.save_string_xyz() )
f.close()
--------------------------------------------------------------------------

    Molecular point group: c1
  Charge       = 0
  Multiplicity = 1
  Basis Set: CC-PVTZ
  Basis Set:
  @DF-RHF Final Energy:  -345.03511957945477
    Total Energy =                       -345.0351195794551131
    Molecular point group: c1
  Basis Set: CC-PVTZ
  Basis Set:
  Basis Set: CC-PVTZ
  Basis Set:
  @DF-RHF Final Energy:  -345.03842557660346
    Total Energy =                       -345.0384255766029469
  Basis Set: CC-PVTZ
  Basis Set:
  Basis Set: CC-PVTZ
  Basis Set:
  @DF-RHF Final Energy:  -345.03881906783647
    Total Energy =                       -345.0388190678370961
  Basis Set: CC-PVTZ
  Basis Set:
  Basis Set: CC-PVTZ
  Basis Set:
  @DF-RHF Final Energy:  -345.03871877302208
    Total Energy =                       -345.0387187730225378
  Basis Set: CC-PVTZ
  Basis Set:
  Basis Set: CC-PVTZ
  Basis Set:
  @DF-RHF Final Energy:  -345.03883213203773
    Total Energy =                       -345.0388321320374416
  Basis Set: CC-PVTZ
  Basis Set:
  Basis Set: CC-PVTZ
  Basis Set:
  @DF-RHF Final Energy:  -345.03883751909677
    Total Energy =                       -345.0388375190964894
  Basis Set: CC-PVTZ
  Basis Set:
  Charge       = 0
  Multiplicity = 1
  Basis Set: CC-PVTZ
  Basis Set:

    Orbital Energies (a.u.)
    -----------------------

    Doubly Occupied:

       1A    -20.592870     2A    -20.532800     3A    -11.364318
       4A    -11.283865     5A    -11.235591     6A    -11.214751
       7A    -11.213759     8A     -1.469381     9A     -1.364942
      10A     -1.069544    11A     -1.028504    12A     -0.917427
      13A     -0.855177    14A     -0.757262    15A     -0.704618
      16A     -0.683107    17A     -0.663508    18A     -0.623011
      19A     -0.612222    20A     -0.569566    21A     -0.546991
      22A     -0.532475    23A     -0.521785    24A     -0.517215
      25A     -0.497341    26A     -0.491896    27A     -0.453998
      28A     -0.437560

  @DF-RHF Final Energy:  -345.03883799432987

   => Energetics <=

    Nuclear Repulsion Energy =            319.7010351150573229
    One-Electron Energy =               -1103.9687770350576557
    Two-Electron Energy =                 439.2289039256705792
    DFT Exchange-Correlation Energy =       0.0000000000000000
    Empirical Dispersion Energy =           0.0000000000000000
    PCM Polarization Energy =               0.0000000000000000
    EFP Energy =                            0.0000000000000000
    Total Energy =                       -345.0388379943298105
    Molecular point group: c1
  Basis Set: CC-PVTZ
  Basis Set:

  -Total Gradient:
     Atom            X                  Y                   Z
    ------   -----------------  -----------------  -----------------
       1        0.000020247985     0.000008292789     0.000009632582
       2       -0.001420789020    -0.002153613594    -0.001080367766
       3       -0.000039490692    -0.000057714829    -0.000014216438
       4        0.001797587025     0.002713761253     0.001246471187
       5        0.000018389249     0.000016808871     0.000005225687
       6        0.000009777053     0.000025343229     0.000016557368
       7        0.000017850172     0.000023324071     0.000008766444
       8       -0.000005827041    -0.000002616795    -0.000009064272
       9       -0.000001227648    -0.000007169952     0.000001194275
      10       -0.000004084624    -0.000008593052     0.000002032052
      11        0.001049645387     0.001622381404     0.001464970486
      12       -0.000025638384     0.000006357046     0.000011210381
      13       -0.001430282688    -0.002178602925    -0.001649422088
      14       -0.000000207961    -0.000003096700    -0.000001402054
      15        0.000003323616    -0.000002162974    -0.000005693200
      16        0.000011231032    -0.000013722990     0.000004145551
      17       -0.000000503461     0.000011025150    -0.000010040194

  **** Optimization is complete! (in 7 steps) ****
    Final optimized geometry and variables:
    Molecular point group: c1

    Geometry (in Angstrom), charge = 0, multiplicity = 1:

    O           -0.308110649077    -0.039518004975     1.215503299259
    C            0.335499914156    -0.065464245804     0.221689614908
    C            1.578765484114    -0.894331808484     0.016921099044
    O            0.055488171194     0.649462688901    -0.853784038499
    C            1.968841204221    -1.712225616671     1.237513786668
    H            2.372672655093    -0.215812287942    -0.274588273870
    H            1.401521521216    -1.529889252183    -0.843739274438
    H            2.160479085040    -1.073542922156     2.089341327016
    H            2.864950650163    -2.284543660443     1.030636428434
    H            1.180688827280    -2.399590129835     1.514205879448
    C           -1.128531011080     1.438004113593    -0.872726881076
    C           -2.390539302164     0.603062831300    -0.977977593042
    H           -1.025627493929     2.043644924427    -1.760253485916
    H           -1.148786786060     2.073540039543     0.000141992716
    H           -2.344664003610    -0.043983328249    -1.846235542802
    H           -3.243205040279     1.262722923285    -1.094229040027
    H           -2.543245098000    -0.000141235865    -0.095967599251

  Mulliken Charges: (a.u.)
   Center  Symbol    Alpha    Beta     Spin     Total
       1     O     4.19946  4.19946  0.00000 -0.39892
       2     C     2.80160  2.80160  0.00000  0.39681
       3     C     3.09368  3.09368  0.00000 -0.18736
       4     O     4.15630  4.15630  0.00000 -0.31261
       5     C     3.13983  3.13983  0.00000 -0.27966
       6     H     0.44095  0.44095  0.00000  0.11810
       7     H     0.44251  0.44251  0.00000  0.11497
       8     H     0.44855  0.44855  0.00000  0.10290
       9     H     0.45052  0.45052  0.00000  0.09895
      10     H     0.44866  0.44866  0.00000  0.10267
      11     C     2.98631  2.98631  0.00000  0.02738
      12     C     3.15390  3.15390  0.00000 -0.30780
      13     H     0.44479  0.44479  0.00000  0.11043
      14     H     0.45128  0.45128  0.00000  0.09744
      15     H     0.45303  0.45303  0.00000  0.09394
      16     H     0.45067  0.45067  0.00000  0.09866
      17     H     0.43795  0.43795  0.00000  0.12411

   Total alpha = 28.00000, Total beta = 28.00000, Total charge =  0.00000
