  ==> Input File <==

--------------------------------------------------------------------------
set {
	reference rhf
	basis 6-31G*
}

set_num_threads( 4 )
memory 2 gb

molecule MOL {
0 1

H	 2.606119	 -0.496535	 0.548173
O	 2.064459	 -0.086912	 -0.111827
C	 0.745630	 0.005118	 0.354752
H	 0.739005	 0.037656	 1.444976
C	 -0.064159	 -1.194875	 -0.122754
C	 -0.046302	 1.193543	 -0.190431
H	 0.197384	 -1.376065	 -1.160690
H	 0.162855	 -2.097978	 0.431858
C	 -1.535782	 -0.752177	 0.006642
H	 0.154512	 1.271315	 -1.255561
H	 0.226209	 2.140461	 0.267302
C	 -1.509193	 0.801505	 0.065617
H	 -2.127797	 -1.112194	 -0.826847
H	 -1.986849	 -1.158408	 0.905561
H	 -2.183670	 1.254107	 -0.651985
H	 -1.821727	 1.144320	 1.047089

	symmetry c1
}
set optking {
	frozen_dihedral = ("
		1 2 3 6
	")
}

ee = optimize('scf')
oeprop('DIPOLE', 'QUADRUPOLE', 'MULLIKEN_CHARGES')
f=open( 'psi4out.xyz', 'w' )
f.write( "16  " )
f.write( str(ee) + "\n" )
f.write( MOL.save_string_xyz() )
f.close()
--------------------------------------------------------------------------

    Molecular point group: c1
  Charge       = 0
  Multiplicity = 1
  Basis Set: 6-31G*
  Basis Set:
  @DF-RHF Final Energy:  -270.01222413775952
    Total Energy =                       -270.0122241377592900
    Molecular point group: c1
  Basis Set: 6-31G*
  Basis Set:
  Basis Set: 6-31G*
  Basis Set:
  @DF-RHF Final Energy:  -270.01346328690175
    Total Energy =                       -270.0134632869018105
  Basis Set: 6-31G*
  Basis Set:
  Basis Set: 6-31G*
  Basis Set:
  @DF-RHF Final Energy:  -270.01356246939952
    Total Energy =                       -270.0135624693995169
  Basis Set: 6-31G*
  Basis Set:
  Basis Set: 6-31G*
  Basis Set:
  @DF-RHF Final Energy:  -270.01356734315897
    Total Energy =                       -270.0135673431589112
  Basis Set: 6-31G*
  Basis Set:
  @DF-RHF Final Energy:  -270.01356946728072
    Total Energy =                       -270.0135694672807745
  @DF-RHF Final Energy:  -270.01357856225064
    Total Energy =                       -270.0135785622506432
  @DF-RHF Final Energy:  -270.01359015210130
    Total Energy =                       -270.0135901521013011
  @DF-RHF Final Energy:  -270.01360182528867
    Total Energy =                       -270.0136018252886743
  Basis Set: 6-31G*
  Basis Set:
  @DF-RHF Final Energy:  -270.01360416774565
    Total Energy =                       -270.0136041677456546
  Basis Set: 6-31G*
  Basis Set:
  Basis Set: 6-31G*
  Basis Set:
  @DF-RHF Final Energy:  -270.01360610913127
    Total Energy =                       -270.0136061091312172
  Basis Set: 6-31G*
  Basis Set:
  Basis Set: 6-31G*
  Basis Set:
  @DF-RHF Final Energy:  -270.01360792593533
    Total Energy =                       -270.0136079259353323
  Basis Set: 6-31G*
  Basis Set:
  Charge       = 0
  Multiplicity = 1
  Basis Set: 6-31G*
  Basis Set:

    Orbital Energies (a.u.)
    -----------------------

    Doubly Occupied:

       1A    -20.551705     2A    -11.269161     3A    -11.215017
       4A    -11.214008     5A    -11.208165     6A    -11.207424
       7A     -1.360366     8A     -1.111820     9A     -0.963724
      10A     -0.947612    11A     -0.782817    12A     -0.776115
      13A     -0.711248    14A     -0.652439    15A     -0.619193
      16A     -0.579750    17A     -0.556608    18A     -0.523011
      19A     -0.516048    20A     -0.479825    21A     -0.468818
      22A     -0.455339    23A     -0.451545    24A     -0.411980

  @DF-RHF Final Energy:  -270.01360833638535

   => Energetics <=

    Nuclear Repulsion Energy =            254.9347153750776442
    One-Electron Energy =                -871.8291740686200910
    Two-Electron Energy =                 346.8808503571571009
    DFT Exchange-Correlation Energy =       0.0000000000000000
    Empirical Dispersion Energy =           0.0000000000000000
    PCM Polarization Energy =               0.0000000000000000
    EFP Energy =                            0.0000000000000000
    Total Energy =                       -270.0136083363853459
    Molecular point group: c1
  Basis Set: 6-31G*
  Basis Set:

  -Total Gradient:
     Atom            X                  Y                   Z
    ------   -----------------  -----------------  -----------------
       1        0.000268096303     0.001524570940     0.000817003335
       2       -0.000216881930    -0.001668532762    -0.000683022856
       3       -0.000339826632    -0.000364048836    -0.000962027574
       4       -0.000000987558    -0.000026692350     0.000001898175
       5       -0.000019145925     0.000019692727    -0.000021218009
       6        0.000307636611     0.000529388197     0.000851253217
       7        0.000000640123    -0.000008014340    -0.000002854749
       8        0.000000681633     0.000002340291     0.000005094009
       9        0.000010531999    -0.000000722183     0.000000909123
      10       -0.000000517639    -0.000007780305    -0.000002216654
      11       -0.000000625003     0.000002792694    -0.000009832230
      12       -0.000006103109    -0.000003276212    -0.000003856339
      13        0.000009896382     0.000003681901    -0.000007282400
      14       -0.000011993508    -0.000003837408    -0.000003679376
      15       -0.000009445101     0.000008026661     0.000009967563
      16        0.000008043356    -0.000007589013     0.000009864765

  **** Optimization is complete! (in 12 steps) ****
    Final optimized geometry and variables:
    Molecular point group: c1

    Geometry (in Angstrom), charge = 0, multiplicity = 1:

    H            2.635965015542    -0.436068231376     0.505179901245
    O            2.067032522332    -0.004692616846    -0.114633074375
    C            0.743168956458    -0.024617760115     0.353425090598
    H            0.735318393180    -0.032022399294     1.443321749384
    C           -0.087343864942    -1.196784756118    -0.166669005347
    C           -0.025002659550     1.195036869350    -0.145137619644
    H            0.124366254191    -1.310021363375    -1.226078691658
    H            0.149574283540    -2.139235293255     0.317644219513
    C           -1.539068569697    -0.747998676229     0.060800558641
    H            0.240958059734     1.348171573154    -1.186777558206
    H            0.235768368327     2.099780402206     0.392111745648
    C           -1.509861620915     0.806264536158    -0.006169217871
    H           -2.216027783451    -1.178447798852    -0.668063064392
    H           -1.884757954769    -1.073785713817     1.037001826827
    H           -2.095698916155     1.184472802993    -0.835993945103
    H           -1.938777037177     1.231800884605     0.894933938883

  Mulliken Charges: (a.u.)
   Center  Symbol    Alpha    Beta     Spin     Total
       1     H     0.28063  0.28063  0.00000  0.43874
       2     O     4.37713  4.37713  0.00000 -0.75426
       3     C     2.91029  2.91029  0.00000  0.17943
       4     H     0.43145  0.43145  0.00000  0.13710
       5     C     3.16964  3.16964  0.00000 -0.33929
       6     C     3.16637  3.16637  0.00000 -0.33273
       7     H     0.41329  0.41329  0.00000  0.17343
       8     H     0.42051  0.42051  0.00000  0.15899
       9     C     3.16982  3.16982  0.00000 -0.33963
      10     H     0.41133  0.41133  0.00000  0.17733
      11     H     0.41475  0.41475  0.00000  0.17051
      12     C     3.16926  3.16926  0.00000 -0.33852
      13     H     0.41421  0.41421  0.00000  0.17159
      14     H     0.41891  0.41891  0.00000  0.16217
      15     H     0.41463  0.41463  0.00000  0.17073
      16     H     0.41780  0.41780  0.00000  0.16441

   Total alpha = 24.00000, Total beta = 24.00000, Total charge =  0.00000
