  ==> Input File <==

--------------------------------------------------------------------------
set {
	reference rhf
	basis cc-pvtz
}

set_num_threads( 4 )
memory 2 gb

molecule MOL {
0 1

H	 3.459101	 0.139266	 -0.762951
C	 2.749156	 -0.051729	 0.031265
C	 1.322304	 0.099773	 -0.484271
H	 2.929445	 -1.053887	 0.403481
H	 2.954281	 0.646699	 0.834672
C	 0.308557	 -0.162619	 0.622645
H	 1.143368	 -0.594400	 -1.295960
H	 1.169532	 1.100095	 -0.870217
N	 -1.069352	 -0.004081	 0.085342
H	 0.371632	 -1.172932	 0.991288
H	 0.400391	 0.548875	 1.426218
O	 -1.723447	 -0.985801	 -0.028517
O	 -1.410373	 1.089255	 -0.220046

	symmetry c1
}
set optking {
	frozen_dihedral = ("
		12 9 6 3
	")
}

ee = optimize('scf')
oeprop('DIPOLE', 'QUADRUPOLE', 'MULLIKEN_CHARGES')
f=open( 'psi4out.xyz', 'w' )
f.write( "13  " )
f.write( str(ee) + "\n" )
f.write( MOL.save_string_xyz() )
f.close()
--------------------------------------------------------------------------

    Molecular point group: c1
  Charge       = 0
  Multiplicity = 1
  Basis Set: CC-PVTZ
  Basis Set:
  @DF-RHF Final Energy:  -321.86130675425386
    Total Energy =                       -321.8613067542539170
    Molecular point group: c1
  Basis Set: CC-PVTZ
  Basis Set:
  Basis Set: CC-PVTZ
  Basis Set:
  @DF-RHF Final Energy:  -321.85614819697139
    Total Energy =                       -321.8561481969712759
  Basis Set: CC-PVTZ
  Basis Set:
  Basis Set: CC-PVTZ
  Basis Set:
  @DF-RHF Final Energy:  -321.86123316216890
    Total Energy =                       -321.8612331621686167
  Basis Set: CC-PVTZ
  Basis Set:
  Basis Set: CC-PVTZ
  Basis Set:
  @DF-RHF Final Energy:  -321.86140357378076
    Total Energy =                       -321.8614035737806489
  Basis Set: CC-PVTZ
  Basis Set:
  Basis Set: CC-PVTZ
  Basis Set:
  @DF-RHF Final Energy:  -321.86140457950989
    Total Energy =                       -321.8614045795098946
  Basis Set: CC-PVTZ
  Basis Set:
  Charge       = 0
  Multiplicity = 1
  Basis Set: CC-PVTZ
  Basis Set:

    Orbital Energies (a.u.)
    -----------------------

    Doubly Occupied:

       1A    -20.592163     2A    -20.589003     3A    -15.837159
       4A    -11.297478     5A    -11.253143     6A    -11.236859
       7A     -1.636207     8A     -1.420478     9A     -1.133834
      10A     -1.027758    11A     -0.884192    12A     -0.833474
      13A     -0.762134    14A     -0.739828    15A     -0.728190
      16A     -0.671752    17A     -0.604390    18A     -0.587138
      19A     -0.551394    20A     -0.521290    21A     -0.513267
      22A     -0.487381    23A     -0.474901    24A     -0.453334

  @DF-RHF Final Energy:  -321.86140525846838

   => Energetics <=

    Nuclear Repulsion Energy =            247.9203006762978987
    One-Electron Energy =                -929.8899229639338273
    Two-Electron Energy =                 360.1082170291674629
    DFT Exchange-Correlation Energy =       0.0000000000000000
    Empirical Dispersion Energy =           0.0000000000000000
    PCM Polarization Energy =               0.0000000000000000
    EFP Energy =                            0.0000000000000000
    Total Energy =                       -321.8614052584684941
    Molecular point group: c1
  Basis Set: CC-PVTZ
  Basis Set:

  -Total Gradient:
     Atom            X                  Y                   Z
    ------   -----------------  -----------------  -----------------
       1        0.000002620928    -0.000000647507    -0.000002369044
       2       -0.000012427032     0.000000689584     0.000001010866
       3        0.000008912963     0.000254183716     0.000057066970
       4       -0.000004387176     0.000004516112     0.000000033388
       5        0.000003688063     0.000000302517     0.000000333602
       6       -0.000062906055    -0.000355993114     0.000052082894
       7       -0.000003691746     0.000001140259     0.000005302485
       8        0.000000868814     0.000005742584    -0.000000392853
       9        0.000198574623     0.000172227876    -0.000450990107
      10        0.000004766716    -0.000007659510     0.000003317431
      11        0.000002211294     0.000001382432    -0.000008458951
      12       -0.000148295741    -0.000012490950     0.000330586702
      13        0.000010064348    -0.000063393999     0.000012476615

  **** Optimization is complete! (in 6 steps) ****
    Final optimized geometry and variables:
    Molecular point group: c1

    Geometry (in Angstrom), charge = 0, multiplicity = 1:

    H            3.468697917178     0.136941167224    -0.760255504431
    C            2.754403145014    -0.051755039973     0.030594491398
    C            1.330518922269     0.110551460875    -0.490336328120
    H            2.928348787466    -1.055277281112     0.402101326968
    H            2.960271851618     0.644269189128     0.836099773098
    C            0.313005482698    -0.154253595913     0.610900735398
    H            1.154107753218    -0.580162508547    -1.307151813866
    H            1.182118280537     1.110917987020    -0.873310303142
    N           -1.070888373432    -0.007171145758     0.082574871018
    H            0.379598469476    -1.156378053102     0.997775559374
    H            0.398539985231     0.568038984711     1.408039398288
    O           -1.723672158990    -0.989528943160    -0.027660260622
    O           -1.424120562497     1.088319709667    -0.202351006741

  Mulliken Charges: (a.u.)
   Center  Symbol    Alpha    Beta     Spin     Total
       1     H     0.44163  0.44163  0.00000  0.11675
       2     C     3.15117  3.15117  0.00000 -0.30233
       3     C     3.09626  3.09626  0.00000 -0.19253
       4     H     0.45177  0.45177  0.00000  0.09647
       5     H     0.45181  0.45181  0.00000  0.09637
       6     C     3.03958  3.03958  0.00000 -0.07917
       7     H     0.44160  0.44160  0.00000  0.11680
       8     H     0.43464  0.43464  0.00000  0.13072
       9     N     3.27660  3.27660  0.00000  0.44680
      10     H     0.43330  0.43330  0.00000  0.13340
      11     H     0.43630  0.43630  0.00000  0.12739
      12     O     4.17012  4.17012  0.00000 -0.34024
      13     O     4.17522  4.17522  0.00000 -0.35043

   Total alpha = 24.00000, Total beta = 24.00000, Total charge =  0.00000
