  ==> Input File <==

--------------------------------------------------------------------------
set {
	reference rhf
	basis cc-pvtz
}

set_num_threads( 4 )
memory 2 gb

molecule MOL {
0 1

H	 3.273419	 0.176595	 -0.102789
N	 2.433987	 -0.362316	 -0.080024
C	 1.263552	 0.494993	 0.021953
H	 2.497638	 -0.973615	 0.707122
C	 -0.016533	 -0.325589	 -0.026925
H	 1.280915	 1.180773	 -0.818522
H	 1.263064	 1.106893	 0.925038
C	 -1.280353	 0.525521	 0.047747
H	 -0.016686	 -0.912532	 -0.939714
H	 -0.014099	 -1.037598	 0.796369
C	 -1.064640	 1.852038	 0.768727
H	 -2.061130	 -0.035181	 0.554665
H	 -1.647828	 0.718597	 -0.956523
H	 -0.728833	 1.692706	 1.787833
H	 -1.980073	 2.431125	 0.808606
H	 -0.314678	 2.453281	 0.265493

	symmetry c1
}
set optking {
	frozen_dihedral = ("
		12 8 5 9
	")
}

ee = optimize('scf')
oeprop('DIPOLE', 'QUADRUPOLE', 'MULLIKEN_CHARGES')
f=open( 'psi4out.xyz', 'w' )
f.write( "16  " )
f.write( str(ee) + "\n" )
f.write( MOL.save_string_xyz() )
f.close()
--------------------------------------------------------------------------

    Molecular point group: c1
  Charge       = 0
  Multiplicity = 1
  Basis Set: CC-PVTZ
  Basis Set:
  @DF-RHF Final Energy:  -212.39059621516537
    Total Energy =                       -212.3905962151654876
    Molecular point group: c1
  Basis Set: CC-PVTZ
  Basis Set:
  Basis Set: CC-PVTZ
  Basis Set:
  @DF-RHF Final Energy:  -212.39153287216527
    Total Energy =                       -212.3915328721650440
  Basis Set: CC-PVTZ
  Basis Set:
  Basis Set: CC-PVTZ
  Basis Set:
  @DF-RHF Final Energy:  -212.39342082853528
    Total Energy =                       -212.3934208285352270
  Basis Set: CC-PVTZ
  Basis Set:
  Basis Set: CC-PVTZ
  Basis Set:
  @DF-RHF Final Energy:  -212.39361460000143
    Total Energy =                       -212.3936146000015697
  Basis Set: CC-PVTZ
  Basis Set:
  Basis Set: CC-PVTZ
  Basis Set:
  @DF-RHF Final Energy:  -212.39363353477751
    Total Energy =                       -212.3936335347775071
  Basis Set: CC-PVTZ
  Basis Set:
  Basis Set: CC-PVTZ
  Basis Set:
  @DF-RHF Final Energy:  -212.39363554177075
    Total Energy =                       -212.3936355417706636
  Basis Set: CC-PVTZ
  Basis Set:
  Charge       = 0
  Multiplicity = 1
  Basis Set: CC-PVTZ
  Basis Set:

    Orbital Energies (a.u.)
    -----------------------

    Doubly Occupied:

       1A    -15.525965     2A    -11.237061     3A    -11.213784
       4A    -11.208502     5A    -11.206454     6A     -1.177833
       7A     -1.057159     8A     -0.954864     9A     -0.862885
      10A     -0.775007    11A     -0.657141    12A     -0.642021
      13A     -0.621521    14A     -0.572364    15A     -0.550581
      16A     -0.535251    17A     -0.511928    18A     -0.467024
      19A     -0.462322    20A     -0.454539    21A     -0.383302

  @DF-RHF Final Energy:  -212.39363565858784

   => Energetics <=

    Nuclear Repulsion Energy =            189.4317784802000517
    One-Electron Energy =                -661.4958102809322327
    Two-Electron Energy =                 259.6703961421443410
    DFT Exchange-Correlation Energy =       0.0000000000000000
    Empirical Dispersion Energy =           0.0000000000000000
    PCM Polarization Energy =               0.0000000000000000
    EFP Energy =                            0.0000000000000000
    Total Energy =                       -212.3936356585878684
    Molecular point group: c1
  Basis Set: CC-PVTZ
  Basis Set:

  -Total Gradient:
     Atom            X                  Y                   Z
    ------   -----------------  -----------------  -----------------
       1       -0.000002452096     0.000002568754     0.000000893406
       2       -0.000003082462    -0.000003567847     0.000010793780
       3        0.000003835668     0.000009627939    -0.000038237195
       4        0.000004280681    -0.000000738538     0.000001027500
       5       -0.003289643617    -0.004994179629     0.004774014446
       6        0.000009161609    -0.000000408732    -0.000000252344
       7       -0.000007556295    -0.000002290913     0.000005531146
       8       -0.001311352282    -0.001890279237    -0.007177961763
       9        0.002963828970     0.004490335238    -0.002912487860
      10       -0.000007266286    -0.000006244414     0.000000424393
      11        0.000008112580     0.000004304484    -0.000004355146
      12        0.001630617801     0.002397449041     0.005335369309
      13        0.000006599853    -0.000001915592    -0.000004453799
      14        0.000010353299    -0.000002823703     0.000003294930
      15       -0.000001935530    -0.000004630322     0.000004576530
      16       -0.000013501895     0.000002793472     0.000001822668

  **** Optimization is complete! (in 7 steps) ****
    Final optimized geometry and variables:
    Molecular point group: c1

    Geometry (in Angstrom), charge = 0, multiplicity = 1:

    H            3.004543117630    -0.378300251008    -0.330538599738
    N            2.139128415683    -0.874598675238    -0.305214067565
    C            1.018820744224     0.038359926745    -0.130369508453
    H            2.193493867738    -1.519710073706     0.455504755489
    C           -0.293109030469    -0.741112894681    -0.126931877868
    H            1.025710245149     0.731158211620    -0.965682239884
    H            1.105043351308     0.635465688184     0.774881043143
    C           -1.575689871660     0.112304787568    -0.117870628492
    H           -0.274246711246    -1.340682729370    -1.029354002181
    H           -0.292091775452    -1.419869129985     0.721220072835
    C           -1.485542342132     1.449257137049     0.621647140879
    H           -2.356728782594    -0.456150189078     0.375850188768
    H           -1.899946802574     0.295459633956    -1.136051624906
    H           -1.186388382764     1.311951766784     1.655529060587
    H           -2.453078848264     1.938273282237     0.624512942183
    H           -0.779466274173     2.128693009126     0.160142464399

  Mulliken Charges: (a.u.)
   Center  Symbol    Alpha    Beta     Spin     Total
       1     H     0.43008  0.43008  0.00000  0.13984
       2     N     3.69161  3.69161  0.00000 -0.38322
       3     C     3.02672  3.02672  0.00000 -0.05343
       4     H     0.43098  0.43098  0.00000  0.13805
       5     C     3.09131  3.09131  0.00000 -0.18262
       6     H     0.45591  0.45591  0.00000  0.08818
       7     H     0.46502  0.46502  0.00000  0.06996
       8     C     3.09124  3.09124  0.00000 -0.18247
       9     H     0.44606  0.44606  0.00000  0.10788
      10     H     0.45762  0.45762  0.00000  0.08477
      11     C     3.15907  3.15907  0.00000 -0.31814
      12     H     0.45147  0.45147  0.00000  0.09705
      13     H     0.45049  0.45049  0.00000  0.09901
      14     H     0.45427  0.45427  0.00000  0.09147
      15     H     0.44508  0.44508  0.00000  0.10984
      16     H     0.45308  0.45308  0.00000  0.09384

   Total alpha = 21.00000, Total beta = 21.00000, Total charge = -0.00000
