  ==> Input File <==

--------------------------------------------------------------------------
set {
	reference rhf
	basis cc-pvtz
}

set_num_threads( 4 )
memory 2 gb

molecule MOL {
0 1

H	 -1.835082	 1.385983	 0.000069
C	 -1.300516	 0.441153	 -0.000028
O	 -0.006604	 0.654344	 -0.000106
O	 -1.828920	 -0.612308	 0.000113
C	 0.489915	 1.715339	 -0.811021
C	 1.990182	 1.760076	 -0.643991
H	 0.025819	 2.640070	 -0.498859
H	 0.207966	 1.531383	 -1.837972
H	 2.257809	 1.940998	 0.389263
H	 2.400451	 2.559166	 -1.249786
H	 2.440873	 0.826722	 -0.956558

	symmetry c1
}
set optking {
	frozen_dihedral = ("
		5 3 2 4
	")
}

ee = optimize('scf')
oeprop('DIPOLE', 'QUADRUPOLE', 'MULLIKEN_CHARGES')
f=open( 'psi4out.xyz', 'w' )
f.write( "11  " )
f.write( str(ee) + "\n" )
f.write( MOL.save_string_xyz() )
f.close()
--------------------------------------------------------------------------

    Molecular point group: c1
  Charge       = 0
  Multiplicity = 1
  Basis Set: CC-PVTZ
  Basis Set:
  @DF-RHF Final Energy:  -266.91847646278654
    Total Energy =                       -266.9184764627865434
    Molecular point group: c1
  Basis Set: CC-PVTZ
  Basis Set:
  Basis Set: CC-PVTZ
  Basis Set:
  @DF-RHF Final Energy:  -266.91936099968262
    Total Energy =                       -266.9193609996825103
  Basis Set: CC-PVTZ
  Basis Set:
  Basis Set: CC-PVTZ
  Basis Set:
  @DF-RHF Final Energy:  -266.91789164262633
    Total Energy =                       -266.9178916426263868
  Basis Set: CC-PVTZ
  Basis Set:
  Basis Set: CC-PVTZ
  Basis Set:
  @DF-RHF Final Energy:  -266.91976957730515
    Total Energy =                       -266.9197695773049759
  Basis Set: CC-PVTZ
  Basis Set:
  Basis Set: CC-PVTZ
  Basis Set:
  @DF-RHF Final Energy:  -266.91978529851758
    Total Energy =                       -266.9197852985176951
  Basis Set: CC-PVTZ
  Basis Set:
  Basis Set: CC-PVTZ
  Basis Set:
  @DF-RHF Final Energy:  -266.91979000951699
    Total Energy =                       -266.9197900095169302
  Basis Set: CC-PVTZ
  Basis Set:
  Charge       = 0
  Multiplicity = 1
  Basis Set: CC-PVTZ
  Basis Set:

    Orbital Energies (a.u.)
    -----------------------

    Doubly Occupied:

       1A    -20.599303     2A    -20.550362     3A    -11.372585
       4A    -11.304004     5A    -11.231011     6A     -1.474570
       7A     -1.384648     8A     -1.054658     9A     -0.889287
      10A     -0.844534    11A     -0.742927    12A     -0.694438
      13A     -0.664630    14A     -0.623317    15A     -0.570601
      16A     -0.554194    17A     -0.538812    18A     -0.515116
      19A     -0.464987    20A     -0.454613

  @DF-RHF Final Energy:  -266.91979043339973

   => Energetics <=

    Nuclear Repulsion Energy =            176.7404250547867832
    One-Electron Energy =                -714.2632373785310165
    Two-Electron Energy =                 270.6030218903445643
    DFT Exchange-Correlation Energy =       0.0000000000000000
    Empirical Dispersion Energy =           0.0000000000000000
    PCM Polarization Energy =               0.0000000000000000
    EFP Energy =                            0.0000000000000000
    Total Energy =                       -266.9197904333996689
    Molecular point group: c1
  Basis Set: CC-PVTZ
  Basis Set:

  -Total Gradient:
     Atom            X                  Y                   Z
    ------   -----------------  -----------------  -----------------
       1       -0.000008464371    -0.000014886249    -0.000003946233
       2        0.000899585866    -0.002231448012     0.006516059158
       3       -0.000001441562     0.003938736758     0.002737260209
       4       -0.000697102182     0.000693664260    -0.005572781135
       5       -0.000199701785    -0.002410745085    -0.003666815736
       6       -0.000005639020     0.000008787248    -0.000007884474
       7        0.000007901240     0.000010364972     0.000002107474
       8        0.000011530439     0.000006579386     0.000000881940
       9       -0.000006751825     0.000000622179    -0.000002891473
      10        0.000000267527    -0.000001512694    -0.000002590210
      11       -0.000000184330    -0.000000162765     0.000000600478

  **** Optimization is complete! (in 7 steps) ****
    Final optimized geometry and variables:
    Molecular point group: c1

    Geometry (in Angstrom), charge = 0, multiplicity = 1:

    H           -1.661354072314     0.638109898058     0.513331985478
    C           -1.165620603904    -0.320492469711     0.351308792606
    O            0.146463225402    -0.217576126713     0.205063447099
    O           -1.748075326481    -1.336014707439     0.302038835370
    C            0.638189946233     0.879498780273    -0.543620534080
    C            2.126125447763     0.991194608084    -0.309328215714
    H            0.130708672507     1.789001288300    -0.236773185161
    H            0.423561668692     0.709115068622    -1.591751021354
    H            2.335158266885     1.170046112754     0.737475113124
    H            2.529402578485     1.812914304600    -0.888964982210
    H            2.625884207987     0.079450515108    -0.608458096574

  Mulliken Charges: (a.u.)
   Center  Symbol    Alpha    Beta     Spin     Total
       1     H     0.47552  0.47552  0.00000  0.04896
       2     C     2.84238  2.84238  0.00000  0.31525
       3     O     4.13426  4.13426  0.00000 -0.26853
       4     O     4.16953  4.16953  0.00000 -0.33906
       5     C     2.97567  2.97567  0.00000  0.04866
       6     C     3.13271  3.13271  0.00000 -0.26541
       7     H     0.46376  0.46376  0.00000  0.07248
       8     H     0.45656  0.45656  0.00000  0.08689
       9     H     0.44917  0.44917  0.00000  0.10166
      10     H     0.45549  0.45549  0.00000  0.08903
      11     H     0.44496  0.44496  0.00000  0.11008

   Total alpha = 20.00000, Total beta = 20.00000, Total charge =  0.00000
