  ==> Input File <==

--------------------------------------------------------------------------
set {
	reference rhf
	basis 6-31G*
}

set_num_threads( 4 )
memory 2 gb

molecule MOL {
0 1

H	 -1.157017	 -1.665602	 1.148205
C	 -1.931119	 -1.206225	 0.536749
O	 -1.392607	 -0.295399	 -0.366433
H	 -2.428886	 -1.977120	 -0.035168
H	 -2.657457	 -0.734105	 1.197025
C	 -0.719715	 0.768384	 0.229244
C	 0.719720	 0.768376	 -0.229267
H	 -1.185038	 1.714362	 -0.050570
H	 -0.750528	 0.687237	 1.313896
O	 1.392611	 -0.295398	 0.366430
H	 0.750534	 0.687200	 -1.313918
H	 1.185043	 1.714359	 0.050526
C	 2.706965	 -0.449871	 -0.062409
H	 2.756559	 -0.644779	 -1.131878
H	 3.305899	 0.433456	 0.155466
H	 3.125548	 -1.294566	 0.467107

	symmetry c1
}
set optking {
	frozen_dihedral = ("
		2 3 6 7
	")
}

ee = optimize('scf')
oeprop('DIPOLE', 'QUADRUPOLE', 'MULLIKEN_CHARGES')
f=open( 'psi4out.xyz', 'w' )
f.write( "16  " )
f.write( str(ee) + "\n" )
f.write( MOL.save_string_xyz() )
f.close()
--------------------------------------------------------------------------

    Molecular point group: c1
  Charge       = 0
  Multiplicity = 1
  Basis Set: 6-31G*
  Basis Set:
  @DF-RHF Final Energy:  -306.97557166879540
    Total Energy =                       -306.9755716687956237
    Molecular point group: c1
  Basis Set: 6-31G*
  Basis Set:
  Basis Set: 6-31G*
  Basis Set:
  @DF-RHF Final Energy:  -306.97596495731278
    Total Energy =                       -306.9759649573128968
  Basis Set: 6-31G*
  Basis Set:
  Basis Set: 6-31G*
  Basis Set:
  @DF-RHF Final Energy:  -306.97604147163429
    Total Energy =                       -306.9760414716341757
  Basis Set: 6-31G*
  Basis Set:
  Basis Set: 6-31G*
  Basis Set:
  @DF-RHF Final Energy:  -306.97604413355953
    Total Energy =                       -306.9760441335596965
  Basis Set: 6-31G*
  Basis Set:
  Charge       = 0
  Multiplicity = 1
  Basis Set: 6-31G*
  Basis Set:

    Orbital Energies (a.u.)
    -----------------------

    Doubly Occupied:

       1A    -20.556461     2A    -20.548448     3A    -11.267706
       4A    -11.267046     5A    -11.265734     6A    -11.258888
       7A     -1.386920     8A     -1.366044     9A     -1.028977
      10A     -0.938644    11A     -0.889755    12A     -0.822708
      13A     -0.682022    14A     -0.679274    15A     -0.656314
      16A     -0.631639    17A     -0.625619    18A     -0.601419
      19A     -0.546416    20A     -0.535010    21A     -0.514553
      22A     -0.475572    23A     -0.465764    24A     -0.417841
      25A     -0.405310

  @DF-RHF Final Energy:  -306.97604427238275

   => Energetics <=

    Nuclear Repulsion Energy =            261.7282595863446204
    One-Electron Energy =                -937.7404428953295792
    Two-Electron Energy =                 369.0361390366023784
    DFT Exchange-Correlation Energy =       0.0000000000000000
    Empirical Dispersion Energy =           0.0000000000000000
    PCM Polarization Energy =               0.0000000000000000
    EFP Energy =                            0.0000000000000000
    Total Energy =                       -306.9760442723825804
    Molecular point group: c1
  Basis Set: 6-31G*
  Basis Set:

  -Total Gradient:
     Atom            X                  Y                   Z
    ------   -----------------  -----------------  -----------------
       1       -0.000002035254    -0.000004881615     0.000002329115
       2       -0.000725504798     0.000490974648     0.000003100124
       3        0.000987548626    -0.000499880436    -0.000263221539
       4        0.000003819160     0.000001696989     0.000003177362
       5       -0.000006706859    -0.000007575468     0.000009625163
       6       -0.000059312045    -0.000437967133     0.000842080845
       7       -0.000188062891     0.000426941493    -0.000597351514
       8        0.000007478681    -0.000001866956    -0.000002672278
       9        0.000002427915     0.000004451563     0.000009170486
      10       -0.000023693410     0.000024012731    -0.000012271411
      11        0.000000400034    -0.000001991469     0.000000790188
      12        0.000006376661     0.000005676867     0.000001048276
      13       -0.000000826258    -0.000000713284     0.000005498596
      14       -0.000003680419     0.000002353951     0.000001548275
      15       -0.000000713867    -0.000000163741    -0.000001883209
      16        0.000002484732    -0.000001068138    -0.000000968481

  **** Optimization is complete! (in 5 steps) ****
    Final optimized geometry and variables:
    Molecular point group: c1

    Geometry (in Angstrom), charge = 0, multiplicity = 1:

    H           -1.316199430987    -1.538135587333     1.088051145725
    C           -2.080402826813    -1.090002994474     0.460308923037
    O           -1.530917667830    -0.169979716787    -0.431996469157
    H           -2.551665161845    -1.865243215988    -0.128680992334
    H           -2.834447928806    -0.629863407131     1.095976590399
    C           -0.849339106102     0.906989553788     0.142132563393
    C            0.592927214337     0.920744954428    -0.311887571022
    H           -1.330497950504     1.831022565333    -0.167819455914
    H           -0.879778275706     0.860996475511     1.226331741833
    O            1.258320502930    -0.154947990481     0.275962285643
    H            0.629206735170     0.848344316325    -1.396831192086
    H            1.061087662292     1.862181708096    -0.020725419664
    C            2.569923271949    -0.323978295965    -0.157872545487
    H            2.613212344900    -0.513198851364    -1.228450600714
    H            3.179422363758     0.550820492833     0.063158111357
    H            2.980390857896    -1.176574669108     0.365551453801

  Mulliken Charges: (a.u.)
   Center  Symbol    Alpha    Beta     Spin     Total
       1     H     0.42020  0.42020  0.00000  0.15960
       2     C     3.08049  3.08049  0.00000 -0.16099
       3     O     4.30651  4.30651  0.00000 -0.61303
       4     H     0.41463  0.41463  0.00000  0.17075
       5     H     0.43191  0.43191  0.00000  0.13619
       6     C     2.99773  2.99773  0.00000  0.00453
       7     C     2.99244  2.99244  0.00000  0.01512
       8     H     0.42256  0.42256  0.00000  0.15488
       9     H     0.42206  0.42206  0.00000  0.15588
      10     O     4.30478  4.30478  0.00000 -0.60956
      11     H     0.42323  0.42323  0.00000  0.15354
      12     H     0.43385  0.43385  0.00000  0.13231
      13     C     3.07921  3.07921  0.00000 -0.15843
      14     H     0.42750  0.42750  0.00000  0.14499
      15     H     0.43085  0.43085  0.00000  0.13830
      16     H     0.41204  0.41204  0.00000  0.17592

   Total alpha = 25.00000, Total beta = 25.00000, Total charge =  0.00000
