                              Psi4 1.0.54 Driver

  ==> Input File <==

--------------------------------------------------------------------------
set {
	reference rhf
	basis cc-pvtz
}

set_num_threads( 4 )
memory 2 gb

molecule MOL {
0 1

H	 -0.000105	 1.988529	 0.748933
O	 -0.000098	 1.879786	 -0.188206
C	 -0.000014	 0.545691	 -0.532416
C	 -1.432687	 0.056804	 -0.751997
C	 0.794765	 -0.264340	 0.493230
H	 0.513924	 0.446732	 -1.477263
F	 -1.986973	 0.756644	 -1.711086
F	 -1.480626	 -1.205334	 -1.096121
F	 -2.163594	 0.214491	 0.330724
F	 2.027544	 0.177836	 0.533164
F	 0.834334	 -1.539099	 0.198043
F	 0.286412	 -0.138726	 1.700366

	symmetry c1
}
set optking {
	frozen_dihedral = ("
		6 3 2 1
	")
}

ee,wfn = optimize('scf', return_wfn=True)
oeprop( wfn, 'DIPOLE', 'QUADRUPOLE', 'MULLIKEN_CHARGES')
f=open( 'psi4out.xyz', 'w' )
f.write( "12  " )
f.write( str(ee) + "\n" )
f.write( MOL.save_string_xyz() )
f.close()
--------------------------------------------------------------------------

    Molecular point group: c1
  Charge       = 0
  Multiplicity = 1
  Basis Set: CC-PVTZ
  Basis Set:
  @DF-RHF Final Energy:  -786.58765737546889
    Total Energy =                       -786.5876573754692345
    Molecular point group: c1
  Basis Set: CC-PVTZ
  Basis Set:
  Basis Set: CC-PVTZ
  Basis Set:
  @DF-RHF Final Energy:  -786.58786179003278
    Total Energy =                       -786.5878617900328891
  Basis Set: CC-PVTZ
  Basis Set:
  Basis Set: CC-PVTZ
  Basis Set:
  @DF-RHF Final Energy:  -786.58792157215214
    Total Energy =                       -786.5879215721523678
  Basis Set: CC-PVTZ
  Basis Set:
  Basis Set: CC-PVTZ
  Basis Set:
  @DF-RHF Final Energy:  -786.58792870132481
    Total Energy =                       -786.5879287013243584
  Basis Set: CC-PVTZ
  Basis Set:
  Charge       = 0
  Multiplicity = 1
  Basis Set: CC-PVTZ
  Basis Set:

    Orbital Energies (a.u.)
    -----------------------

    Doubly Occupied:

       1A    -26.363750     2A    -26.362114     3A    -26.358927
       4A    -26.353178     5A    -26.353018     6A    -26.349688
       7A    -20.608762     8A    -11.525163     9A    -11.515478
      10A    -11.351751    11A     -1.775164    12A     -1.764062
      13A     -1.671309    14A     -1.667096    15A     -1.660068
      16A     -1.657921    17A     -1.438492    18A     -1.103919
      19A     -1.002557    20A     -0.945162    21A     -0.873553
      22A     -0.869322    23A     -0.861465    24A     -0.850811
      25A     -0.839524    26A     -0.818335    27A     -0.750681
      28A     -0.737687    29A     -0.728794    30A     -0.725433
      31A     -0.698513    32A     -0.695917    33A     -0.691165
      34A     -0.679815    35A     -0.675369    36A     -0.672277
      37A     -0.661254    38A     -0.658070    39A     -0.624001
      40A     -0.552658    41A     -0.509289

  @DF-RHF Final Energy:  -786.58792945174844

   => Energetics <=

    Nuclear Repulsion Energy =            670.9299604788458282
    One-Electron Energy =               -2429.0327627901406231
    Two-Electron Energy =                 971.5148728595461307
    DFT Exchange-Correlation Energy =       0.0000000000000000
    Empirical Dispersion Energy =           0.0000000000000000
    PCM Polarization Energy =               0.0000000000000000
    EFP Energy =                            0.0000000000000000
    Total Energy =                       -786.5879294517487779
    Molecular point group: c1
  Basis Set: CC-PVTZ
  Basis Set:

  -Total Gradient:
     Atom            X                  Y                   Z
    ------   -----------------  -----------------  -----------------
       1        0.003208952472    -0.000073976737    -0.000105229412
       2       -0.003392055638     0.000010221535     0.000483900531
       3       -0.002239942865     0.000545297135    -0.001614407594
       4       -0.000007076224    -0.000025948999    -0.000061220756
       5       -0.000014817360     0.000092175152     0.000052587838
       6        0.002395753693    -0.000456221922     0.001260078417
       7       -0.000045228915     0.000011799384    -0.000031397750
       8        0.000004815367     0.000015629535     0.000037251870
       9        0.000036765033    -0.000012483643     0.000017511780
      10        0.000075710655    -0.000024583067    -0.000003197884
      11        0.000008200170    -0.000052654723     0.000001536392
      12       -0.000031076391    -0.000029253651    -0.000037413432

  **** Optimization is complete! (in 5 steps) ****
    Final optimized geometry and variables:
    Molecular point group: c1

    Geometry (in Angstrom), charge = 0, multiplicity = 1:

    H            0.401836361915     1.954494626402     0.850294070414
    O            0.365688810597     1.853795778210    -0.085891762344
    C            0.316553839144     0.525296816708    -0.454707604900
    C           -1.139599233002     0.084110743929    -0.607320711167
    C            1.133844663637    -0.332265489896     0.512381739865
    H            0.792096262126     0.418374907580    -1.419483206226
    F           -1.748165501145     0.881953708695    -1.448625471145
    F           -1.230393900943    -1.136983902551    -1.077273769966
    F           -1.785634848263     0.131876957331     0.534824801537
    F            2.396997774160     0.015525848850     0.436868499828
    F            1.049424587031    -1.608441125439     0.245460205965
    F            0.750249050625    -0.145585171180     1.758427387442

  Mulliken Charges: (a.u.)
   Center  Symbol    Alpha    Beta     Spin     Total
       1     H     0.38154  0.38154  0.00000  0.23691
       2     O     4.19017  4.19017  0.00000 -0.38034
       3     C     3.00240  3.00240  0.00000 -0.00480
       4     C     2.68230  2.68230  0.00000  0.63540
       5     C     2.68656  2.68656  0.00000  0.62687
       6     H     0.42878  0.42878  0.00000  0.14243
       7     F     4.60159  4.60159  0.00000 -0.20319
       8     F     4.60508  4.60508  0.00000 -0.21015
       9     F     4.60798  4.60798  0.00000 -0.21596
      10     F     4.60356  4.60356  0.00000 -0.20711
      11     F     4.59913  4.59913  0.00000 -0.19826
      12     F     4.61090  4.61090  0.00000 -0.22181

   Total alpha = 41.00000, Total beta = 41.00000, Total charge =  0.00000

*** Psi4 exiting successfully. Buy a developer a beer!
