                              Psi4 1.0.54 Driver

  ==> Input File <==

--------------------------------------------------------------------------
set {
	reference rhf
	basis cc-pvtz
}

set_num_threads( 4 )
memory 2 gb

molecule MOL {
0 1

H	 -0.184942	 -0.830233	 0.869321
N	 -0.625934	 -0.663929	 -0.000707
C	 -1.978635	 -0.158664	 0.001017
C	 0.074664	 -0.921481	 -1.127389
H	 -2.519057	 -0.493535	 -0.876362
H	 -1.938890	 0.917202	 -0.004137
H	 -2.514266	 -0.485137	 0.884506
C	 1.476054	 -1.441072	 -0.892970
O	 -0.364190	 -0.750659	 -2.226163
H	 1.446555	 -2.370763	 -0.336731
H	 1.951187	 -1.607685	 -1.845627
H	 2.054931	 -0.725364	 -0.320884

	symmetry c1
}
set optking {
	frozen_dihedral = ("
		4 2 3 5
	")
}

ee,wfn = optimize('scf', return_wfn=True)
oeprop( wfn, 'DIPOLE', 'QUADRUPOLE', 'MULLIKEN_CHARGES')
f=open( 'psi4out.xyz', 'w' )
f.write( "12  " )
f.write( str(ee) + "\n" )
f.write( MOL.save_string_xyz() )
f.close()
--------------------------------------------------------------------------

    Molecular point group: c1
  Charge       = 0
  Multiplicity = 1
  Basis Set: CC-PVTZ
  Basis Set:
  @DF-RHF Final Energy:  -247.10033470709868
    Total Energy =                       -247.1003347070984546
    Molecular point group: c1
  Basis Set: CC-PVTZ
  Basis Set:
  Basis Set: CC-PVTZ
  Basis Set:
  @DF-RHF Final Energy:  -247.10096182354448
    Total Energy =                       -247.1009618235444805
  Basis Set: CC-PVTZ
  Basis Set:
  Basis Set: CC-PVTZ
  Basis Set:
  @DF-RHF Final Energy:  -247.10099165652207
    Total Energy =                       -247.1009916565220124
  Basis Set: CC-PVTZ
  Basis Set:
  Basis Set: CC-PVTZ
  Basis Set:
  @DF-RHF Final Energy:  -247.10111195574254
    Total Energy =                       -247.1011119557423399
  Basis Set: CC-PVTZ
  Basis Set:
  Basis Set: CC-PVTZ
  Basis Set:
  @DF-RHF Final Energy:  -247.10112888473503
    Total Energy =                       -247.1011288847350897
  Basis Set: CC-PVTZ
  Basis Set:
  Basis Set: CC-PVTZ
  Basis Set:
  @DF-RHF Final Energy:  -247.10114564090711
    Total Energy =                       -247.1011456409070206
  Basis Set: CC-PVTZ
  Basis Set:
  Basis Set: CC-PVTZ
  Basis Set:
  @DF-RHF Final Energy:  -247.10114983895542
    Total Energy =                       -247.1011498389553935
  Basis Set: CC-PVTZ
  Basis Set:
  Charge       = 0
  Multiplicity = 1
  Basis Set: CC-PVTZ
  Basis Set:

    Orbital Energies (a.u.)
    -----------------------

    Doubly Occupied:

       1A    -20.507083     2A    -15.574629     3A    -11.336146
       4A    -11.253087     5A    -11.228088     6A     -1.388768
       7A     -1.230783     8A     -1.016581     9A     -0.932879
      10A     -0.788455    11A     -0.690766    12A     -0.651416
      13A     -0.635697    14A     -0.585857    15A     -0.582961
      16A     -0.556479    17A     -0.546108    18A     -0.509598
      19A     -0.417675    20A     -0.389793

  @DF-RHF Final Energy:  -247.10115046032320

   => Energetics <=

    Nuclear Repulsion Energy =            181.7313400669942212
    One-Electron Energy =                -696.0192860609072341
    Two-Electron Energy =                 267.1867955335898159
    DFT Exchange-Correlation Energy =       0.0000000000000000
    Empirical Dispersion Energy =           0.0000000000000000
    PCM Polarization Energy =               0.0000000000000000
    EFP Energy =                            0.0000000000000000
    Total Energy =                       -247.1011504603231970
    Molecular point group: c1
  Basis Set: CC-PVTZ
  Basis Set:

  -Total Gradient:
     Atom            X                  Y                   Z
    ------   -----------------  -----------------  -----------------
       1       -0.000023082405    -0.000058657225     0.000012424585
       2        0.000229584849     0.000534157501    -0.000054946321
       3       -0.000187079255    -0.000442162637     0.000175529851
       4       -0.000102212181    -0.000253381790     0.000035490724
       5        0.000089846662     0.000233744320    -0.000136633464
       6       -0.000000948699     0.000000066308    -0.000014772615
       7        0.000012431358     0.000007181479     0.000007274266
       8        0.000000952340     0.000022748989    -0.000004572586
       9       -0.000014561345    -0.000028034988    -0.000024873066
      10       -0.000004542510    -0.000015677744    -0.000012968631
      11        0.000001040896     0.000012812771    -0.000001095142
      12       -0.000001429710    -0.000012796983     0.000019142396

  **** Optimization is complete! (in 8 steps) ****
    Final optimized geometry and variables:
    Molecular point group: c1

    Geometry (in Angstrom), charge = 0, multiplicity = 1:

    H            0.144320041111     0.037050465350     1.714541664978
    N           -0.328306451177     0.107600071669     0.848275711892
    C           -1.680361685942     0.615355846411     0.840269588417
    C            0.368604912953    -0.136711340468    -0.283355535068
    H           -2.180011573483     0.272639848636    -0.050858238012
    H           -1.707973466611     1.699518945325     0.850835520137
    H           -2.209849891145     0.245267352672     1.707858731289
    C            1.787641555224    -0.613715840664    -0.065762070120
    O           -0.097854362955     0.002884249716    -1.375040402032
    H            1.795825257878    -1.524893876376     0.520702225248
    H            2.245853932824    -0.797502532824    -1.023658840215
    H            2.360181703442     0.135382819102     0.469165571963

  Mulliken Charges: (a.u.)
   Center  Symbol    Alpha    Beta     Spin     Total
       1     H     0.41122  0.41122  0.00000  0.17757
       2     N     3.61996  3.61996  0.00000 -0.23992
       3     C     3.08184  3.08184  0.00000 -0.16368
       4     C     2.83724  2.83724  0.00000  0.32552
       5     H     0.43554  0.43554  0.00000  0.12892
       6     H     0.45698  0.45698  0.00000  0.08604
       7     H     0.45494  0.45494  0.00000  0.09012
       8     C     3.15385  3.15385  0.00000 -0.30771
       9     O     4.21505  4.21505  0.00000 -0.43010
      10     H     0.44931  0.44931  0.00000  0.10139
      11     H     0.43358  0.43358  0.00000  0.13284
      12     H     0.45050  0.45050  0.00000  0.09900

   Total alpha = 20.00000, Total beta = 20.00000, Total charge = -0.00000

*** Psi4 exiting successfully. Buy a developer a beer!
