                              Psi4 1.0.54 Driver

  ==> Input File <==

--------------------------------------------------------------------------
set {
	reference rhf
	basis cc-pvtz
}

set_num_threads( 4 )
memory 2 gb

molecule MOL {
0 1

H	 -2.816458	 -0.841657	 -0.064679
N	 -1.878861	 -0.711874	 0.250184
C	 -1.341419	 0.551458	 -0.220231
H	 -1.333674	 -1.468530	 -0.105118
C	 0.082190	 0.731516	 0.254705
H	 -1.357065	 0.652078	 -1.304747
H	 -1.939897	 1.357530	 0.189797
O	 0.833839	 -0.373729	 -0.146746
H	 0.500964	 1.642836	 -0.169909
H	 0.097202	 0.822141	 1.338444
C	 2.152506	 -0.362816	 0.289394
H	 2.632552	 -1.257129	 -0.080937
H	 2.689563	 0.504157	 -0.089582
H	 2.212404	 -0.356747	 1.375184

	symmetry c1
}
set optking {
	frozen_dihedral = ("
		8 5 3 6
	")
}

ee,wfn = optimize('scf', return_wfn=True)
oeprop( wfn, 'DIPOLE', 'QUADRUPOLE', 'MULLIKEN_CHARGES')
f=open( 'psi4out.xyz', 'w' )
f.write( "14  " )
f.write( str(ee) + "\n" )
f.write( MOL.save_string_xyz() )
f.close()
--------------------------------------------------------------------------

    Molecular point group: c1
  Charge       = 0
  Multiplicity = 1
  Basis Set: CC-PVTZ
  Basis Set:
  @DF-RHF Final Energy:  -248.22548721355523
    Total Energy =                       -248.2254872135550841
    Molecular point group: c1
  Basis Set: CC-PVTZ
  Basis Set:
  Basis Set: CC-PVTZ
  Basis Set:
  @DF-RHF Final Energy:  -248.22560259376755
    Total Energy =                       -248.2256025937673485
  Basis Set: CC-PVTZ
  Basis Set:
  Basis Set: CC-PVTZ
  Basis Set:
  @DF-RHF Final Energy:  -248.22562836018733
    Total Energy =                       -248.2256283601871587
  Basis Set: CC-PVTZ
  Basis Set:
  Charge       = 0
  Multiplicity = 1
  Basis Set: CC-PVTZ
  Basis Set:

    Orbital Energies (a.u.)
    -----------------------

    Doubly Occupied:

       1A    -20.550780     2A    -15.522781     3A    -11.264522
       4A    -11.263743     5A    -11.240076     6A     -1.384966
       7A     -1.175672     8A     -1.000327     9A     -0.908704
      10A     -0.814837    11A     -0.685701    12A     -0.676826
      13A     -0.647447    14A     -0.610872    15A     -0.608862
      16A     -0.542942    17A     -0.529844    18A     -0.496882
      19A     -0.474802    20A     -0.420428    21A     -0.382511

  @DF-RHF Final Energy:  -248.22562907241843

   => Energetics <=

    Nuclear Repulsion Energy =            195.0065281695607382
    One-Electron Energy =                -724.0572695623927757
    Two-Electron Energy =                 280.8251123204138366
    DFT Exchange-Correlation Energy =       0.0000000000000000
    Empirical Dispersion Energy =           0.0000000000000000
    PCM Polarization Energy =               0.0000000000000000
    EFP Energy =                            0.0000000000000000
    Total Energy =                       -248.2256290724182008
    Molecular point group: c1
  Basis Set: CC-PVTZ
  Basis Set:

  -Total Gradient:
     Atom            X                  Y                   Z
    ------   -----------------  -----------------  -----------------
       1       -0.000026286224    -0.000011815716    -0.000006894460
       2       -0.000030987469    -0.000015569983     0.000018176925
       3        0.000566206704    -0.004419664852     0.000221558605
       4       -0.000005652175     0.000051454385    -0.000011317246
       5        0.000625435388     0.002381376270    -0.002796933693
       6       -0.000558200266     0.003253250791     0.000365000026
       7       -0.000029448520    -0.000012467100    -0.000000946459
       8       -0.000599610646    -0.001188877141     0.002215345703
       9        0.000034678566    -0.000031026794    -0.000000336178
      10        0.000008948878    -0.000007842778    -0.000007540961
      11        0.000001597916     0.000006731320    -0.000000584586
      12        0.000004800279     0.000001167367     0.000001591064
      13        0.000004245779    -0.000006491763     0.000002576491
      14        0.000004271789    -0.000000224007     0.000000304768

  **** Optimization is complete! (in 4 steps) ****
    Final optimized geometry and variables:
    Molecular point group: c1

    Geometry (in Angstrom), charge = 0, multiplicity = 1:

    H           -2.809309634635    -0.781201730464    -0.148739368178
    N           -1.875242820497    -0.653654688465     0.176594233118
    C           -1.320646546603     0.594046336655    -0.306743337388
    H           -1.329130346365    -1.422214967874    -0.148716496012
    C            0.102674304748     0.772787306301     0.175014887248
    H           -1.342506579827     0.706308873595    -1.390692687534
    H           -1.907567258417     1.412863936573     0.097081160329
    O            0.864273395399    -0.321896890002    -0.234166317150
    H            0.516282343579     1.695795129633    -0.228014566615
    H            0.112808334725     0.841551991860     1.260842892109
    C            2.181838671211    -0.303307709678     0.204605093966
    H            2.668776076646    -1.193077997309    -0.167587932077
    H            2.714125961532     0.568531454977    -0.169774437541
    H            2.238563267891    -0.300933343958     1.290598975613

  Mulliken Charges: (a.u.)
   Center  Symbol    Alpha    Beta     Spin     Total
       1     H     0.43032  0.43032  0.00000  0.13937
       2     N     3.69333  3.69333  0.00000 -0.38666
       3     C     3.02185  3.02185  0.00000 -0.04370
       4     H     0.42131  0.42131  0.00000  0.15738
       5     C     2.96614  2.96614  0.00000  0.06773
       6     H     0.46670  0.46670  0.00000  0.06660
       7     H     0.45990  0.45990  0.00000  0.08020
       8     O     4.18029  4.18029  0.00000 -0.36058
       9     H     0.47017  0.47017  0.00000  0.05966
      10     H     0.47032  0.47032  0.00000  0.05936
      11     C     3.03108  3.03108  0.00000 -0.06216
      12     H     0.44756  0.44756  0.00000  0.10489
      13     H     0.47110  0.47110  0.00000  0.05781
      14     H     0.46995  0.46995  0.00000  0.06011

   Total alpha = 21.00000, Total beta = 21.00000, Total charge = -0.00000

*** Psi4 exiting successfully. Buy a developer a beer!
