  ==> Input File <==

--------------------------------------------------------------------------
set {
	reference rhf
	basis 6-31G*
}

set_num_threads( 4 )
memory 2 gb

molecule MOL {
0 1

O	 3.225979	 0.970355	 -0.599647
C	 2.701189	 0.057885	 -0.047330
C	 1.245376	 -0.013843	 0.345420
O	 3.347903	 -1.046386	 0.304773
C	 0.455112	 1.231400	 -0.050772
H	 0.838542	 -0.913825	 -0.103701
H	 1.208210	 -0.175333	 1.419774
C	 -0.998893	 1.219485	 0.433193
H	 0.482531	 1.345121	 -1.130325
H	 0.957290	 2.103070	 0.354729
C	 -1.883438	 0.145884	 -0.207175
H	 -1.431207	 2.195402	 0.224832
H	 -1.019646	 1.105716	 1.516076
C	 -3.347647	 0.245583	 0.225435
H	 -1.822183	 0.231698	 -1.291012
H	 -1.510341	 -0.844814	 0.042401
C	 -3.715062	 -0.725047	 1.349274
H	 -3.990047	 0.059210	 -0.633531
H	 -3.559331	 1.263878	 0.547869
C	 -5.179877	 -0.621799	 1.772781
H	 -3.503211	 -1.743016	 1.029117
H	 -3.076936	 -0.537414	 2.210303
H	 -5.409438	 -1.321617	 2.570380
H	 -5.844561	 -0.838536	 0.941267
H	 -5.415046	 0.376542	 2.130950
C	 4.728119	 -1.109107	 -0.004993
H	 4.882018	 -1.033965	 -1.071845
H	 5.068212	 -2.067527	 0.355250
H	 5.265056	 -0.311663	 0.488280

	symmetry c1
}
set optking {
	frozen_dihedral = ("
		17 14 11 15
	")
}

ee = optimize('scf')
oeprop('DIPOLE', 'QUADRUPOLE', 'MULLIKEN_CHARGES')
f=open( 'psi4out.xyz', 'w' )
f.write( "29  " )
f.write( str(ee) + "\n" )
f.write( MOL.save_string_xyz() )
f.close()
--------------------------------------------------------------------------

    Molecular point group: c1
  Charge       = 0
  Multiplicity = 1
  Basis Set: 6-31G*
  Basis Set:
  @DF-RHF Final Energy:  -501.03975603149433
    Total Energy =                       -501.0397560314945622
    Molecular point group: c1
  Basis Set: 6-31G*
  Basis Set:
  Basis Set: 6-31G*
  Basis Set:
  @DF-RHF Final Energy:  -501.03999179090545
    Total Energy =                       -501.0399917909057876
  Basis Set: 6-31G*
  Basis Set:
  Basis Set: 6-31G*
  Basis Set:
  @DF-RHF Final Energy:  -501.04010282800436
    Total Energy =                       -501.0401028280045921
  Basis Set: 6-31G*
  Basis Set:
  Basis Set: 6-31G*
  Basis Set:
  @DF-RHF Final Energy:  -501.04010722640669
    Total Energy =                       -501.0401072264069171
  Basis Set: 6-31G*
  Basis Set:
  Basis Set: 6-31G*
  Basis Set:
  @DF-RHF Final Energy:  -501.04010002218388
    Total Energy =                       -501.0401000221839922
  Basis Set: 6-31G*
  Basis Set:
  Basis Set: 6-31G*
  Basis Set:
  @DF-RHF Final Energy:  -501.04011429619879
    Total Energy =                       -501.0401142961986807
  Basis Set: 6-31G*
  Basis Set:
  Charge       = 0
  Multiplicity = 1
  Basis Set: 6-31G*
  Basis Set:

    Orbital Energies (a.u.)
    -----------------------

    Doubly Occupied:

       1A    -20.603397     2A    -20.545223     3A    -11.372047
       4A    -11.280681     5A    -11.234813     6A    -11.219094
       7A    -11.217985     8A    -11.216488     9A    -11.215699
      10A    -11.214308    11A    -11.209220    12A     -1.469097
      13A     -1.362542    14A     -1.097450    15A     -1.066067
      16A     -1.018721    17A     -0.976696    18A     -0.928565
      19A     -0.861889    20A     -0.807243    21A     -0.785636
      22A     -0.763765    23A     -0.700590    24A     -0.682302
      25A     -0.671958    26A     -0.634621    27A     -0.632537
      28A     -0.613521    29A     -0.595571    30A     -0.580516
      31A     -0.561761    32A     -0.555725    33A     -0.540813
      34A     -0.525221    35A     -0.515207    36A     -0.510278
      37A     -0.494893    38A     -0.480258    39A     -0.474065
      40A     -0.459725    41A     -0.456333    42A     -0.448411
      43A     -0.443680    44A     -0.436167

  @DF-RHF Final Energy:  -501.04011421176540

   => Energetics <=

    Nuclear Repulsion Energy =            614.5987365959184672
    One-Electron Energy =               -1900.3161388371822795
    Two-Electron Energy =                 784.6772880294986408
    DFT Exchange-Correlation Energy =       0.0000000000000000
    Empirical Dispersion Energy =           0.0000000000000000
    PCM Polarization Energy =               0.0000000000000000
    EFP Energy =                            0.0000000000000000
    Total Energy =                       -501.0401142117650579
    Molecular point group: c1
  Basis Set: 6-31G*
  Basis Set:

  -Total Gradient:
     Atom            X                  Y                   Z
    ------   -----------------  -----------------  -----------------
       1        0.000002438298     0.000010851424     0.000021801219
       2       -0.000016952933    -0.000022994090    -0.000052550161
       3        0.000021797688     0.000017510806     0.000024673578
       4        0.000009336495     0.000005353433     0.000019820994
       5       -0.000004081173    -0.000015230793    -0.000014034247
       6        0.000017348871     0.000018631450    -0.000007149710
       7       -0.000006969675    -0.000008751853     0.000007176479
       8        0.000041427276    -0.000033341006     0.000007725401
       9       -0.000011257439    -0.000015249737     0.000009705883
      10        0.000001074830     0.000019354894    -0.000002880294
      11        0.000013368301     0.003314219348    -0.000257601442
      12        0.000028029669    -0.000005219372    -0.000008613508
      13        0.000002046773    -0.000006258145     0.000008328939
      14        0.000779085805     0.001442580147     0.002202574814
      15       -0.000212066355    -0.003188173661    -0.000389506090
      16        0.000008289255     0.000045752864     0.000018902708
      17       -0.000623535168    -0.001553347097    -0.001618638133
      18       -0.000019499662     0.000011319348     0.000018442538
      19       -0.000017400778    -0.000020052409     0.000020499783
      20       -0.000015310492    -0.000038684643    -0.000008961160
      21        0.000004168816    -0.000001313902     0.000010418963
      22        0.000002401042     0.000024496437    -0.000012797898
      23       -0.000009554133    -0.000004066201     0.000000419767
      24       -0.000006068809     0.000005168212     0.000001061272
      25        0.000012844288    -0.000003557058    -0.000000246564
      26       -0.000001215767     0.000001467416     0.000002459690
      27       -0.000000866563     0.000000052719    -0.000000419297
      28        0.000000027580    -0.000000274262    -0.000000147230
      29        0.000001093953    -0.000000244270    -0.000000466294

  **** Optimization is complete! (in 7 steps) ****
    Final optimized geometry and variables:
    Molecular point group: c1

    Geometry (in Angstrom), charge = 0, multiplicity = 1:

    O            3.134573253968     0.928693583514    -0.914557177350
    C            2.593586021403     0.031055535622    -0.353638090178
    C            1.132749553810    -0.018540875236     0.023614341321
    O            3.224215590855    -1.074011385924     0.024191794108
    C            0.360676715943     1.228255871441    -0.402820095423
    H            0.721759161832    -0.922206521080    -0.413947277103
    H            1.082041339181    -0.160598888032     1.100145965531
    C           -1.098725081533     1.242402449520     0.064257732071
    H            0.401551498856     1.323728129698    -1.483772407537
    H            0.868607755523     2.100704255545    -0.006222466982
    C           -1.998454299808     0.193628427373    -0.596132805957
    H           -1.509731918683     2.227515731083    -0.142678266980
    H           -1.134245733785     1.122593021731     1.146300481165
    C           -3.459007239362     0.241445050331    -0.106655719191
    H           -1.964555273326     0.312571464360    -1.676485341610
    H           -1.603659213523    -0.802066477675    -0.407782114133
    C           -3.768949254843    -0.770566260962     0.999784215609
    H           -4.128188466973     0.046008325459    -0.941290618583
    H           -3.699392974368     1.244569983609     0.239243749455
    C           -5.206486316088    -0.677075438793     1.509058218827
    H           -3.583471746130    -1.773923556164     0.623202632827
    H           -3.082390577965    -0.625838983931     1.831876231995
    H           -5.400220292608    -1.416106096398     2.280405323412
    H           -5.918270704154    -0.843631876589     0.705255695074
    H           -5.410060520672     0.302967361892     1.931224305161
    C            4.607172794859    -1.156511565240    -0.268241138591
    H            4.774225344061    -1.100699110494    -1.334305131046
    H            4.932656160443    -2.112387706793     0.111697157827
    H            5.146944987733    -0.356753929809     0.218143925889

  Mulliken Charges: (a.u.)
   Center  Symbol    Alpha    Beta     Spin     Total
       1     O     4.28594  4.28594  0.00000 -0.57188
       2     C     2.60485  2.60485  0.00000  0.79030
       3     C     3.20949  3.20949  0.00000 -0.41898
       4     O     4.30745  4.30745  0.00000 -0.61490
       5     C     3.15433  3.15433  0.00000 -0.30866
       6     H     0.39896  0.39896  0.00000  0.20207
       7     H     0.40122  0.40122  0.00000  0.19755
       8     C     3.15758  3.15758  0.00000 -0.31515
       9     H     0.41298  0.41298  0.00000  0.17404
      10     H     0.40868  0.40868  0.00000  0.18264
      11     C     3.15863  3.15863  0.00000 -0.31726
      12     H     0.41769  0.41769  0.00000  0.16462
      13     H     0.42364  0.42364  0.00000  0.15273
      14     C     3.15340  3.15340  0.00000 -0.30680
      15     H     0.41967  0.41967  0.00000  0.16067
      16     H     0.42250  0.42250  0.00000  0.15499
      17     C     3.15268  3.15268  0.00000 -0.30536
      18     H     0.42095  0.42095  0.00000  0.15810
      19     H     0.42180  0.42180  0.00000  0.15639
      20     C     3.23975  3.23975  0.00000 -0.47950
      21     H     0.42266  0.42266  0.00000  0.15469
      22     H     0.42369  0.42369  0.00000  0.15262
      23     H     0.41930  0.41930  0.00000  0.16140
      24     H     0.42161  0.42161  0.00000  0.15677
      25     H     0.42143  0.42143  0.00000  0.15713
      26     C     3.09241  3.09241  0.00000 -0.18481
      27     H     0.40908  0.40908  0.00000  0.18184
      28     H     0.40851  0.40851  0.00000  0.18299
      29     H     0.40912  0.40912  0.00000  0.18175

   Total alpha = 44.00000, Total beta = 44.00000, Total charge = -0.00000
