  ==> Input File <==

--------------------------------------------------------------------------
set {
	reference rhf
	basis 6-31G*
}

set_num_threads( 4 )
memory 2 gb

molecule MOL {
0 1

O	 0.074228	 1.262779	 -0.000085
C	 0.028650	 0.075053	 -0.000277
C	 -1.233602	 -0.752807	 0.000328
O	 1.109162	 -0.694619	 -0.000298
C	 -2.501530	 0.091881	 0.000126
H	 -1.193807	 -1.406641	 -0.865785
H	 -1.193516	 -1.405779	 0.867015
H	 -2.545121	 0.729328	 -0.874513
H	 -3.377167	 -0.548497	 0.000561
H	 -2.544818	 0.730135	 0.874258
C	 1.266747	 -1.581021	 1.092884
H	 1.324342	 -1.031996	 2.021684
H	 2.189688	 -2.109922	 0.913147
H	 0.440301	 -2.275374	 1.141175

	symmetry c1
}
set optking {
	frozen_dihedral = ("
		11 4 2 3
	")
}

ee = optimize('scf')
oeprop('DIPOLE', 'QUADRUPOLE', 'MULLIKEN_CHARGES')
f=open( 'psi4out.xyz', 'w' )
f.write( "14  " )
f.write( str(ee) + "\n" )
f.write( MOL.save_string_xyz() )
f.close()
--------------------------------------------------------------------------

    Molecular point group: c1
  Charge       = 0
  Multiplicity = 1
  Basis Set: 6-31G*
  Basis Set:
  @DF-RHF Final Energy:  -305.84668555384178
    Total Energy =                       -305.8466855538418940
    Molecular point group: c1
  Basis Set: 6-31G*
  Basis Set:
  Basis Set: 6-31G*
  Basis Set:
  @DF-RHF Final Energy:  -305.84901259597660
    Total Energy =                       -305.8490125959767170
  Basis Set: 6-31G*
  Basis Set:
  Basis Set: 6-31G*
  Basis Set:
  @DF-RHF Final Energy:  -305.85158227861257
    Total Energy =                       -305.8515822786126819
  Basis Set: 6-31G*
  Basis Set:
  Basis Set: 6-31G*
  Basis Set:
  @DF-RHF Final Energy:  -305.85182082521430
    Total Energy =                       -305.8518208252141903
  Basis Set: 6-31G*
  Basis Set:
  Basis Set: 6-31G*
  Basis Set:
  @DF-RHF Final Energy:  -305.85181422938695
    Total Energy =                       -305.8518142293869460
  Basis Set: 6-31G*
  Basis Set:
  Basis Set: 6-31G*
  Basis Set:
  @DF-RHF Final Energy:  -305.85196029893632
    Total Energy =                       -305.8519602989364330
  Basis Set: 6-31G*
  Basis Set:
  Basis Set: 6-31G*
  Basis Set:
  @DF-RHF Final Energy:  -305.85196378891715
    Total Energy =                       -305.8519637889170326
  Basis Set: 6-31G*
  Basis Set:
  Charge       = 0
  Multiplicity = 1
  Basis Set: 6-31G*
  Basis Set:

    Orbital Energies (a.u.)
    -----------------------

    Doubly Occupied:

       1A    -20.591435     2A    -20.553073     3A    -11.375224
       4A    -11.295603     5A    -11.245719     6A    -11.220640
       7A     -1.460383     8A     -1.368685     9A     -1.062498
      10A     -0.980657    11A     -0.896570    12A     -0.767389
      13A     -0.702102    14A     -0.679677    15A     -0.673968
      16A     -0.628502    17A     -0.611481    18A     -0.560287
      19A     -0.546565    20A     -0.524863    21A     -0.512439
      22A     -0.489946    23A     -0.456461    24A     -0.436065

  @DF-RHF Final Energy:  -305.85196467643306

   => Energetics <=

    Nuclear Repulsion Energy =            246.8622819043517325
    One-Electron Energy =                -906.1480304033882476
    Two-Electron Energy =                 353.4337838226035160
    DFT Exchange-Correlation Energy =       0.0000000000000000
    Empirical Dispersion Energy =           0.0000000000000000
    PCM Polarization Energy =               0.0000000000000000
    EFP Energy =                            0.0000000000000000
    Total Energy =                       -305.8519646764330560
    Molecular point group: c1
  Basis Set: 6-31G*
  Basis Set:

  -Total Gradient:
     Atom            X                  Y                   Z
    ------   -----------------  -----------------  -----------------
       1        0.000028236603    -0.000065531693    -0.000072218941
       2        0.000800026498     0.000912064625     0.004628760447
       3       -0.000030097353     0.000132944610    -0.002472132432
       4       -0.002081756135    -0.002877530056    -0.003472932304
       5       -0.000029710912    -0.000034142771    -0.000019693895
       6        0.000004000908    -0.000027019470    -0.000021830788
       7        0.000059411715     0.000007107987    -0.000038725465
       8        0.000007612311    -0.000012610255     0.000014844009
       9       -0.000028169493     0.000015081381     0.000003028514
      10       -0.000007315014     0.000003014000     0.000003866538
      11        0.001292035133     0.001980581109     0.001403471422
      12       -0.000007959651    -0.000022458064     0.000002411899
      13       -0.000000102820    -0.000003256404     0.000020503770
      14       -0.000006211791    -0.000008245003     0.000020647224

  **** Optimization is complete! (in 8 steps) ****
    Final optimized geometry and variables:
    Molecular point group: c1

    Geometry (in Angstrom), charge = 0, multiplicity = 1:

    O            0.251095476523     1.507387965775    -0.176533538047
    C            0.192298083377     0.328396243485    -0.130161459156
    C           -1.104390547208    -0.454456031320    -0.127391306677
    O            1.317273039969    -0.411955115656    -0.185929823113
    C           -2.334747550915     0.432272392316    -0.279508001111
    H           -1.039755858812    -1.182856309001    -0.930813979460
    H           -1.166372653978    -1.029181904407     0.792929882534
    H           -2.299388470811     0.989430832756    -1.207404660514
    H           -3.234478626027    -0.173692304473    -0.277174928868
    H           -2.400886432431     1.147306633600     0.531018771704
    C            1.585443841203    -1.345524084234     0.836295617429
    H            1.508128476405    -0.883299189129     1.813663665153
    H            2.600579397778    -1.676511041643     0.682854483033
    H            0.922987288286    -2.201607246713     0.784545240294

  Mulliken Charges: (a.u.)
   Center  Symbol    Alpha    Beta     Spin     Total
       1     O     4.25320  4.25320  0.00000 -0.50639
       2     C     2.61227  2.61227  0.00000  0.77545
       3     C     3.22011  3.22011  0.00000 -0.44023
       4     O     4.30899  4.30899  0.00000 -0.61797
       5     C     3.23692  3.23692  0.00000 -0.47384
       6     H     0.39946  0.39946  0.00000  0.20109
       7     H     0.40634  0.40634  0.00000  0.18732
       8     H     0.40792  0.40792  0.00000  0.18415
       9     H     0.41827  0.41827  0.00000  0.16346
      10     H     0.40852  0.40852  0.00000  0.18296
      11     C     3.09398  3.09398  0.00000 -0.18796
      12     H     0.41499  0.41499  0.00000  0.17001
      13     H     0.39977  0.39977  0.00000  0.20046
      14     H     0.41925  0.41925  0.00000  0.16149

   Total alpha = 24.00000, Total beta = 24.00000, Total charge = -0.00000
