  ==> Input File <==

--------------------------------------------------------------------------
set {
	reference rhf
	basis 6-31G*
}

set_num_threads( 4 )
memory 2 gb

molecule MOL {
0 1

O	 -2.821601	 1.309235	 -0.001213
C	 -2.668563	 0.129746	 -0.000350
C	 -3.801572	 -0.864014	 -0.000442
O	 -1.481751	 -0.454642	 0.000584
H	 -4.417280	 -0.689587	 -0.874708
H	 -3.443784	 -1.883046	 -0.000565
H	 -4.417179	 -0.689832	 0.873954
C	 -0.334255	 0.388708	 0.000906
C	 0.891947	 -0.504646	 0.000751
H	 -0.365390	 1.025305	 -0.873475
H	 -0.365484	 1.024911	 0.875569
C	 2.191998	 0.301789	 0.000897
H	 0.855148	 -1.151283	 -0.871571
H	 0.855132	 -1.151660	 0.872805
C	 3.441114	 -0.581407	 0.000108
H	 2.215074	 0.954890	 -0.869742
H	 2.215465	 0.953923	 0.872248
C	 3.985105	 -0.841695	 -1.403883
H	 3.210736	 -1.529891	 0.480086
H	 4.213230	 -0.112164	 0.605681
H	 3.246589	 -1.341390	 -2.024297
H	 4.869541	 -1.470165	 -1.371729
H	 4.256930	 0.086930	 -1.897621

	symmetry c1
}
set optking {
	frozen_dihedral = ("
		19 15 12 16
	")
}

ee = optimize('scf')
oeprop('DIPOLE', 'QUADRUPOLE', 'MULLIKEN_CHARGES')
f=open( 'psi4out.xyz', 'w' )
f.write( "23  " )
f.write( str(ee) + "\n" )
f.write( MOL.save_string_xyz() )
f.close()
--------------------------------------------------------------------------

    Molecular point group: c1
  Charge       = 0
  Multiplicity = 1
  Basis Set: 6-31G*
  Basis Set:
  @DF-RHF Final Energy:  -422.97558085300773
    Total Energy =                       -422.9755808530075001
    Molecular point group: c1
  Basis Set: 6-31G*
  Basis Set:
  Basis Set: 6-31G*
  Basis Set:
  @DF-RHF Final Energy:  -422.97582956937174
    Total Energy =                       -422.9758295693715127
  Basis Set: 6-31G*
  Basis Set:
  Basis Set: 6-31G*
  Basis Set:
  @DF-RHF Final Energy:  -422.97591226923737
    Total Energy =                       -422.9759122692373694
  Basis Set: 6-31G*
  Basis Set:
  Basis Set: 6-31G*
  Basis Set:
  @DF-RHF Final Energy:  -422.97574146535487
    Total Energy =                       -422.9757414653548722
  Basis Set: 6-31G*
  Basis Set:
  Basis Set: 6-31G*
  Basis Set:
  @DF-RHF Final Energy:  -422.97591747679115
    Total Energy =                       -422.9759174767907552
  Basis Set: 6-31G*
  Basis Set:
  Charge       = 0
  Multiplicity = 1
  Basis Set: 6-31G*
  Basis Set:

    Orbital Energies (a.u.)
    -----------------------

    Doubly Occupied:

       1A    -20.603041     2A    -20.540567     3A    -11.374113
       4A    -11.281385     5A    -11.232416     6A    -11.224478
       7A    -11.223846     8A    -11.221714     9A    -11.213278
      10A     -1.467975    11A     -1.360766    12A     -1.093637
      13A     -1.041101    14A     -1.002386    15A     -0.930385
      16A     -0.847701    17A     -0.798402    18A     -0.773344
      19A     -0.691382    20A     -0.685317    21A     -0.669451
      22A     -0.634426    23A     -0.617597    24A     -0.596493
      25A     -0.579403    26A     -0.571414    27A     -0.546732
      28A     -0.533103    29A     -0.527319    30A     -0.505798
      31A     -0.498799    32A     -0.474283    33A     -0.466074
      34A     -0.465266    35A     -0.451291    36A     -0.435294

  @DF-RHF Final Energy:  -422.97591753439286

   => Energetics <=

    Nuclear Repulsion Energy =            452.8631122247139160
    One-Electron Energy =               -1473.3181073641121657
    Two-Electron Energy =                 597.4790776050044769
    DFT Exchange-Correlation Energy =       0.0000000000000000
    Empirical Dispersion Energy =           0.0000000000000000
    PCM Polarization Energy =               0.0000000000000000
    EFP Energy =                            0.0000000000000000
    Total Energy =                       -422.9759175343938296
    Molecular point group: c1
  Basis Set: 6-31G*
  Basis Set:

  -Total Gradient:
     Atom            X                  Y                   Z
    ------   -----------------  -----------------  -----------------
       1       -0.000000477022    -0.000002896278    -0.000014176622
       2       -0.000011082924     0.000001046121     0.000040527759
       3       -0.000000260413     0.000001372743    -0.000011856890
       4        0.000001351047     0.000004446262    -0.000017925922
       5       -0.000001795454    -0.000003050688    -0.000000761557
       6        0.000000562908     0.000000289701    -0.000001014956
       7        0.000001422580     0.000002792436    -0.000000708604
       8       -0.000003343738    -0.000000609894    -0.000010619598
       9        0.000046007740    -0.000012666275     0.000032931487
      10       -0.000004445876     0.000007273030     0.000001819779
      11       -0.000000163996    -0.000001300045    -0.000001949522
      12        0.001852459627     0.002512162631     0.001456179702
      13        0.000005808088    -0.000006419093     0.000009487599
      14       -0.000025053338    -0.000001076460     0.000008866106
      15        0.000814383346     0.000982475907     0.003229281443
      16       -0.001670332322    -0.002281486374    -0.001773763200
      17        0.000028854894    -0.000024756394     0.000008093805
      18       -0.000016841937     0.000034290327     0.000002418340
      19       -0.001006914908    -0.001229261120    -0.002949411167
      20       -0.000022782752     0.000020907414    -0.000000157720
      21        0.000002535322     0.000004901932     0.000001028150
      22        0.000001131160    -0.000005671233     0.000005114470
      23        0.000008977969    -0.000002764655    -0.000013402884

  **** Optimization is complete! (in 6 steps) ****
    Final optimized geometry and variables:
    Molecular point group: c1

    Geometry (in Angstrom), charge = 0, multiplicity = 1:

    O           -2.732206295543     1.427427870113     0.109327467641
    C           -2.576904621377     0.248650001028     0.140538377986
    C           -3.707966438140    -0.747289968308     0.149597790204
    O           -1.389117853219    -0.333006006317     0.170985585959
    H           -4.312821447285    -0.594946581827    -0.736287222549
    H           -3.348310537085    -1.765266712212     0.178207396660
    H           -4.334980167904    -0.553778126135     1.011739956754
    C           -0.243181449550     0.512527992821     0.165886400999
    C            0.984644270427    -0.377510164287     0.204726679920
    H           -0.263739108765     1.127408836233    -0.724226574951
    H           -0.287356572101     1.170272539274     1.024049064473
    C            2.284333845004     0.434172788619     0.217230877884
    H            0.963231492327    -1.040723091615    -0.655602617977
    H            0.933698216010    -1.007931910054     1.087924848917
    C            3.541844666310    -0.452536391308     0.165633068176
    H            2.280692719621     1.101265642664    -0.642376294691
    H            2.303470178714     1.060634705919     1.104828876069
    C            4.028892873375    -0.718610194986    -1.260825844018
    H            3.327968137672    -1.408955849750     0.636211836697
    H            4.344453235207     0.007422518183     0.733718125954
    H            3.253404558964    -1.180297153123    -1.865485799127
    H            4.886570319446    -1.384171553436    -1.263722014666
    H            4.323889565482     0.204404819998    -1.751437362610

  Mulliken Charges: (a.u.)
   Center  Symbol    Alpha    Beta     Spin     Total
       1     O     4.28389  4.28389  0.00000 -0.56778
       2     C     2.61534  2.61534  0.00000  0.76932
       3     C     3.28773  3.28773  0.00000 -0.57547
       4     O     4.31261  4.31261  0.00000 -0.62523
       5     H     0.39749  0.39749  0.00000  0.20501
       6     H     0.39988  0.39988  0.00000  0.20023
       7     H     0.39749  0.39749  0.00000  0.20501
       8     C     2.99592  2.99592  0.00000  0.00816
       9     C     3.16662  3.16662  0.00000 -0.33324
      10     H     0.41067  0.41067  0.00000  0.17866
      11     H     0.41076  0.41076  0.00000  0.17848
      12     C     3.16290  3.16290  0.00000 -0.32579
      13     H     0.41408  0.41408  0.00000  0.17184
      14     H     0.41384  0.41384  0.00000  0.17233
      15     C     3.15442  3.15442  0.00000 -0.30884
      16     H     0.41976  0.41976  0.00000  0.16047
      17     H     0.41758  0.41758  0.00000  0.16485
      18     C     3.24094  3.24094  0.00000 -0.48187
      19     H     0.42014  0.42014  0.00000  0.15972
      20     H     0.41775  0.41775  0.00000  0.16451
      21     H     0.42131  0.42131  0.00000  0.15737
      22     H     0.41842  0.41842  0.00000  0.16316
      23     H     0.42045  0.42045  0.00000  0.15910

   Total alpha = 36.00000, Total beta = 36.00000, Total charge =  0.00000
