                              Psi4 1.0.54 Driver

  ==> Input File <==

--------------------------------------------------------------------------
set {
	reference rhf
	basis cc-pvtz
}

set_num_threads( 4 )
memory 2 gb

molecule MOL {
0 1

H	 -3.162190	 0.493205	 -0.000107
C	 -2.363908	 -0.234727	 0.000005
O	 -1.158738	 0.454634	 -0.000087
H	 -2.464314	 -0.863616	 -0.882153
H	 -2.464327	 -0.863359	 0.882345
C	 -0.436076	 0.352811	 1.186382
C	 0.849690	 1.144341	 1.057233
H	 -0.213679	 -0.692892	 1.400117
H	 -1.028898	 0.732297	 2.018965
C	 1.700858	 1.082659	 2.320585
H	 1.408501	 0.759863	 0.211164
H	 0.599757	 2.173720	 0.825148
H	 1.982915	 0.062253	 2.557868
H	 2.612055	 1.655713	 2.200790
H	 1.168888	 1.485827	 3.175881

	symmetry c1
}
set optking {
	frozen_dihedral = ("
		6 3 2 4
	")
}

ee,wfn = optimize('scf', return_wfn=True)
oeprop( wfn, 'DIPOLE', 'QUADRUPOLE', 'MULLIKEN_CHARGES')
f=open( 'psi4out.xyz', 'w' )
f.write( "15  " )
f.write( str(ee) + "\n" )
f.write( MOL.save_string_xyz() )
f.close()
--------------------------------------------------------------------------

    Molecular point group: c1
  Charge       = 0
  Multiplicity = 1
  Basis Set: CC-PVTZ
  Basis Set:
  @DF-RHF Final Energy:  -232.22416217276842
    Total Energy =                       -232.2241621727681604
    Molecular point group: c1
  Basis Set: CC-PVTZ
  Basis Set:
  Basis Set: CC-PVTZ
  Basis Set:
  @DF-RHF Final Energy:  -232.22470285198034
    Total Energy =                       -232.2247028519803393
  Basis Set: CC-PVTZ
  Basis Set:
  Basis Set: CC-PVTZ
  Basis Set:
  @DF-RHF Final Energy:  -232.22481342802647
    Total Energy =                       -232.2248134280264367
  Basis Set: CC-PVTZ
  Basis Set:
  Charge       = 0
  Multiplicity = 1
  Basis Set: CC-PVTZ
  Basis Set:

    Orbital Energies (a.u.)
    -----------------------

    Doubly Occupied:

       1A    -20.544106     2A    -11.264869     3A    -11.261299
       4A    -11.212232     5A    -11.210463     6A     -1.377046
       7A     -1.058025     8A     -0.956085     9A     -0.877434
      10A     -0.809193    11A     -0.673460    12A     -0.653865
      13A     -0.631325    14A     -0.608697    15A     -0.563383
      16A     -0.545827    17A     -0.502931    18A     -0.489029
      19A     -0.479246    20A     -0.461966    21A     -0.411524

  @DF-RHF Final Energy:  -232.22481393037415

   => Energetics <=

    Nuclear Repulsion Energy =            189.6816777837475172
    One-Electron Energy =                -690.6289749082702656
    Two-Electron Energy =                 268.7224831941487082
    DFT Exchange-Correlation Energy =       0.0000000000000000
    Empirical Dispersion Energy =           0.0000000000000000
    PCM Polarization Energy =               0.0000000000000000
    EFP Energy =                            0.0000000000000000
    Total Energy =                       -232.2248139303740118
    Molecular point group: c1
  Basis Set: CC-PVTZ
  Basis Set:

  -Total Gradient:
     Atom            X                  Y                   Z
    ------   -----------------  -----------------  -----------------
       1       -0.000010017350    -0.000001171019    -0.000003749170
       2       -0.000537578844     0.001001112287    -0.001068438200
       3       -0.000755458120     0.001095177671     0.000795770760
       4        0.000630019387    -0.001117393168     0.000694664769
       5        0.000006218537     0.000002460325    -0.000005710545
       6        0.000653649734    -0.001017867600    -0.000457355494
       7       -0.000013137447    -0.000003715894     0.000025948990
       8       -0.000002327290     0.000003196471     0.000029385659
       9       -0.000006001706     0.000007017858    -0.000055179603
      10        0.000034428772     0.000033166134     0.000016831175
      11       -0.000026757268    -0.000007319299     0.000009259472
      12        0.000011119065     0.000002613886     0.000001353860
      13       -0.000003632015     0.000003864387    -0.000006977942
      14        0.000014614245     0.000001972268     0.000020671523
      15        0.000004860298    -0.000003114308     0.000003524747

  **** Optimization is complete! (in 4 steps) ****
    Final optimized geometry and variables:
    Molecular point group: c1

    Geometry (in Angstrom), charge = 0, multiplicity = 1:

    H           -2.910185928633    -0.097694327982    -0.865630551304
    C           -2.075794084893    -0.790731319273    -0.888398420908
    O           -0.865685188315    -0.098916542011    -0.877890703838
    H           -2.138287793400    -1.388558203973    -1.789470798995
    H           -2.165877478865    -1.459954741722    -0.038388954563
    C           -0.113257790287    -0.197105944858     0.291692466683
    C            1.158812501190     0.610378668133     0.130375562252
    H            0.128859723295    -1.239638945014     0.495763886981
    H           -0.685003873453     0.174443753853     1.141968672986
    C            2.045968433019     0.552928070377     1.369169129124
    H            1.697809768147     0.236331335596    -0.733127429714
    H            0.890686918778     1.637846696909    -0.089743052742
    H            2.347001359776    -0.465144543425     1.593019874109
    H            2.946564369301     1.137726522325     1.227167757180
    H            1.533373190966     0.945234786478     2.241256963298

  Mulliken Charges: (a.u.)
   Center  Symbol    Alpha    Beta     Spin     Total
       1     H     0.46017  0.46017  0.00000  0.07967
       2     C     3.02890  3.02890  0.00000 -0.05780
       3     O     4.17650  4.17650  0.00000 -0.35300
       4     H     0.45555  0.45555  0.00000  0.08891
       5     H     0.47367  0.47367  0.00000  0.05265
       6     C     2.95535  2.95535  0.00000  0.08930
       7     C     3.08209  3.08209  0.00000 -0.16419
       8     H     0.47541  0.47541  0.00000  0.04917
       9     H     0.47604  0.47604  0.00000  0.04793
      10     C     3.15592  3.15592  0.00000 -0.31184
      11     H     0.45124  0.45124  0.00000  0.09751
      12     H     0.45112  0.45112  0.00000  0.09776
      13     H     0.45590  0.45590  0.00000  0.08820
      14     H     0.44629  0.44629  0.00000  0.10742
      15     H     0.45585  0.45585  0.00000  0.08830

   Total alpha = 21.00000, Total beta = 21.00000, Total charge = -0.00000

*** Psi4 exiting successfully. Buy a developer a beer!
