  ==> Input File <==

--------------------------------------------------------------------------
set {
	reference rhf
	basis 6-31G*
}

set_num_threads( 4 )
memory 2 gb

molecule MOL {
0 1

H	 -3.161837	 0.500524	 -0.000234
C	 -2.367097	 -0.232926	 -0.000000
O	 -1.158440	 0.455814	 -0.000122
H	 -2.468853	 -0.861886	 -0.882833
H	 -2.468942	 -0.861421	 0.883154
C	 -0.029776	 -0.365156	 0.000148
C	 1.212217	 0.508981	 0.000007
H	 -0.036772	 -1.013236	 -0.877259
H	 -0.036869	 -1.012778	 0.877897
C	 1.371276	 1.298578	 1.298513
H	 2.078919	 -0.124410	 -0.162181
H	 1.156387	 1.186376	 -0.846586
H	 1.453593	 0.637609	 2.156865
H	 2.264560	 1.913496	 1.270814
H	 0.524067	 1.957295	 1.468018

	symmetry c1
}
set optking {
	frozen_dihedral = ("
		11 7 6 8
	")
}

ee = optimize('scf')
oeprop('DIPOLE', 'QUADRUPOLE', 'MULLIKEN_CHARGES')
f=open( 'psi4out.xyz', 'w' )
f.write( "15  " )
f.write( str(ee) + "\n" )
f.write( MOL.save_string_xyz() )
f.close()
--------------------------------------------------------------------------

    Molecular point group: c1
  Charge       = 0
  Multiplicity = 1
  Basis Set: 6-31G*
  Basis Set:
  @DF-RHF Final Energy:  -232.13950863890409
    Total Energy =                       -232.1395086389037488
    Molecular point group: c1
  Basis Set: 6-31G*
  Basis Set:
  Basis Set: 6-31G*
  Basis Set:
  @DF-RHF Final Energy:  -232.13958061739518
    Total Energy =                       -232.1395806173952678
  Basis Set: 6-31G*
  Basis Set:
  Basis Set: 6-31G*
  Basis Set:
  @DF-RHF Final Energy:  -232.13959244272596
    Total Energy =                       -232.1395924427260411
  Basis Set: 6-31G*
  Basis Set:
  Charge       = 0
  Multiplicity = 1
  Basis Set: 6-31G*
  Basis Set:

    Orbital Energies (a.u.)
    -----------------------

    Doubly Occupied:

       1A    -20.554405     2A    -11.266614     3A    -11.264658
       4A    -11.214826     5A    -11.203880     6A     -1.379075
       7A     -1.054038     8A     -0.950617     9A     -0.885974
      10A     -0.799788    11A     -0.668982    12A     -0.662389
      13A     -0.633073    14A     -0.590558    15A     -0.567525
      16A     -0.545893    17A     -0.499141    18A     -0.483906
      19A     -0.478955    20A     -0.459350    21A     -0.413361

  @DF-RHF Final Energy:  -232.13959307501653

   => Energetics <=

    Nuclear Repulsion Energy =            192.7419986619214569
    One-Electron Energy =                -696.6091671670583310
    Two-Electron Energy =                 271.7275754301205097
    DFT Exchange-Correlation Energy =       0.0000000000000000
    Empirical Dispersion Energy =           0.0000000000000000
    PCM Polarization Energy =               0.0000000000000000
    EFP Energy =                            0.0000000000000000
    Total Energy =                       -232.1395930750163643
    Molecular point group: c1
  Basis Set: 6-31G*
  Basis Set:

  -Total Gradient:
     Atom            X                  Y                   Z
    ------   -----------------  -----------------  -----------------
       1       -0.000002951185    -0.000002930019    -0.000001823838
       2        0.000003081632     0.000004087267     0.000003816982
       3        0.000020286851     0.000018401002     0.000024118943
       4       -0.000003166466    -0.000003351527    -0.000000529839
       5        0.000000636069     0.000001529674    -0.000002560618
       6       -0.000650892637     0.000974530665    -0.000935477834
       7        0.000240268898    -0.000360979066     0.001409091811
       8        0.000548822656    -0.000731636676     0.000547159850
       9       -0.000004298750    -0.000001754985     0.000011568396
      10       -0.000071222257     0.000046425703     0.000026329306
      11       -0.000094553854     0.000098718163    -0.001056493493
      12        0.000004024443    -0.000001234447    -0.000022620414
      13        0.000021740045    -0.000001322037     0.000012690367
      14       -0.000012070891    -0.000024732128    -0.000031181290
      15        0.000000295449    -0.000015751589     0.000015911671

  **** Optimization is complete! (in 4 steps) ****
    Final optimized geometry and variables:
    Molecular point group: c1

    Geometry (in Angstrom), charge = 0, multiplicity = 1:

    H           -2.935988604374     0.171365915827    -0.262512466879
    C           -2.139697327347    -0.560430278423    -0.257539535558
    O           -0.932086940815     0.129945366397    -0.272843400271
    H           -2.244681613873    -1.200225692829    -1.132138682512
    H           -2.235012167949    -1.178277224016     0.633682544921
    C            0.198614515612    -0.689673774443    -0.273524066631
    C            1.444421205414     0.180112688223    -0.252938451978
    H            0.199935706538    -1.329117227808    -1.156365269359
    H            0.183377668171    -1.347045626522     0.597232357602
    C            1.603701852623     0.976634785097     1.040542034685
    H            2.309961778749    -0.458976893340    -0.411857865153
    H            1.397848143399     0.857705114333    -1.100568072222
    H            1.689976204536     0.315341967591     1.898696908572
    H            2.495907429438     1.594134373854     1.008314147930
    H            0.750233046251     1.624348828314     1.201161558432

  Mulliken Charges: (a.u.)
   Center  Symbol    Alpha    Beta     Spin     Total
       1     H     0.41219  0.41219  0.00000  0.17561
       2     C     3.07899  3.07899  0.00000 -0.15797
       3     O     4.30369  4.30369  0.00000 -0.60738
       4     H     0.43032  0.43032  0.00000  0.13936
       5     H     0.43004  0.43004  0.00000  0.13992
       6     C     2.98883  2.98883  0.00000  0.02233
       7     C     3.16013  3.16013  0.00000 -0.32027
       8     H     0.43015  0.43015  0.00000  0.13970
       9     H     0.43350  0.43350  0.00000  0.13301
      10     C     3.24192  3.24192  0.00000 -0.48383
      11     H     0.42299  0.42299  0.00000  0.15401
      12     H     0.41416  0.41416  0.00000  0.17168
      13     H     0.42466  0.42466  0.00000  0.15069
      14     H     0.42047  0.42047  0.00000  0.15906
      15     H     0.40796  0.40796  0.00000  0.18408

   Total alpha = 21.00000, Total beta = 21.00000, Total charge =  0.00000
