                              Psi4 1.0.54 Driver

  ==> Input File <==

--------------------------------------------------------------------------
set {
	reference rhf
	basis cc-pvtz
}

set_num_threads( 4 )
memory 2 gb

molecule MOL {
0 1

H	 -1.835082	 1.385983	 0.000069
C	 -1.300516	 0.441153	 -0.000028
O	 -0.006604	 0.654344	 -0.000106
O	 -1.828920	 -0.612308	 0.000113
C	 0.717217	 0.336510	 1.185173
C	 2.170444	 0.666594	 0.940475
H	 0.578178	 -0.711638	 1.408806
H	 0.310741	 0.909023	 2.006738
H	 2.562909	 0.089162	 0.113122
H	 2.750518	 0.435644	 1.825931
H	 2.294127	 1.717972	 0.714031

	symmetry c1
}
set optking {
	frozen_dihedral = ("
		5 3 2 4
	")
}

ee,wfn = optimize('scf', return_wfn=True)
oeprop( wfn, 'DIPOLE', 'QUADRUPOLE', 'MULLIKEN_CHARGES')
f=open( 'psi4out.xyz', 'w' )
f.write( "11  " )
f.write( str(ee) + "\n" )
f.write( MOL.save_string_xyz() )
f.close()
--------------------------------------------------------------------------

    Molecular point group: c1
  Charge       = 0
  Multiplicity = 1
  Basis Set: CC-PVTZ
  Basis Set:
  @DF-RHF Final Energy:  -266.91431316836110
    Total Energy =                       -266.9143131683610477
    Molecular point group: c1
  Basis Set: CC-PVTZ
  Basis Set:
  Basis Set: CC-PVTZ
  Basis Set:
  @DF-RHF Final Energy:  -266.90892663680654
    Total Energy =                       -266.9089266368064273
  Basis Set: CC-PVTZ
  Basis Set:
  Basis Set: CC-PVTZ
  Basis Set:
  @DF-RHF Final Energy:  -266.91431544489706
    Total Energy =                       -266.9143154448972268
  Basis Set: CC-PVTZ
  Basis Set:
  Basis Set: CC-PVTZ
  Basis Set:
  @DF-RHF Final Energy:  -266.91545717123927
    Total Energy =                       -266.9154571712390975
  Basis Set: CC-PVTZ
  Basis Set:
  Basis Set: CC-PVTZ
  Basis Set:
  @DF-RHF Final Energy:  -266.91548230765886
    Total Energy =                       -266.9154823076589196
  Basis Set: CC-PVTZ
  Basis Set:
  Basis Set: CC-PVTZ
  Basis Set:
  @DF-RHF Final Energy:  -266.91548511629935
    Total Energy =                       -266.9154851162994646
  Basis Set: CC-PVTZ
  Basis Set:
  Charge       = 0
  Multiplicity = 1
  Basis Set: CC-PVTZ
  Basis Set:

    Orbital Energies (a.u.)
    -----------------------

    Doubly Occupied:

       1A    -20.587156     2A    -20.558074     3A    -11.373225
       4A    -11.296928     5A    -11.225802     6A     -1.470144
       7A     -1.380156     8A     -1.050121     9A     -0.892661
      10A     -0.820053    11A     -0.743198    12A     -0.691667
      13A     -0.656241    14A     -0.633808    15A     -0.563762
      16A     -0.543463    17A     -0.534304    18A     -0.508806
      19A     -0.467157    20A     -0.454037

  @DF-RHF Final Energy:  -266.91548594481014

   => Energetics <=

    Nuclear Repulsion Energy =            177.8468207580943954
    One-Electron Energy =                -716.6230900463992839
    Two-Electron Energy =                 271.8607833434947452
    DFT Exchange-Correlation Energy =       0.0000000000000000
    Empirical Dispersion Energy =           0.0000000000000000
    PCM Polarization Energy =               0.0000000000000000
    EFP Energy =                            0.0000000000000000
    Total Energy =                       -266.9154859448101433
    Molecular point group: c1
  Basis Set: CC-PVTZ
  Basis Set:

  -Total Gradient:
     Atom            X                  Y                   Z
    ------   -----------------  -----------------  -----------------
       1       -0.000023249917    -0.000017173084    -0.000003924391
       2       -0.000728758475     0.001571859701     0.010765961567
       3        0.001604060248    -0.006467580651    -0.006234220434
       4        0.000135110440     0.000436978373    -0.006519622616
       5       -0.001000211499     0.004477594049     0.002012480951
       6       -0.000009990019     0.000003264264    -0.000026872816
       7        0.000006482468     0.000004005487    -0.000004033404
       8        0.000024087062    -0.000009416170     0.000007615157
       9        0.000003264192    -0.000002945536    -0.000000493630
      10       -0.000012945836    -0.000001312949     0.000002882978
      11        0.000002151337     0.000004726513     0.000000226639

  **** Optimization is complete! (in 7 steps) ****
    Final optimized geometry and variables:
    Molecular point group: c1

    Geometry (in Angstrom), charge = 0, multiplicity = 1:

    H           -1.866990478439     1.056834751461    -0.480410313841
    C           -1.266991179094     0.150024502347    -0.442708933117
    O            0.039698322813     0.411230450934    -0.396280653726
    O           -1.732887960866    -0.923573835713    -0.518975025444
    C            0.743492332855     0.045795093434     0.786495959522
    C            2.209931227826     0.329479369381     0.567441070973
    H            0.572790400233    -1.002625639446     0.990621092542
    H            0.357639389062     0.627256152383     1.616838818453
    H            2.589338127191    -0.254394555616    -0.260909114639
    H            2.770145335718     0.071464976906     1.458384743595
    H            2.369164045398     1.378080843288     0.351409739740

  Mulliken Charges: (a.u.)
   Center  Symbol    Alpha    Beta     Spin     Total
       1     H     0.46070  0.46070  0.00000  0.07860
       2     C     2.83765  2.83765  0.00000  0.32470
       3     O     4.16063  4.16063  0.00000 -0.32125
       4     O     4.16995  4.16995  0.00000 -0.33991
       5     C     2.96856  2.96856  0.00000  0.06287
       6     C     3.13458  3.13458  0.00000 -0.26915
       7     H     0.45130  0.45130  0.00000  0.09741
       8     H     0.46394  0.46394  0.00000  0.07212
       9     H     0.44689  0.44689  0.00000  0.10622
      10     H     0.45588  0.45588  0.00000  0.08825
      11     H     0.44993  0.44993  0.00000  0.10014

   Total alpha = 20.00000, Total beta = 20.00000, Total charge = -0.00000

*** Psi4 exiting successfully. Buy a developer a beer!
