  ==> Input File <==

--------------------------------------------------------------------------
set {
	reference rhf
	basis 6-31G*
}

set_num_threads( 1 )
memory 2 gb

molecule MOL {
0 1

H	 0.235385	 -1.500311	 -0.719872
C	 -0.743457	 -1.519802	 -0.244867
O	 -1.392607	 -0.295399	 -0.366433
H	 -1.355856	 -2.263709	 -0.735490
H	 -0.614808	 -1.803262	 0.798938
C	 -0.719715	 0.768384	 0.229244
C	 0.719720	 0.768376	 -0.229267
H	 -1.185038	 1.714362	 -0.050570
H	 -0.750528	 0.687237	 1.313896
O	 1.392611	 -0.295398	 0.366430
H	 0.750534	 0.687200	 -1.313918
H	 1.185043	 1.714359	 0.050526
C	 2.706965	 -0.449871	 -0.062409
H	 2.756559	 -0.644779	 -1.131878
H	 3.305899	 0.433456	 0.155466
H	 3.125548	 -1.294566	 0.467107

	symmetry c1
}
set optking {
	frozen_dihedral = ("
		3 6 7 11,
		7 10 13 14
	")
}

ee = energy('scf')
oeprop('DIPOLE', 'QUADRUPOLE', 'MULLIKEN_CHARGES')
f=open( 'psi4out.xyz', 'w' )
f.write( "16  " )
f.write( str(ee) + "\n" )
f.write( MOL.save_string_xyz() )
f.close()
--------------------------------------------------------------------------

    Molecular point group: c1

    Geometry (in Angstrom), charge = 0, multiplicity = 1:

       Center              X                  Y                   Z               Mass
    ------------   -----------------  -----------------  -----------------  -----------------
           H         -0.109612651170    -1.312314546875    -0.665884467549     1.007825032070
           C         -1.088454651170    -1.331805546875    -0.190879467549    12.000000000000
           O         -1.737604651170    -0.107402546875    -0.312445467549    15.994914619560
           H         -1.700853651170    -2.075712546875    -0.681502467549     1.007825032070
           H         -0.959805651170    -1.615265546875     0.852925532451     1.007825032070
           C         -1.064712651170     0.956380453125     0.283231532451    12.000000000000
           C          0.374722348830     0.956372453125    -0.175279467549    12.000000000000
           H         -1.530035651170     1.902358453125     0.003417532451     1.007825032070
           H         -1.095525651170     0.875233453125     1.367883532451     1.007825032070
           O          1.047613348830    -0.107401546875     0.420417532451    15.994914619560
           H          0.405536348830     0.875196453125    -1.259930467549     1.007825032070
           H          0.840045348830     1.902355453125     0.104513532451     1.007825032070
           C          2.361967348830    -0.261874546875    -0.008421467549    12.000000000000
           H          2.411561348830    -0.456782546875    -1.077890467549     1.007825032070
           H          2.960901348830     0.621452453125     0.209453532451     1.007825032070
           H          2.780550348830    -1.106569546875     0.521094532451     1.007825032070

  Charge       = 0
  Multiplicity = 1
  Basis Set: 6-31G*
  Basis Set:

    Orbital Energies (a.u.)
    -----------------------

    Doubly Occupied:

       1A    -20.563450     2A    -20.547164     3A    -11.273768
       4A    -11.272592     5A    -11.268851     6A    -11.243991
       7A     -1.400802     8A     -1.368929     9A     -1.028917
      10A     -0.948848    11A     -0.888260    12A     -0.821238
      13A     -0.707873    14A     -0.685207    15A     -0.655417
      16A     -0.626025    17A     -0.622807    18A     -0.594226
      19A     -0.551145    20A     -0.534730    21A     -0.525634
      22A     -0.493262    23A     -0.452855    24A     -0.427145
      25A     -0.393963

  @DF-RHF Final Energy:  -306.96142212977105

   => Energetics <=

    Nuclear Repulsion Energy =            271.8466295140186162
    One-Electron Energy =                -957.8219068967634939
    Two-Electron Energy =                 379.0138552529743947
    DFT Exchange-Correlation Energy =       0.0000000000000000
    Empirical Dispersion Energy =           0.0000000000000000
    PCM Polarization Energy =               0.0000000000000000
    EFP Energy =                            0.0000000000000000
    Total Energy =                       -306.9614221297705399

  Mulliken Charges: (a.u.)
   Center  Symbol    Alpha    Beta     Spin     Total
       1     H     0.41808  0.41808  0.00000  0.16383
       2     C     3.07577  3.07577  0.00000 -0.15155
       3     O     4.30578  4.30578  0.00000 -0.61155
       4     H     0.42120  0.42120  0.00000  0.15760
       5     H     0.42843  0.42843  0.00000  0.14313
       6     C     2.99493  2.99493  0.00000  0.01014
       7     C     3.01909  3.01909  0.00000 -0.03819
       8     H     0.41497  0.41497  0.00000  0.17006
       9     H     0.42192  0.42192  0.00000  0.15615
      10     O     4.30456  4.30456  0.00000 -0.60912
      11     H     0.42148  0.42148  0.00000  0.15704
      12     H     0.42614  0.42614  0.00000  0.14773
      13     C     3.08244  3.08244  0.00000 -0.16488
      14     H     0.42855  0.42855  0.00000  0.14289
      15     H     0.42659  0.42659  0.00000  0.14681
      16     H     0.41005  0.41005  0.00000  0.17989

   Total alpha = 25.00000, Total beta = 25.00000, Total charge =  0.00000
