                              Psi4 1.0.54 Driver

  ==> Input File <==

--------------------------------------------------------------------------
set {
	reference rhf
	basis cc-pvtz
}

set_num_threads( 4 )
memory 2 gb

molecule MOL {
0 1

O	 -2.071633	 -1.227563	 -0.223463
C	 -1.652164	 -0.152425	 0.058082
C	 -0.327811	 0.006324	 0.778296
C	 -2.402515	 1.108629	 -0.298924
C	 0.843231	 -0.001575	 -0.211665
H	 -0.319484	 0.928173	 1.350354
H	 -0.227804	 -0.823091	 1.466705
C	 2.197693	 0.138030	 0.476937
H	 0.722944	 0.805202	 -0.930230
H	 0.813976	 -0.926978	 -0.776588
C	 2.672412	 -1.160055	 1.120971
H	 2.936363	 0.474207	 -0.245473
H	 2.134348	 0.914644	 1.233506
H	 2.779269	 -1.947791	 0.382670
H	 1.968738	 -1.504251	 1.871131
H	 3.633262	 -1.027849	 1.604386
H	 -3.240910	 0.874416	 -0.936711
H	 -1.747554	 1.818823	 -0.790984
H	 -2.760419	 1.579708	 0.610998

	symmetry c1
}
set optking {
	frozen_dihedral = ("
		11 8 5 9
	")
}

ee,wfn = optimize('scf', return_wfn=True)
oeprop( wfn, 'DIPOLE', 'QUADRUPOLE', 'MULLIKEN_CHARGES')
f=open( 'psi4out.xyz', 'w' )
f.write( "19  " )
f.write( str(ee) + "\n" )
f.write( MOL.save_string_xyz() )
f.close()
--------------------------------------------------------------------------

    Molecular point group: c1
  Charge       = 0
  Multiplicity = 1
  Basis Set: CC-PVTZ
  Basis Set:
  @DF-RHF Final Energy:  -309.17501375439747
    Total Energy =                       -309.1750137543967867
    Molecular point group: c1
  Basis Set: CC-PVTZ
  Basis Set:
  Basis Set: CC-PVTZ
  Basis Set:
  @DF-RHF Final Energy:  -309.17525311353495
    Total Energy =                       -309.1752531135349500
  Basis Set: CC-PVTZ
  Basis Set:
  Basis Set: CC-PVTZ
  Basis Set:
  @DF-RHF Final Energy:  -309.17519924404507
    Total Energy =                       -309.1751992440450181
  Basis Set: CC-PVTZ
  Basis Set:
  Basis Set: CC-PVTZ
  Basis Set:
  @DF-RHF Final Energy:  -309.17525615194057
    Total Energy =                       -309.1752561519404026
  Basis Set: CC-PVTZ
  Basis Set:
  Basis Set: CC-PVTZ
  Basis Set:
  @DF-RHF Final Energy:  -309.17527544413628
    Total Energy =                       -309.1752754441364459
  Basis Set: CC-PVTZ
  Basis Set:
  Basis Set: CC-PVTZ
  Basis Set:
  @DF-RHF Final Energy:  -309.17527831626268
    Total Energy =                       -309.1752783162629612
  Basis Set: CC-PVTZ
  Basis Set:
  Charge       = 0
  Multiplicity = 1
  Basis Set: CC-PVTZ
  Basis Set:

    Orbital Energies (a.u.)
    -----------------------

    Doubly Occupied:

       1A    -20.536908     2A    -11.319481     3A    -11.228836
       4A    -11.227731     5A    -11.226975     6A    -11.223149
       7A    -11.211999     8A     -1.397057     9A     -1.092114
      10A     -1.029024    11A     -0.982499    12A     -0.898063
      13A     -0.800901    14A     -0.736695    15A     -0.658001
      16A     -0.653800    17A     -0.622029    18A     -0.603091
      19A     -0.599149    20A     -0.577523    21A     -0.547491
      22A     -0.540723    23A     -0.516525    24A     -0.501909
      25A     -0.480973    26A     -0.477809    27A     -0.463783
      28A     -0.399483

  @DF-RHF Final Energy:  -309.17528014535645

   => Energetics <=

    Nuclear Repulsion Energy =            304.4915130672151804
    One-Electron Energy =               -1022.2261427075254687
    Two-Electron Energy =                 408.5593494949539490
    DFT Exchange-Correlation Energy =       0.0000000000000000
    Empirical Dispersion Energy =           0.0000000000000000
    PCM Polarization Energy =               0.0000000000000000
    EFP Energy =                            0.0000000000000000
    Total Energy =                       -309.1752801453562824
    Molecular point group: c1
  Basis Set: CC-PVTZ
  Basis Set:

  -Total Gradient:
     Atom            X                  Y                   Z
    ------   -----------------  -----------------  -----------------
       1       -0.000000074246     0.000006459114     0.000007959564
       2        0.000022189957     0.000024434979    -0.000009402989
       3       -0.000018408704    -0.000013540322     0.000020548967
       4       -0.000011446082    -0.000008821229     0.000004570461
       5       -0.000766915260     0.001348738417     0.001282046907
       6       -0.000009780668    -0.000009196895    -0.000005285429
       7       -0.000008665409     0.000012762952    -0.000006781576
       8       -0.000776115341     0.000330364741     0.001526029841
       9        0.000864307543    -0.001247289525    -0.001492513925
      10        0.000003011991     0.000004865408    -0.000003074661
      11        0.000703343636    -0.000442884267    -0.001326566723
      12       -0.000011177014    -0.000001615270     0.000003576078
      13        0.000000847867     0.000002664903    -0.000002248470
      14        0.000004029804     0.000002252243     0.000002982905
      15        0.000008561822     0.000000105932    -0.000001990710
      16       -0.000012944019    -0.000000898573    -0.000005068302
      17        0.000010886658    -0.000000200797     0.000004002761
      18       -0.000002734001    -0.000009772163     0.000001776036
      19        0.000001081462     0.000001570352    -0.000000560733

  **** Optimization is complete! (in 7 steps) ****
    Final optimized geometry and variables:
    Molecular point group: c1

    Geometry (in Angstrom), charge = 0, multiplicity = 1:

    O           -1.981113615924    -1.021344530505    -0.480499703435
    C           -1.554918610447     0.050628976388    -0.196935930458
    C           -0.238520073544     0.199183516119     0.540001887259
    C           -2.288894850000     1.317554370828    -0.566867014166
    C            0.942248646128     0.178403943329    -0.439581546948
    H           -0.227477045956     1.125260015006     1.105106816843
    H           -0.161946604822    -0.626136317794     1.234662271549
    C            2.309190916019     0.306036460609     0.238294652039
    H            0.831149895662     0.977895966549    -1.165948543295
    H            0.905694962686    -0.746333825910    -1.005844771298
    C            2.795888963206    -0.977989001418     0.904866217933
    H            3.036654981845     0.599315463920    -0.511756404925
    H            2.282453782679     1.113135389338     0.964946241734
    H            2.876857055664    -1.781072292976     0.180719873994
    H            2.125270934068    -1.308366129675     1.689693626588
    H            3.773087087060    -0.833770976437     1.350869105016
    H           -3.120086134566     1.089484474641    -1.216177411975
    H           -1.620897040354     2.021424752814    -1.050262672866
    H           -2.655909856995     1.792872222126     0.337233236820

  Mulliken Charges: (a.u.)
   Center  Symbol    Alpha    Beta     Spin     Total
       1     O     4.17714  4.17714  0.00000 -0.35427
       2     C     2.85780  2.85780  0.00000  0.28441
       3     C     3.10045  3.10045  0.00000 -0.20089
       4     C     3.15482  3.15482  0.00000 -0.30963
       5     C     3.10487  3.10487  0.00000 -0.20974
       6     H     0.44946  0.44946  0.00000  0.10108
       7     H     0.43802  0.43802  0.00000  0.12396
       8     C     3.09086  3.09086  0.00000 -0.18171
       9     H     0.44571  0.44571  0.00000  0.10858
      10     H     0.44257  0.44257  0.00000  0.11485
      11     C     3.14807  3.14807  0.00000 -0.29614
      12     H     0.44706  0.44706  0.00000  0.10589
      13     H     0.45446  0.45446  0.00000  0.09109
      14     H     0.45235  0.45235  0.00000  0.09530
      15     H     0.45417  0.45417  0.00000  0.09167
      16     H     0.44691  0.44691  0.00000  0.10619
      17     H     0.43609  0.43609  0.00000  0.12781
      18     H     0.45091  0.45091  0.00000  0.09817
      19     H     0.44830  0.44830  0.00000  0.10340

   Total alpha = 28.00000, Total beta = 28.00000, Total charge = -0.00000

*** Psi4 exiting successfully. Buy a developer a beer!
