  ==> Input File <==

--------------------------------------------------------------------------
set {
	reference rhf
	basis 6-31G*
}

set_num_threads( 4 )
memory 2 gb

molecule MOL {
0 1

H	 2.614757	 3.946133	 3.716707
C	 2.345059	 3.219654	 2.970867
C	 1.297224	 3.479030	 2.100285
C	 3.046129	 2.027284	 2.883195
H	 0.754335	 4.404161	 2.169355
C	 0.951033	 2.544439	 1.141549
H	 3.858094	 1.827969	 3.558911
C	 2.701355	 1.090277	 1.924278
H	 0.143070	 2.728173	 0.459560
C	 1.651670	 1.347235	 1.050266
H	 3.241143	 0.166238	 1.852847
C	 1.239129	 0.373821	 0.000060
O	 1.970282	 -0.730723	 0.000018
O	 0.345689	 0.559566	 -0.765526
C	 3.377318	 -0.566646	 -0.000065
H	 3.695437	 -0.028981	 -0.881264
H	 3.789299	 -1.563704	 0.000236
H	 3.695516	 -0.028316	 0.880770

	symmetry c1
}
set optking {
	frozen_dihedral = ("
		10 12 13 15
	")
}

ee = optimize('scf')
oeprop('DIPOLE', 'QUADRUPOLE', 'MULLIKEN_CHARGES')
f=open( 'psi4out.xyz', 'w' )
f.write( "18  " )
f.write( str(ee) + "\n" )
f.write( MOL.save_string_xyz() )
f.close()
--------------------------------------------------------------------------

    Molecular point group: c1
  Charge       = 0
  Multiplicity = 1
  Basis Set: 6-31G*
  Basis Set:
  @DF-RHF Final Energy:  -457.26738178338599
    Total Energy =                       -457.2673817833860994
    Molecular point group: c1
  Basis Set: 6-31G*
  Basis Set:
  Basis Set: 6-31G*
  Basis Set:
  @DF-RHF Final Energy:  -457.30961371991850
    Total Energy =                       -457.3096137199189570
  Basis Set: 6-31G*
  Basis Set:
  Basis Set: 6-31G*
  Basis Set:
  @DF-RHF Final Energy:  -457.32227438302829
    Total Energy =                       -457.3222743830289119
  Basis Set: 6-31G*
  Basis Set:
  Basis Set: 6-31G*
  Basis Set:
  @DF-RHF Final Energy:  -457.32365724308005
    Total Energy =                       -457.3236572430799924
  Basis Set: 6-31G*
  Basis Set:
  @DF-RHF Final Energy:  -457.32719857607896
    Total Energy =                       -457.3271985760790130
  @DF-RHF Final Energy:  -457.32844717890333
    Total Energy =                       -457.3284471789030476
  @DF-RHF Final Energy:  -457.32881719351138
    Total Energy =                       -457.3288171935112132
  @DF-RHF Final Energy:  -457.32892567697769
    Total Energy =                       -457.3289256769778603
  @DF-RHF Final Energy:  -457.32893770815849
    Total Energy =                       -457.3289377081582643
  Basis Set: 6-31G*
  Basis Set:
  @DF-RHF Final Energy:  -457.32893955804263
    Total Energy =                       -457.3289395580429755
  Basis Set: 6-31G*
  Basis Set:
  Basis Set: 6-31G*
  Basis Set:
  @DF-RHF Final Energy:  -457.32894113244390
    Total Energy =                       -457.3289411324437879
  Basis Set: 6-31G*
  Basis Set:
  Basis Set: 6-31G*
  Basis Set:
  @DF-RHF Final Energy:  -457.32894262721254
    Total Energy =                       -457.3289426272131095
  Basis Set: 6-31G*
  Basis Set:
  Charge       = 0
  Multiplicity = 1
  Basis Set: 6-31G*
  Basis Set:

    Orbital Energies (a.u.)
    -----------------------

    Doubly Occupied:

       1A    -20.596713     2A    -20.549230     3A    -11.379277
       4A    -11.292086     5A    -11.254179     6A    -11.252874
       7A    -11.250406     8A    -11.248864     9A    -11.246036
      10A    -11.244242    11A     -1.461832    12A     -1.367651
      13A     -1.172175    14A     -1.046984    15A     -1.032430
      16A     -0.981014    17A     -0.874962    18A     -0.844238
      19A     -0.782806    20A     -0.736936    21A     -0.688246
      22A     -0.676731    23A     -0.669009    24A     -0.639240
      25A     -0.628210    26A     -0.607244    27A     -0.600139
      28A     -0.564629    29A     -0.536991    30A     -0.516078
      31A     -0.509932    32A     -0.495921    33A     -0.458856
      34A     -0.440440    35A     -0.350650    36A     -0.348284

  @DF-RHF Final Energy:  -457.32894304375304

   => Energetics <=

    Nuclear Repulsion Energy =            497.5371068577243250
    One-Electron Energy =               -1609.0410307123461280
    Two-Electron Energy =                 654.1749808108683055
    DFT Exchange-Correlation Energy =       0.0000000000000000
    Empirical Dispersion Energy =           0.0000000000000000
    PCM Polarization Energy =               0.0000000000000000
    EFP Energy =                            0.0000000000000000
    Total Energy =                       -457.3289430437536112
    Molecular point group: c1
  Basis Set: 6-31G*
  Basis Set:

  -Total Gradient:
     Atom            X                  Y                   Z
    ------   -----------------  -----------------  -----------------
       1       -0.000004694097     0.000005690627    -0.000005200041
       2        0.000037070297    -0.000041440348     0.000035143264
       3       -0.000034595348    -0.000018583536    -0.000054754710
       4       -0.000006779539     0.000051447873     0.000016236275
       5        0.000005046861     0.000002566225     0.000007842394
       6       -0.000001204246     0.000046517070     0.000016049387
       7       -0.000000047474    -0.000004378690     0.000000028177
       8       -0.000017452884    -0.000013341598    -0.000030463992
       9        0.000001307486    -0.000003605016    -0.000003279892
      10        0.000413224095     0.000600396150    -0.000875062488
      11       -0.000003907489    -0.000001836618    -0.000003108150
      12       -0.000421251378    -0.000928529248     0.002019312455
      13       -0.000344846619     0.000312679592    -0.002325375555
      14        0.000004911640    -0.000000036089     0.000005035951
      15        0.000366414647    -0.000010232579     0.001209957638
      16        0.000007737949     0.000002994286    -0.000003866951
      17       -0.000003584333     0.000004080924     0.000000851952
      18        0.000002650438    -0.000004389023    -0.000009345711

  **** Optimization is complete! (in 13 steps) ****
    Final optimized geometry and variables:
    Molecular point group: c1

    Geometry (in Angstrom), charge = 0, multiplicity = 1:

    H            0.678421797784     2.884223508164     2.521724255584
    C            0.424422372479     2.097767007042     1.833831880561
    C           -0.414456294484     2.360308174046     0.761510315365
    C            0.928723463696     0.821349221292     2.026410612967
    H           -0.812100226032     3.348456379532     0.617249317574
    C           -0.750837934268     1.346103719700    -0.117385481408
    H            1.564840706796     0.612898554645     2.867472873471
    C            0.609966043994    -0.188849964804     1.135069050579
    H           -1.419987139030     1.530718697313    -0.936539781747
    C           -0.226132804113     0.071344524766     0.055927934725
    H            0.990707950875    -1.181656192592     1.291007794601
    C           -0.655222375883    -1.011321764154    -0.885495495654
    O            0.228769135558    -1.979983591292    -1.167562079011
    O           -1.745480347114    -1.049337382361    -1.345558069080
    C            1.546369730373    -1.659893297742    -1.569876675585
    H            1.529737629919    -1.065859085859    -2.475725521471
    H            2.027684819705    -2.603444083672    -1.774120056640
    H            2.094309617829    -1.132026626980    -0.804059770766

  Mulliken Charges: (a.u.)
   Center  Symbol    Alpha    Beta     Spin     Total
       1     H     0.39423  0.39423  0.00000  0.21155
       2     C     3.09262  3.09262  0.00000 -0.18524
       3     C     3.10433  3.10433  0.00000 -0.20866
       4     C     3.10385  3.10385  0.00000 -0.20770
       5     H     0.39378  0.39378  0.00000  0.21243
       6     C     3.08845  3.08845  0.00000 -0.17691
       7     H     0.39470  0.39470  0.00000  0.21059
       8     C     3.09898  3.09898  0.00000 -0.19795
       9     H     0.37946  0.37946  0.00000  0.24108
      10     C     3.06802  3.06802  0.00000 -0.13603
      11     H     0.38628  0.38628  0.00000  0.22744
      12     C     2.60414  2.60414  0.00000  0.79171
      13     O     4.31119  4.31119  0.00000 -0.62238
      14     O     4.25726  4.25726  0.00000 -0.51452
      15     C     3.09340  3.09340  0.00000 -0.18680
      16     H     0.41289  0.41289  0.00000  0.17423
      17     H     0.40194  0.40194  0.00000  0.19612
      18     H     0.41448  0.41448  0.00000  0.17103

   Total alpha = 36.00000, Total beta = 36.00000, Total charge = -0.00000
