  ==> Input File <==

--------------------------------------------------------------------------
set {
	reference rhf
	basis cc-pvtz
}

set_num_threads( 4 )
memory 2 gb

molecule MOL {
0 1

H	 -3.401682	 -1.036167	 0.000000
O	 -3.113760	 -0.140926	 0.000000
C	 -1.775087	 -0.058754	 0.000000
C	 -1.002384	 -0.601020	 -1.019467
C	 -1.173850	 0.593413	 1.063661
H	 -1.476121	 -1.105508	 -1.841351
C	 0.366764	 -0.488392	 -0.970049
H	 -1.788066	 1.004442	 1.839427
C	 0.198367	 0.697605	 1.098170
H	 0.974069	 -0.902458	 -1.750330
C	 0.984274	 0.162190	 0.089146
H	 0.665875	 1.203354	 1.922896
C	 2.452626	 0.286190	 0.147697
O	 3.203878	 -0.138211	 -0.665728
H	 2.832852	 0.817925	 1.026610

	symmetry c1
}
set optking {
	frozen_dihedral = ("
		5 3 2 1
	")
}

ee = optimize('scf')
oeprop('DIPOLE', 'QUADRUPOLE', 'MULLIKEN_CHARGES')
f=open( 'psi4out.xyz', 'w' )
f.write( "15  " )
f.write( str(ee) + "\n" )
f.write( MOL.save_string_xyz() )
f.close()
--------------------------------------------------------------------------

    Molecular point group: c1
  Charge       = 0
  Multiplicity = 1
  Basis Set: CC-PVTZ
  Basis Set:
  @DF-RHF Final Energy:  -418.43768849746380
    Total Energy =                       -418.4376884974641371
    Molecular point group: c1
  Basis Set: CC-PVTZ
  Basis Set:
  Basis Set: CC-PVTZ
  Basis Set:
  @DF-RHF Final Energy:  -418.43807466637577
    Total Energy =                       -418.4380746663754280
  Basis Set: CC-PVTZ
  Basis Set:
  Basis Set: CC-PVTZ
  Basis Set:
  @DF-RHF Final Energy:  -418.43807384867301
    Total Energy =                       -418.4380738486730706
  Basis Set: CC-PVTZ
  Basis Set:
  Basis Set: CC-PVTZ
  Basis Set:
  @DF-RHF Final Energy:  -418.43781740141276
    Total Energy =                       -418.4378174014126444
  Basis Set: CC-PVTZ
  Basis Set:
  Basis Set: CC-PVTZ
  Basis Set:
  @DF-RHF Final Energy:  -418.43812418238770
    Total Energy =                       -418.4381241823881510
  Basis Set: CC-PVTZ
  Basis Set:
  Charge       = 0
  Multiplicity = 1
  Basis Set: CC-PVTZ
  Basis Set:

    Orbital Energies (a.u.)
    -----------------------

    Doubly Occupied:

       1A    -20.591281     2A    -20.549719     3A    -11.325670
       4A    -11.314742     5A    -11.257983     6A    -11.252659
       7A    -11.242016     8A    -11.241571     9A    -11.239603
      10A     -1.421358    11A     -1.405876    12A     -1.175654
      13A     -1.045097    14A     -1.041296    15A     -0.890371
      16A     -0.864544    17A     -0.798919    18A     -0.757531
      19A     -0.714273    20A     -0.672448    21A     -0.652463
      22A     -0.634923    23A     -0.622667    24A     -0.610072
      25A     -0.566102    26A     -0.558684    27A     -0.546063
      28A     -0.504348    29A     -0.488936    30A     -0.424570
      31A     -0.360575    32A     -0.342513

  @DF-RHF Final Energy:  -418.43812482677259

   => Energetics <=

    Nuclear Repulsion Energy =            401.8407266739670263
    One-Electron Energy =               -1366.3286432742174838
    Two-Electron Energy =                 546.0497917734778639
    DFT Exchange-Correlation Energy =       0.0000000000000000
    Empirical Dispersion Energy =           0.0000000000000000
    PCM Polarization Energy =               0.0000000000000000
    EFP Energy =                            0.0000000000000000
    Total Energy =                       -418.4381248267725368
    Molecular point group: c1
  Basis Set: CC-PVTZ
  Basis Set:

  -Total Gradient:
     Atom            X                  Y                   Z
    ------   -----------------  -----------------  -----------------
       1       -0.000090807874     0.000003235684     0.002935954385
       2        0.000075689920    -0.000932640154    -0.003124741209
       3       -0.000058464769     0.002711152511    -0.001063429887
       4       -0.000168410009    -0.000015358680     0.000090720981
       5        0.000207650972    -0.001778262083     0.001148482815
       6        0.000005172268     0.000005980574    -0.000007799477
       7        0.000143274864     0.000074862681     0.000082520250
       8       -0.000001930660    -0.000003225436    -0.000014231936
       9       -0.000109089944    -0.000021013741     0.000097679034
      10       -0.000010753834    -0.000002427606    -0.000004118205
      11       -0.000001722533    -0.000071066478    -0.000140020312
      12        0.000014919076     0.000008251646    -0.000010318372
      13        0.000015913118     0.000050866448    -0.000005806462
      14       -0.000014806464    -0.000019720738     0.000006210446
      15       -0.000006634128    -0.000010634630     0.000008897946

  **** Optimization is complete! (in 6 steps) ****
    Final optimized geometry and variables:
    Molecular point group: c1

    Geometry (in Angstrom), charge = 0, multiplicity = 1:

    H           -3.408137843746    -1.059036992634     0.012316133405
    O           -3.124124587328    -0.161611784403     0.014751928592
    C           -1.769310216357    -0.081131378410     0.047420551917
    C           -1.001621222349    -0.624312766539    -0.974330004882
    C           -1.168759019263     0.567532167556     1.107329843375
    H           -1.487960854006    -1.114610986498    -1.795650646608
    C            0.367581579662    -0.514854749249    -0.929425312111
    H           -1.781110508031     0.977412364460     1.885425275293
    C            0.207261875427     0.682182310308     1.136821455996
    H            0.974658287710    -0.928008423425    -1.710288993202
    C            0.984766511343     0.142660089430     0.127892226247
    H            0.677857796994     1.190119851533     1.958345294012
    C            2.456525158730     0.270026976386     0.183049931919
    O            3.204613069614    -0.162309432830    -0.627592166530
    H            2.837068942110     0.810948459884     1.056072198023

  Mulliken Charges: (a.u.)
   Center  Symbol    Alpha    Beta     Spin     Total
       1     H     0.38415  0.38415  0.00000  0.23170
       2     O     4.18285  4.18285  0.00000 -0.36570
       3     C     2.86188  2.86188  0.00000  0.27624
       4     C     3.11830  3.11830  0.00000 -0.23659
       5     C     3.10703  3.10703  0.00000 -0.21406
       6     H     0.41739  0.41739  0.00000  0.16522
       7     C     3.07008  3.07008  0.00000 -0.14016
       8     H     0.41357  0.41357  0.00000  0.17286
       9     C     3.07410  3.07410  0.00000 -0.14820
      10     H     0.40695  0.40695  0.00000  0.18609
      11     C     2.99729  2.99729  0.00000  0.00542
      12     H     0.42085  0.42085  0.00000  0.15830
      13     C     2.91023  2.91023  0.00000  0.17954
      14     O     4.17593  4.17593  0.00000 -0.35186
      15     H     0.45940  0.45940  0.00000  0.08119

   Total alpha = 32.00000, Total beta = 32.00000, Total charge = -0.00000
