                              Psi4 1.0.54 Driver

  ==> Input File <==

--------------------------------------------------------------------------
set {
	reference rhf
	basis cc-pvtz
}

set_num_threads( 4 )
memory 2 gb

molecule MOL {
0 1

H	 -3.202670	 -0.443512	 1.374857
C	 -3.267237	 -0.341681	 0.282911
C	 -2.653809	 0.914422	 -0.273689
O	 -3.798813	 -1.180053	 -0.358858
C	 -1.216901	 1.136108	 0.207794
H	 -2.711399	 0.876523	 -1.353773
H	 -3.275656	 1.739998	 0.065480
C	 -0.247837	 0.040196	 -0.230469
H	 -0.872882	 2.093195	 -0.169002
H	 -1.209325	 1.218376	 1.291938
C	 1.181757	 0.280428	 0.247371
H	 -0.259600	 -0.030819	 -1.314870
H	 -0.591284	 -0.923375	 0.136958
C	 2.151032	 -0.811012	 -0.202643
H	 1.515939	 1.247397	 -0.115449
H	 1.191514	 0.341223	 1.333422
C	 3.580021	 -0.656538	 0.320835
H	 2.170545	 -0.847575	 -1.289412
H	 1.766632	 -1.772905	 0.124928
C	 4.327657	 0.562694	 -0.213579
H	 4.138806	 -1.549270	 0.057813
H	 3.561991	 -0.620783	 1.406976
H	 4.355973	 0.557257	 -1.298551
H	 3.867136	 1.491650	 0.100501
H	 5.351524	 0.571613	 0.142204

	symmetry c1
}
set optking {
	frozen_dihedral = ("
		6 3 5 8
	")
}

ee,wfn = optimize('scf', return_wfn=True)
oeprop( wfn, 'DIPOLE', 'QUADRUPOLE', 'MULLIKEN_CHARGES')
f=open( 'psi4out.xyz', 'w' )
f.write( "25  " )
f.write( str(ee) + "\n" )
f.write( MOL.save_string_xyz() )
f.close()
--------------------------------------------------------------------------

    Molecular point group: c1
  Charge       = 0
  Multiplicity = 1
  Basis Set: CC-PVTZ
  Basis Set:
  @DF-RHF Final Energy:  -387.26030887078861
    Total Energy =                       -387.2603088707883217
    Molecular point group: c1
  Basis Set: CC-PVTZ
  Basis Set:
  Basis Set: CC-PVTZ
  Basis Set:
  @DF-RHF Final Energy:  -387.26031518620601
    Total Energy =                       -387.2603151862062987
  Basis Set: CC-PVTZ
  Basis Set:
  Basis Set: CC-PVTZ
  Basis Set:
  @DF-RHF Final Energy:  -387.26011168187193
    Total Energy =                       -387.2601116818718765
  Basis Set: CC-PVTZ
  Basis Set:
  Basis Set: CC-PVTZ
  Basis Set:
  @DF-RHF Final Energy:  -387.26032555598073
    Total Energy =                       -387.2603255559807849
  Basis Set: CC-PVTZ
  Basis Set:
  Basis Set: CC-PVTZ
  Basis Set:
  @DF-RHF Final Energy:  -387.26032704019821
    Total Energy =                       -387.2603270401984901
  Basis Set: CC-PVTZ
  Basis Set:
  Charge       = 0
  Multiplicity = 1
  Basis Set: CC-PVTZ
  Basis Set:

    Orbital Energies (a.u.)
    -----------------------

    Doubly Occupied:

       1A    -20.551206     2A    -11.320984     3A    -11.233759
       4A    -11.232834     5A    -11.221930     6A    -11.217856
       7A    -11.216341     8A    -11.215137     9A    -11.208895
      10A     -1.406293    11A     -1.105479    12A     -1.071084
      13A     -1.014677    14A     -0.943558    15A     -0.876211
      16A     -0.822191    17A     -0.787681    18A     -0.781993
      19A     -0.668506    20A     -0.662708    21A     -0.635374
      22A     -0.627716    23A     -0.602474    24A     -0.596930
      25A     -0.577141    26A     -0.549702    27A     -0.537990
      28A     -0.528220    29A     -0.507740    30A     -0.497703
      31A     -0.492972    32A     -0.479380    33A     -0.465213
      34A     -0.459551    35A     -0.442878    36A     -0.411856

  @DF-RHF Final Energy:  -387.26032697111879

   => Energetics <=

    Nuclear Repulsion Energy =            439.9808130859248081
    One-Electron Energy =               -1396.5379570915893055
    Two-Electron Energy =                 569.2968170345460521
    DFT Exchange-Correlation Energy =       0.0000000000000000
    Empirical Dispersion Energy =           0.0000000000000000
    PCM Polarization Energy =               0.0000000000000000
    EFP Energy =                            0.0000000000000000
    Total Energy =                       -387.2603269711183884
    Molecular point group: c1
  Basis Set: CC-PVTZ
  Basis Set:

  -Total Gradient:
     Atom            X                  Y                   Z
    ------   -----------------  -----------------  -----------------
       1        0.000002545186     0.000005041914    -0.000070890512
       2       -0.000040769482    -0.000010461111    -0.000034427226
       3        0.000098926298    -0.001533649942     0.000304555871
       4        0.000065340390     0.000061977424     0.000066295849
       5        0.000195301842     0.000840155091    -0.000895122213
       6       -0.000150766484     0.001056569387    -0.000002821822
       7        0.000012147061    -0.000006053633     0.000013046861
       8       -0.000162106367    -0.000394164674     0.000636439640
       9       -0.000021331160    -0.000031847544     0.000002118563
      10        0.000002161995     0.000007118844    -0.000026458813
      11        0.000010211978     0.000010245683    -0.000008945069
      12        0.000009951684     0.000002493911     0.000008245910
      13       -0.000007978048     0.000007700860    -0.000005297776
      14       -0.000009827756    -0.000019881194     0.000033586322
      15        0.000026334413     0.000023944342     0.000003218054
      16       -0.000002140882    -0.000008527572    -0.000014480059
      17        0.000012134900    -0.000021113043    -0.000028656175
      18       -0.000000375052    -0.000009645225     0.000007332146
      19       -0.000009644024     0.000003066386     0.000009099599
      20       -0.000014343613     0.000004398921     0.000004180785
      21        0.000008118115     0.000002298455    -0.000011443651
      22        0.000003844275    -0.000012351956    -0.000002892932
      23        0.000005027287    -0.000007748245     0.000010601207
      24       -0.000030228455     0.000022353585    -0.000004033715
      25       -0.000002534102     0.000008079335     0.000006749155

  **** Optimization is complete! (in 6 steps) ****
    Final optimized geometry and variables:
    Molecular point group: c1

    Geometry (in Angstrom), charge = 0, multiplicity = 1:

    H           -3.220820430318    -0.443552446888     1.399409192862
    C           -3.287522764207    -0.338608057317     0.307981135434
    C           -2.662761007805     0.911704259146    -0.247348677373
    O           -3.831715287013    -1.168710055754    -0.333873804160
    C           -1.228219576678     1.132444409487     0.241146116617
    H           -2.716700332806     0.880388414779    -1.327848002481
    H           -3.282080827528     1.741124683376     0.088030000340
    C           -0.253345852388     0.042188145212    -0.198607045937
    H           -0.886908614413     2.094430078870    -0.125132524096
    H           -1.225705901320     1.204015507654     1.326005187938
    C            1.175950182591     0.293065517663     0.274596973717
    H           -0.267563765954    -0.032299698432    -1.282839528268
    H           -0.588767700784    -0.922712085487     0.172551788758
    C            2.150232118072    -0.795754502096    -0.170862611124
    H            1.503944049063     1.259642316041    -0.094798809109
    H            1.187712037900     0.360513898572     1.360242540507
    C            3.579383915880    -0.629821675960     0.348511061973
    H            2.167654288928    -0.838777521722    -1.257408573366
    H            1.772005122945    -1.757826793972     0.163365572078
    C            4.316427634403     0.593884828264    -0.190376056279
    H            4.144050510976    -1.518966423928     0.085872267834
    H            3.563860740448    -0.591891201263     1.434615709413
    H            4.342635005578     0.585917774133    -1.275370616878
    H            3.849294000574     1.520033016364     0.122298040166
    H            5.340890996472     0.611655796954     0.163347889102

  Mulliken Charges: (a.u.)
   Center  Symbol    Alpha    Beta     Spin     Total
       1     H     0.46357  0.46357  0.00000  0.07287
       2     C     2.90476  2.90476  0.00000  0.19048
       3     C     3.08972  3.08972  0.00000 -0.17944
       4     O     4.16664  4.16664  0.00000 -0.33328
       5     C     3.11572  3.11572  0.00000 -0.23144
       6     H     0.44236  0.44236  0.00000  0.11527
       7     H     0.44100  0.44100  0.00000  0.11800
       8     C     3.09049  3.09049  0.00000 -0.18099
       9     H     0.44296  0.44296  0.00000  0.11407
      10     H     0.44970  0.44970  0.00000  0.10061
      11     C     3.09329  3.09329  0.00000 -0.18657
      12     H     0.44930  0.44930  0.00000  0.10140
      13     H     0.44801  0.44801  0.00000  0.10399
      14     C     3.09558  3.09558  0.00000 -0.19115
      15     H     0.45125  0.45125  0.00000  0.09750
      16     H     0.45429  0.45429  0.00000  0.09143
      17     C     3.09079  3.09079  0.00000 -0.18158
      18     H     0.45283  0.45283  0.00000  0.09434
      19     H     0.44797  0.44797  0.00000  0.10406
      20     C     3.15273  3.15273  0.00000 -0.30545
      21     H     0.44763  0.44763  0.00000  0.10475
      22     H     0.45472  0.45472  0.00000  0.09057
      23     H     0.45447  0.45447  0.00000  0.09107
      24     H     0.45438  0.45438  0.00000  0.09123
      25     H     0.44587  0.44587  0.00000  0.10827

   Total alpha = 36.00000, Total beta = 36.00000, Total charge =  0.00000

*** Psi4 exiting successfully. Buy a developer a beer!
