                              Psi4 1.0.54 Driver

  ==> Input File <==

--------------------------------------------------------------------------
set {
	reference rhf
	basis cc-pvtz
}

set_num_threads( 4 )
memory 2 gb

molecule MOL {
0 1

H	 2.927771	 1.465131	 -0.935266
C	 2.214341	 1.287668	 -0.141034
C	 1.322304	 0.099773	 -0.484271
H	 2.771520	 1.111321	 0.772106
H	 1.632252	 2.192783	 -0.009586
C	 0.308557	 -0.162619	 0.622645
H	 1.923852	 -0.789271	 -0.627363
H	 0.791244	 0.287281	 -1.409340
N	 -1.069352	 -0.004081	 0.085342
H	 0.371632	 -1.172932	 0.991288
H	 0.400391	 0.548875	 1.426218
O	 -1.584901	 -0.965470	 -0.377818
O	 -1.548033	 1.079343	 0.130056

	symmetry c1
}
set optking {
	frozen_dihedral = ("
		7 3 6 9
	")
}

ee,wfn = optimize('scf', return_wfn=True)
oeprop( wfn, 'DIPOLE', 'QUADRUPOLE', 'MULLIKEN_CHARGES')
f=open( 'psi4out.xyz', 'w' )
f.write( "13  " )
f.write( str(ee) + "\n" )
f.write( MOL.save_string_xyz() )
f.close()
--------------------------------------------------------------------------

    Molecular point group: c1
  Charge       = 0
  Multiplicity = 1
  Basis Set: CC-PVTZ
  Basis Set:
  @DF-RHF Final Energy:  -321.85556941508025
    Total Energy =                       -321.8555694150804243
    Molecular point group: c1
  Basis Set: CC-PVTZ
  Basis Set:
  Basis Set: CC-PVTZ
  Basis Set:
  @DF-RHF Final Energy:  -321.85299493806025
    Total Energy =                       -321.8529949380601920
  Basis Set: CC-PVTZ
  Basis Set:
  Basis Set: CC-PVTZ
  Basis Set:
  @DF-RHF Final Energy:  -321.84620357173475
    Total Energy =                       -321.8462035717348044
  Basis Set: CC-PVTZ
  Basis Set:
  Basis Set: CC-PVTZ
  Basis Set:
  @DF-RHF Final Energy:  -321.85582542829178
    Total Energy =                       -321.8558254282916096
  Basis Set: CC-PVTZ
  Basis Set:
  @DF-RHF Final Energy:  -321.85595971902978
    Total Energy =                       -321.8559597190297836
  @DF-RHF Final Energy:  -321.85607901889648
    Total Energy =                       -321.8560790188965939
  Basis Set: CC-PVTZ
  Basis Set:
  @DF-RHF Final Energy:  -321.85608674949867
    Total Energy =                       -321.8560867494987292
  Basis Set: CC-PVTZ
  Basis Set:
  Basis Set: CC-PVTZ
  Basis Set:
  @DF-RHF Final Energy:  -321.85609259870250
    Total Energy =                       -321.8560925987021619
  Basis Set: CC-PVTZ
  Basis Set:
  Basis Set: CC-PVTZ
  Basis Set:
  @DF-RHF Final Energy:  -321.85609573629620
    Total Energy =                       -321.8560957362960835
  Basis Set: CC-PVTZ
  Basis Set:
  Charge       = 0
  Multiplicity = 1
  Basis Set: CC-PVTZ
  Basis Set:

    Orbital Energies (a.u.)
    -----------------------

    Doubly Occupied:

       1A    -20.591756     2A    -20.589279     3A    -15.837016
       4A    -11.297452     5A    -11.255310     6A    -11.232421
       7A     -1.636190     8A     -1.420377     9A     -1.131166
      10A     -1.026142    11A     -0.885215    12A     -0.833795
      13A     -0.763142    14A     -0.737632    15A     -0.727192
      16A     -0.657571    17A     -0.617451    18A     -0.591527
      19A     -0.537343    20A     -0.520528    21A     -0.515205
      22A     -0.484070    23A     -0.474335    24A     -0.454294

  @DF-RHF Final Energy:  -321.85609666820062

   => Energetics <=

    Nuclear Repulsion Energy =            249.3738153142828651
    One-Electron Energy =                -932.8269979837722303
    Two-Electron Energy =                 361.5970860012886874
    DFT Exchange-Correlation Energy =       0.0000000000000000
    Empirical Dispersion Energy =           0.0000000000000000
    PCM Polarization Energy =               0.0000000000000000
    EFP Energy =                            0.0000000000000000
    Total Energy =                       -321.8560966682006779
    Molecular point group: c1
  Basis Set: CC-PVTZ
  Basis Set:

  -Total Gradient:
     Atom            X                  Y                   Z
    ------   -----------------  -----------------  -----------------
       1        0.000003131634     0.000003804235     0.000000239159
       2       -0.000000859387    -0.000007161837    -0.000011107777
       3        0.000543515642     0.000081231015     0.000551501648
       4       -0.000003718395    -0.000003684234    -0.000000824584
       5       -0.000003269478    -0.000003279826    -0.000000811737
       6       -0.000129677213     0.000557461019     0.000131214906
       7       -0.000434536854    -0.000186360947    -0.000500114025
       8        0.000005356898    -0.000000386822    -0.000003061576
       9        0.000054596953    -0.000246507265    -0.000102920808
      10       -0.000005482332     0.000013383067    -0.000000759619
      11        0.000006217844     0.000017770338    -0.000011055582
      12       -0.000056376049    -0.000043697321    -0.000052836499
      13        0.000021100736    -0.000182571423     0.000000536496

  **** Optimization is complete! (in 10 steps) ****
    Final optimized geometry and variables:
    Molecular point group: c1

    Geometry (in Angstrom), charge = 0, multiplicity = 1:

    H            3.063439167089     1.273797271627    -0.779883211737
    C            2.328812467835     1.066226114875    -0.011962510247
    C            1.434052550940    -0.095825923539    -0.427006043324
    H            2.862079049166     0.842524314535     0.905567457111
    H            1.744815758627     1.964424496535     0.147772984521
    C            0.374796698411    -0.446740299025     0.635659493726
    H            2.030509722850    -0.977395196560    -0.621164409999
    H            0.937464295308     0.144165997732    -1.358242540779
    N           -0.989115087275    -0.236851984321     0.082721823315
    H            0.414074932791    -1.479766819130     0.931757617328
    H            0.439798343710     0.196746035765     1.496977474515
    O           -1.561721644811    -1.184855048126    -0.337683450101
    O           -1.400682214379     0.875561043984     0.072155787951

  Mulliken Charges: (a.u.)
   Center  Symbol    Alpha    Beta     Spin     Total
       1     H     0.44530  0.44530  0.00000  0.10940
       2     C     3.14879  3.14879  0.00000 -0.29758
       3     C     3.08925  3.08925  0.00000 -0.17849
       4     H     0.45395  0.45395  0.00000  0.09210
       5     H     0.44470  0.44470  0.00000  0.11060
       6     C     3.04415  3.04415  0.00000 -0.08831
       7     H     0.44288  0.44288  0.00000  0.11424
       8     H     0.44057  0.44057  0.00000  0.11885
       9     N     3.27871  3.27871  0.00000  0.44259
      10     H     0.42963  0.42963  0.00000  0.14075
      11     H     0.43628  0.43628  0.00000  0.12743
      12     O     4.17048  4.17048  0.00000 -0.34096
      13     O     4.17531  4.17531  0.00000 -0.35062

   Total alpha = 24.00000, Total beta = 24.00000, Total charge =  0.00000

*** Psi4 exiting successfully. Buy a developer a beer!
