                              Psi4 1.0.54 Driver

  ==> Input File <==

--------------------------------------------------------------------------
set {
	reference rhf
	basis cc-pvtz
}

set_num_threads( 4 )
memory 2 gb

molecule MOL {
0 1

H	 -3.162190	 0.493205	 -0.000107
C	 -2.363908	 -0.234727	 0.000005
O	 -1.158738	 0.454634	 -0.000087
H	 -2.464314	 -0.863616	 -0.882153
H	 -2.464327	 -0.863359	 0.882345
C	 -0.028611	 -0.359694	 0.000037
C	 1.212847	 0.509314	 -0.000053
H	 -0.034155	 -1.007047	 -0.877198
H	 -0.034195	 -1.006836	 0.877430
C	 2.242443	 0.053767	 -1.028041
H	 0.917186	 1.534018	 -0.196248
H	 1.645515	 0.493609	 0.994182
H	 1.837332	 0.085033	 -2.034020
H	 3.117777	 0.691226	 -1.006682
H	 2.570746	 -0.962205	 -0.835465

	symmetry c1
}
set optking {
	frozen_dihedral = ("
		11 7 6 8
	")
}

ee,wfn = optimize('scf', return_wfn=True)
oeprop( wfn, 'DIPOLE', 'QUADRUPOLE', 'MULLIKEN_CHARGES')
f=open( 'psi4out.xyz', 'w' )
f.write( "15  " )
f.write( str(ee) + "\n" )
f.write( MOL.save_string_xyz() )
f.close()
--------------------------------------------------------------------------

    Molecular point group: c1
  Charge       = 0
  Multiplicity = 1
  Basis Set: CC-PVTZ
  Basis Set:
  @DF-RHF Final Energy:  -232.22270767738598
    Total Energy =                       -232.2227076773859267
    Molecular point group: c1
  Basis Set: CC-PVTZ
  Basis Set:
  Basis Set: CC-PVTZ
  Basis Set:
  @DF-RHF Final Energy:  -232.22305423458172
    Total Energy =                       -232.2230542345816957
  Basis Set: CC-PVTZ
  Basis Set:
  Basis Set: CC-PVTZ
  Basis Set:
  @DF-RHF Final Energy:  -232.22315039792954
    Total Energy =                       -232.2231503979294303
  Basis Set: CC-PVTZ
  Basis Set:
  Basis Set: CC-PVTZ
  Basis Set:
  @DF-RHF Final Energy:  -232.22315214869332
    Total Energy =                       -232.2231521486934867
  Basis Set: CC-PVTZ
  Basis Set:
  Charge       = 0
  Multiplicity = 1
  Basis Set: CC-PVTZ
  Basis Set:

    Orbital Energies (a.u.)
    -----------------------

    Doubly Occupied:

       1A    -20.548298     2A    -11.264616     3A    -11.261733
       4A    -11.212456     5A    -11.209714     6A     -1.381980
       7A     -1.055085     8A     -0.955610     9A     -0.878714
      10A     -0.809839    11A     -0.672848    12A     -0.658665
      13A     -0.633647    14A     -0.598686    15A     -0.570103
      16A     -0.544989    17A     -0.497454    18A     -0.490998
      19A     -0.478116    20A     -0.462642    21A     -0.414221

  @DF-RHF Final Energy:  -232.22315250225606

   => Energetics <=

    Nuclear Repulsion Energy =            189.9705089261108526
    One-Electron Energy =                -691.1864961803885308
    Two-Electron Energy =                 268.9928347520214515
    DFT Exchange-Correlation Energy =       0.0000000000000000
    Empirical Dispersion Energy =           0.0000000000000000
    PCM Polarization Energy =               0.0000000000000000
    EFP Energy =                            0.0000000000000000
    Total Energy =                       -232.2231525022562550
    Molecular point group: c1
  Basis Set: CC-PVTZ
  Basis Set:

  -Total Gradient:
     Atom            X                  Y                   Z
    ------   -----------------  -----------------  -----------------
       1       -0.000013927803    -0.000007015275    -0.000001579250
       2       -0.000010520517     0.000003156197     0.000001807415
       3        0.000023368312    -0.000010748025     0.000000714763
       4       -0.000007725003     0.000000220935     0.000001520255
       5       -0.000007100872    -0.000000226716    -0.000002074331
       6       -0.001889509914     0.002864957463    -0.001354067396
       7        0.000813715864    -0.001143694433    -0.003337476885
       8        0.001505736039    -0.002209652401     0.001630433842
       9       -0.000027144819     0.000020118524     0.000000881922
      10        0.000000568981     0.000003796116    -0.000014852036
      11       -0.000360203084     0.000490384223     0.003052893227
      12       -0.000013683263    -0.000018585397     0.000001223413
      13        0.000002537477     0.000001943028     0.000009600698
      14       -0.000004450914    -0.000000289607     0.000006877417
      15       -0.000011660483     0.000005635371     0.000004096943

  **** Optimization is complete! (in 5 steps) ****
    Final optimized geometry and variables:
    Molecular point group: c1

    Geometry (in Angstrom), charge = 0, multiplicity = 1:

    H           -3.125403454103     0.414341230895     0.238385767387
    C           -2.324591582722    -0.310944156270     0.234728123977
    O           -1.122081726810     0.381872337939     0.199038747712
    H           -2.440363697296    -0.955046223504    -0.634598957145
    H           -2.405139536688    -0.925357285004     1.129077913992
    C            0.009230226811    -0.431992145950     0.182428573246
    C            1.270172909276     0.434473113383     0.193971746376
    H           -0.001334451396    -1.079451084726    -0.693931093828
    H           -0.004166374351    -1.093659719931     1.047722933869
    C            2.331054332059    -0.019704494431    -0.801442526095
    H            0.969266798456     1.455658515926    -0.002719406511
    H            1.693729156720     0.440057920837     1.192689894880
    H            1.958428003005     0.030305285745    -1.818748142037
    H            3.215231272880     0.603553015718    -0.738960377568
    H            2.637418753937    -1.043556392782    -0.611770721708

  Mulliken Charges: (a.u.)
   Center  Symbol    Alpha    Beta     Spin     Total
       1     H     0.44691  0.44691  0.00000  0.10617
       2     C     3.02959  3.02959  0.00000 -0.05919
       3     O     4.17115  4.17115  0.00000 -0.34229
       4     H     0.47300  0.47300  0.00000  0.05400
       5     H     0.47185  0.47185  0.00000  0.05630
       6     C     2.96160  2.96160  0.00000  0.07680
       7     C     3.08637  3.08637  0.00000 -0.17274
       8     H     0.47510  0.47510  0.00000  0.04980
       9     H     0.47491  0.47491  0.00000  0.05018
      10     C     3.15257  3.15257  0.00000 -0.30515
      11     H     0.44493  0.44493  0.00000  0.11013
      12     H     0.45383  0.45383  0.00000  0.09235
      13     H     0.45337  0.45337  0.00000  0.09325
      14     H     0.44842  0.44842  0.00000  0.10315
      15     H     0.45638  0.45638  0.00000  0.08724

   Total alpha = 21.00000, Total beta = 21.00000, Total charge = -0.00000

*** Psi4 exiting successfully. Buy a developer a beer!
