  ==> Input File <==

--------------------------------------------------------------------------
set {
	reference rhf
	basis 6-31G*
}

set_num_threads( 4 )
memory 2 gb

molecule MOL {
0 1

H	 1.967364	 -1.461818	 -0.146590
O	 1.654024	 -0.625927	 -0.460906
C	 1.135793	 0.118896	 0.612333
C	 0.031547	 1.023609	 0.088541
H	 1.915668	 0.729681	 1.063582
H	 0.754543	 -0.542641	 1.387006
C	 -1.134819	 0.293262	 -0.585751
H	 0.474374	 1.714721	 -0.623187
H	 -0.338529	 1.620940	 0.920081
C	 -1.917817	 -0.639439	 0.339494
H	 -0.758119	 -0.268455	 -1.433105
H	 -1.813832	 1.041889	 -0.986690
H	 -2.777680	 -1.057197	 -0.174994
H	 -1.310268	 -1.471279	 0.680599
H	 -2.283753	 -0.111424	 1.216626

	symmetry c1
}
set optking {
	frozen_dihedral = ("
		1 2 3 4
	")
}

ee = optimize('scf')
oeprop('DIPOLE', 'QUADRUPOLE', 'MULLIKEN_CHARGES')
f=open( 'psi4out.xyz', 'w' )
f.write( "15  " )
f.write( str(ee) + "\n" )
f.write( MOL.save_string_xyz() )
f.close()
--------------------------------------------------------------------------

    Molecular point group: c1
  Charge       = 0
  Multiplicity = 1
  Basis Set: 6-31G*
  Basis Set:
  @DF-RHF Final Energy:  -232.14290115231333
    Total Energy =                       -232.1429011523131294
    Molecular point group: c1
  Basis Set: 6-31G*
  Basis Set:
  Basis Set: 6-31G*
  Basis Set:
  @DF-RHF Final Energy:  -232.14295086905523
    Total Energy =                       -232.1429508690552552
  Basis Set: 6-31G*
  Basis Set:
  Basis Set: 6-31G*
  Basis Set:
  @DF-RHF Final Energy:  -232.14297365855347
    Total Energy =                       -232.1429736585535011
  Basis Set: 6-31G*
  Basis Set:
  Basis Set: 6-31G*
  Basis Set:
  @DF-RHF Final Energy:  -232.14297230673253
    Total Energy =                       -232.1429723067324176
  Basis Set: 6-31G*
  Basis Set:
  Basis Set: 6-31G*
  Basis Set:
  @DF-RHF Final Energy:  -232.14297419073699
    Total Energy =                       -232.1429741907371636
  Basis Set: 6-31G*
  Basis Set:
  Charge       = 0
  Multiplicity = 1
  Basis Set: 6-31G*
  Basis Set:

    Orbital Energies (a.u.)
    -----------------------

    Doubly Occupied:

       1A    -20.552789     2A    -11.267703     3A    -11.212252
       4A    -11.209906     5A    -11.207400     6A     -1.359129
       7A     -1.064529     8A     -0.971290     9A     -0.869966
      10A     -0.775377    11A     -0.704645    12A     -0.647748
      13A     -0.607546    14A     -0.576805    15A     -0.562096
      16A     -0.534539    17A     -0.508215    18A     -0.476377
      19A     -0.468123    20A     -0.453883    21A     -0.428939

  @DF-RHF Final Energy:  -232.14297480312212

   => Energetics <=

    Nuclear Repulsion Energy =            191.6184964498451109
    One-Electron Energy =                -694.6044290589375123
    Two-Electron Energy =                 270.8429578059700589
    DFT Exchange-Correlation Energy =       0.0000000000000000
    Empirical Dispersion Energy =           0.0000000000000000
    PCM Polarization Energy =               0.0000000000000000
    EFP Energy =                            0.0000000000000000
    Total Energy =                       -232.1429748031223426
    Molecular point group: c1
  Basis Set: 6-31G*
  Basis Set:

  -Total Gradient:
     Atom            X                  Y                   Z
    ------   -----------------  -----------------  -----------------
       1       -0.001523482015    -0.000710283625    -0.000328691618
       2        0.001623913800     0.000590544717     0.000465028150
       3        0.000606169843     0.000889026676    -0.000296695516
       4       -0.000696775640    -0.000775898570     0.000152892958
       5       -0.000003229425     0.000003635285     0.000002663837
       6        0.000001804108    -0.000005444723     0.000005223294
       7        0.000000102522     0.000003397381     0.000004279150
       8       -0.000002543769     0.000001519403    -0.000000422642
       9       -0.000006750282     0.000003757104    -0.000002511860
      10       -0.000001739196     0.000000514092    -0.000000510586
      11        0.000002271165     0.000002003669    -0.000001315291
      12       -0.000000067490    -0.000003086117     0.000000772407
      13        0.000001083090    -0.000000397237    -0.000000037985
      14       -0.000000360715     0.000000105865    -0.000000763078
      15       -0.000000395997     0.000000606081     0.000000088780

  **** Optimization is complete! (in 6 steps) ****
    Final optimized geometry and variables:
    Molecular point group: c1

    Geometry (in Angstrom), charge = 0, multiplicity = 1:

    H            2.021538415829    -1.435036142068    -0.179256838558
    O            1.697901483999    -0.596809364396    -0.473082881727
    C            1.139819153429     0.111726539385     0.607333620754
    C            0.027936688938     1.013985517312     0.093240566210
    H            1.904956645809     0.715237216440     1.090312656535
    H            0.753493511937    -0.575450519633     1.355591359515
    C           -1.136451012160     0.281980565294    -0.581532223506
    H            0.465342826628     1.710855288694    -0.616516443745
    H           -0.341268153101     1.607622096937     0.928094907779
    C           -1.940649346443    -0.626536177652     0.350204279012
    H           -0.753409778999    -0.296844007016    -1.414777178106
    H           -1.805145603342     1.027710505866    -1.004193859910
    H           -2.794268070089    -1.050710701092    -0.169396407783
    H           -1.346255197308    -1.455317536002     0.721855733304
    H           -2.317675232194    -0.077364453185     1.209220092222

  Mulliken Charges: (a.u.)
   Center  Symbol    Alpha    Beta     Spin     Total
       1     H     0.27990  0.27990  0.00000  0.44020
       2     O     4.37095  4.37095  0.00000 -0.74191
       3     C     2.99914  2.99914  0.00000  0.00173
       4     C     3.16039  3.16039  0.00000 -0.32078
       5     H     0.42591  0.42591  0.00000  0.14818
       6     H     0.43132  0.43132  0.00000  0.13736
       7     C     3.15473  3.15473  0.00000 -0.30946
       8     H     0.41365  0.41365  0.00000  0.17269
       9     H     0.42517  0.42517  0.00000  0.14967
      10     C     3.24250  3.24250  0.00000 -0.48499
      11     H     0.40864  0.40864  0.00000  0.18272
      12     H     0.42203  0.42203  0.00000  0.15594
      13     H     0.41850  0.41850  0.00000  0.16300
      14     H     0.42343  0.42343  0.00000  0.15314
      15     H     0.42375  0.42375  0.00000  0.15250

   Total alpha = 21.00000, Total beta = 21.00000, Total charge = -0.00000
