  ==> Input File <==

--------------------------------------------------------------------------
set {
	reference rhf
	basis cc-pvtz
}

set_num_threads( 4 )
memory 2 gb

molecule MOL {
0 1

O	 0.096893	 1.226027	 0.276514
C	 0.029490	 0.077183	 0.000078
C	 -1.232113	 -0.748027	 0.000015
O	 1.078560	 -0.646922	 -0.352564
C	 -2.501422	 0.088592	 -0.000052
H	 -1.188777	 -1.400384	 -0.865133
H	 -1.188857	 -1.400312	 0.865225
H	 -2.548170	 0.725504	 -0.873205
H	 -3.371613	 -0.556398	 -0.000040
H	 -2.548215	 0.725571	 0.873047
C	 2.332123	 0.004568	 -0.394783
H	 2.316313	 0.815808	 -1.107436
H	 3.046449	 -0.743462	 -0.698124
H	 2.591587	 0.395132	 0.578039

	symmetry c1
}
set optking {
	frozen_dihedral = ("
		4 2 3 6
	")
}

ee = optimize('scf')
oeprop('DIPOLE', 'QUADRUPOLE', 'MULLIKEN_CHARGES')
f=open( 'psi4out.xyz', 'w' )
f.write( "14  " )
f.write( str(ee) + "\n" )
f.write( MOL.save_string_xyz() )
f.close()
--------------------------------------------------------------------------

    Molecular point group: c1
  Charge       = 0
  Multiplicity = 1
  Basis Set: CC-PVTZ
  Basis Set:
  @DF-RHF Final Energy:  -305.98737371333971
    Total Energy =                       -305.9873737133398208
    Molecular point group: c1
  Basis Set: CC-PVTZ
  Basis Set:
  Basis Set: CC-PVTZ
  Basis Set:
  @DF-RHF Final Energy:  -305.98738974506239
    Total Energy =                       -305.9873897450623872
  Basis Set: CC-PVTZ
  Basis Set:
  Basis Set: CC-PVTZ
  Basis Set:
  @DF-RHF Final Energy:  -305.98736596835363
    Total Energy =                       -305.9873659683534584
  Basis Set: CC-PVTZ
  Basis Set:
  Basis Set: CC-PVTZ
  Basis Set:
  @DF-RHF Final Energy:  -305.98747236642532
    Total Energy =                       -305.9874723664250951
  Basis Set: CC-PVTZ
  Basis Set:
  Charge       = 0
  Multiplicity = 1
  Basis Set: CC-PVTZ
  Basis Set:

    Orbital Energies (a.u.)
    -----------------------

    Doubly Occupied:

       1A    -20.597648     2A    -20.534510     3A    -11.365238
       4A    -11.279162     5A    -11.237100     6A    -11.215436
       7A     -1.473225     8A     -1.366595     9A     -1.065430
      10A     -0.981310    11A     -0.879254    12A     -0.771428
      13A     -0.702745    14A     -0.685891    15A     -0.675521
      16A     -0.621280    17A     -0.604104    18A     -0.548085
      19A     -0.538728    20A     -0.522107    21A     -0.516169
      22A     -0.496837    23A     -0.461408    24A     -0.442241

  @DF-RHF Final Energy:  -305.98747286112723

   => Energetics <=

    Nuclear Repulsion Energy =            247.5571278599637708
    One-Electron Energy =                -907.9263001366612116
    Two-Electron Energy =                 354.3816994155704378
    DFT Exchange-Correlation Energy =       0.0000000000000000
    Empirical Dispersion Energy =           0.0000000000000000
    PCM Polarization Energy =               0.0000000000000000
    EFP Energy =                            0.0000000000000000
    Total Energy =                       -305.9874728611270029
    Molecular point group: c1
  Basis Set: CC-PVTZ
  Basis Set:

  -Total Gradient:
     Atom            X                  Y                   Z
    ------   -----------------  -----------------  -----------------
       1        0.000001783020    -0.000036689528    -0.000017418184
       2        0.000201896548    -0.000275267698     0.001006651883
       3       -0.000506803285     0.000774249790    -0.000756429371
       4       -0.000089456319     0.000144318103    -0.000707563720
       5        0.000014286660    -0.000008347246    -0.000025409404
       6        0.000379561290    -0.000570707143     0.000459466645
       7        0.000004630530    -0.000012561511     0.000004677940
       8       -0.000003066830     0.000003019176     0.000000359312
       9        0.000001340413    -0.000001508052     0.000000860497
      10        0.000010440677    -0.000007229655     0.000002832146
      11       -0.000018163181    -0.000018375151     0.000051977716
      12       -0.000015240391    -0.000001457653    -0.000007017700
      13        0.000000931504     0.000001968702    -0.000006906728
      14        0.000017859366     0.000008587871    -0.000006081033

  **** Optimization is complete! (in 5 steps) ****
    Final optimized geometry and variables:
    Molecular point group: c1

    Geometry (in Angstrom), charge = 0, multiplicity = 1:

    O            0.098831317438     1.216933074607     0.342521492522
    C            0.034622749963     0.068156589718     0.064368669311
    C           -1.225737983153    -0.759013528257     0.073239489337
    O            1.086867208346    -0.654160032461    -0.281654141042
    C           -2.495738310410     0.076776691176     0.102544628046
    H           -1.197867736581    -1.425185590811    -0.779543273165
    H           -1.165103523621    -1.397395115996     0.949835653724
    H           -2.570897303825     0.702892171473    -0.777454730933
    H           -3.365002235269    -0.568500078856     0.134923028418
    H           -2.514558419240     0.723274337616     0.968685931945
    C            2.343512447649    -0.007064616708    -0.288760761307
    H            2.344203205396     0.815321010556    -0.988535164085
    H            3.060668352083    -0.753166569137    -0.590147622023
    H            2.585593909897     0.367008746227     0.694993964162

  Mulliken Charges: (a.u.)
   Center  Symbol    Alpha    Beta     Spin     Total
       1     O     4.19730  4.19730  0.00000 -0.39461
       2     C     2.80385  2.80385  0.00000  0.39230
       3     C     3.09287  3.09287  0.00000 -0.18573
       4     O     4.14652  4.14652  0.00000 -0.29303
       5     C     3.14039  3.14039  0.00000 -0.28078
       6     H     0.43923  0.43923  0.00000  0.12154
       7     H     0.44381  0.44381  0.00000  0.11237
       8     H     0.45108  0.45108  0.00000  0.09783
       9     H     0.45020  0.45020  0.00000  0.09959
      10     H     0.44505  0.44505  0.00000  0.10991
      11     C     3.03566  3.03566  0.00000 -0.07132
      12     H     0.45417  0.45417  0.00000  0.09167
      13     H     0.44540  0.44540  0.00000  0.10921
      14     H     0.45448  0.45448  0.00000  0.09105

   Total alpha = 24.00000, Total beta = 24.00000, Total charge = -0.00000
