  ==> Input File <==

--------------------------------------------------------------------------
set {
	reference rhf
	basis 6-31G*
}

set_num_threads( 4 )
memory 2 gb

molecule MOL {
0 1

O	 -1.034368	 -1.123335	 2.064358
C	 -1.721325	 -1.159522	 1.094102
C	 -2.958981	 -2.010849	 0.972781
O	 -1.481751	 -0.454642	 0.000584
H	 -3.649272	 -1.735576	 1.761188
H	 -3.435274	 -1.894629	 0.010453
H	 -2.684275	 -3.047787	 1.125024
C	 -0.334255	 0.388708	 0.000906
C	 0.891947	 -0.504646	 0.000751
H	 -0.365390	 1.025305	 -0.873475
H	 -0.365484	 1.024911	 0.875569
C	 2.191998	 0.301789	 0.000897
H	 0.855148	 -1.151283	 -0.871571
H	 0.855132	 -1.151660	 0.872805
C	 3.441114	 -0.581407	 0.000108
H	 2.215074	 0.954890	 -0.869742
H	 2.215465	 0.953923	 0.872248
C	 4.739576	 0.224112	 -0.001102
H	 3.419457	 -1.233487	 -0.870178
H	 3.420834	 -1.233096	 0.870717
H	 4.804918	 0.861552	 -0.878265
H	 5.606527	 -0.429058	 -0.001824
H	 4.806469	 0.861674	 0.875853

	symmetry c1
}
set optking {
	frozen_dihedral = ("
		2 4 8 10
	")
}

ee = optimize('scf')
oeprop('DIPOLE', 'QUADRUPOLE', 'MULLIKEN_CHARGES')
f=open( 'psi4out.xyz', 'w' )
f.write( "23  " )
f.write( str(ee) + "\n" )
f.write( MOL.save_string_xyz() )
f.close()
--------------------------------------------------------------------------

    Molecular point group: c1
  Charge       = 0
  Multiplicity = 1
  Basis Set: 6-31G*
  Basis Set:
  @DF-RHF Final Energy:  -422.97398082486308
    Total Energy =                       -422.9739808248630197
    Molecular point group: c1
  Basis Set: 6-31G*
  Basis Set:
  Basis Set: 6-31G*
  Basis Set:
  @DF-RHF Final Energy:  -422.97759464523602
    Total Energy =                       -422.9775946452361950
  Basis Set: 6-31G*
  Basis Set:
  Basis Set: 6-31G*
  Basis Set:
  @DF-RHF Final Energy:  -422.97800632129253
    Total Energy =                       -422.9780063212926962
  Basis Set: 6-31G*
  Basis Set:
  Basis Set: 6-31G*
  Basis Set:
  @DF-RHF Final Energy:  -422.97793112162009
    Total Energy =                       -422.9779311216194628
  Basis Set: 6-31G*
  Basis Set:
  Basis Set: 6-31G*
  Basis Set:
  @DF-RHF Final Energy:  -422.97801402146314
    Total Energy =                       -422.9780140214634230
  Basis Set: 6-31G*
  Basis Set:
  Basis Set: 6-31G*
  Basis Set:
  @DF-RHF Final Energy:  -422.97802637953271
    Total Energy =                       -422.9780263795330484
  Basis Set: 6-31G*
  Basis Set:
  Charge       = 0
  Multiplicity = 1
  Basis Set: 6-31G*
  Basis Set:

    Orbital Energies (a.u.)
    -----------------------

    Doubly Occupied:

       1A    -20.603003     2A    -20.540858     3A    -11.375327
       4A    -11.282902     5A    -11.232288     6A    -11.221382
       7A    -11.218858     8A    -11.218292     9A    -11.210847
      10A     -1.467027    11A     -1.361215    12A     -1.090673
      13A     -1.040296    14A     -1.001893    15A     -0.931130
      16A     -0.852352    17A     -0.798390    18A     -0.760826
      19A     -0.699743    20A     -0.677619    21A     -0.657565
      22A     -0.648419    23A     -0.604702    24A     -0.589682
      25A     -0.582505    26A     -0.571877    27A     -0.550733
      28A     -0.538656    29A     -0.521156    30A     -0.514036
      31A     -0.486126    32A     -0.475111    33A     -0.473006
      34A     -0.468300    35A     -0.438033    36A     -0.434014

  @DF-RHF Final Energy:  -422.97802669162110

   => Energetics <=

    Nuclear Repulsion Energy =            457.9431541363263136
    One-Electron Energy =               -1483.5646732209709171
    Two-Electron Energy =                 602.6434923930235072
    DFT Exchange-Correlation Energy =       0.0000000000000000
    Empirical Dispersion Energy =           0.0000000000000000
    PCM Polarization Energy =               0.0000000000000000
    EFP Energy =                            0.0000000000000000
    Total Energy =                       -422.9780266916211531
    Molecular point group: c1
  Basis Set: 6-31G*
  Basis Set:

  -Total Gradient:
     Atom            X                  Y                   Z
    ------   -----------------  -----------------  -----------------
       1       -0.000003777644    -0.000044914494     0.000021796853
       2        0.001599005160    -0.002440541221    -0.001084412077
       3        0.000052621122    -0.000023307919     0.000019573494
       4       -0.002079475669     0.003013718633     0.001142331328
       5       -0.000036519600     0.000024226414    -0.000009166017
       6        0.000016798056     0.000022194324     0.000004648503
       7       -0.000001433123     0.000020953796     0.000034677528
       8       -0.001166471729     0.001807145099     0.001597222333
       9        0.000032723616    -0.000003501453     0.000127928221
      10        0.001660046966    -0.002452935386    -0.001686757595
      11        0.000022072527     0.000023429452    -0.000016333267
      12        0.000008754279     0.000008867184    -0.000034227913
      13       -0.000011066899     0.000023949357    -0.000049429709
      14        0.000007795652     0.000038800322    -0.000063954537
      15       -0.000031330465    -0.000031867583     0.000024092120
      16        0.000010763120     0.000012070506    -0.000037829427
      17       -0.000021751222    -0.000002516502    -0.000013289832
      18       -0.000045479093     0.000025553178     0.000014329078
      19        0.000004468855     0.000006534846    -0.000004919798
      20        0.000001503809    -0.000020589428     0.000008836425
      21       -0.000003437573     0.000002815090    -0.000000002731
      22       -0.000022996631    -0.000014119332     0.000000743838
      23        0.000007186483     0.000004035119     0.000004143177

  **** Optimization is complete! (in 7 steps) ****
    Final optimized geometry and variables:
    Molecular point group: c1

    Geometry (in Angstrom), charge = 0, multiplicity = 1:

    O           -1.637245896651    -0.586768155533     1.675061745436
    C           -2.224308189274    -0.607141483959     0.640348102285
    C           -3.472687628748    -1.418087467481     0.404865966470
    O           -1.867966018612     0.088818420344    -0.426846233366
    H           -4.219798535757    -1.125603331022     1.132882041865
    H           -3.859157182074    -1.282286958060    -0.594345690719
    H           -3.244092949074    -2.463974335602     0.572215605568
    C           -0.666257925279     0.855430756886    -0.377502716954
    C            0.586729339243    -0.009707059722    -0.398940105474
    H           -0.702585737533     1.453132930593    -1.277325347627
    H           -0.690116329093     1.500107463403     0.489838645146
    C            1.855007063984     0.842786100485    -0.482875977078
    H            0.531186998740    -0.673832672914    -1.258326291079
    H            0.617860032266    -0.628184348835     0.488984863195
    C            3.134111192156     0.004120688630    -0.508657880502
    H            1.819341787817     1.467899054236    -1.373989148647
    H            1.891122078887     1.522063677975     0.366970831690
    C            4.401586877424     0.854163853206    -0.584606062063
    H            3.102117215042    -0.673922684906    -1.358656931068
    H            3.170527064447    -0.621087660696     0.380317245711
    H            4.409742465159     1.467861793134    -1.481045359389
    H            5.290769138290     0.231802683323    -0.602142761565
    H            4.479909939587     1.518658317264     0.271151132322

  Mulliken Charges: (a.u.)
   Center  Symbol    Alpha    Beta     Spin     Total
       1     O     4.28517  4.28517  0.00000 -0.57035
       2     C     2.61474  2.61474  0.00000  0.77052
       3     C     3.28786  3.28786  0.00000 -0.57573
       4     O     4.31405  4.31405  0.00000 -0.62810
       5     H     0.39732  0.39732  0.00000  0.20535
       6     H     0.39951  0.39951  0.00000  0.20098
       7     H     0.39799  0.39799  0.00000  0.20401
       8     C     2.99614  2.99614  0.00000  0.00772
       9     C     3.17570  3.17570  0.00000 -0.35139
      10     H     0.41036  0.41036  0.00000  0.17928
      11     H     0.40690  0.40690  0.00000  0.18620
      12     C     3.16053  3.16053  0.00000 -0.32106
      13     H     0.41804  0.41804  0.00000  0.16391
      14     H     0.39869  0.39869  0.00000  0.20261
      15     C     3.15127  3.15127  0.00000 -0.30254
      16     H     0.42379  0.42379  0.00000  0.15243
      17     H     0.41965  0.41965  0.00000  0.16070
      18     C     3.23985  3.23985  0.00000 -0.47971
      19     H     0.42219  0.42219  0.00000  0.15563
      20     H     0.41948  0.41948  0.00000  0.16105
      21     H     0.42185  0.42185  0.00000  0.15630
      22     H     0.41820  0.41820  0.00000  0.16359
      23     H     0.42070  0.42070  0.00000  0.15859

   Total alpha = 36.00000, Total beta = 36.00000, Total charge =  0.00000
