  ==> Input File <==

--------------------------------------------------------------------------
set {
	reference rhf
	basis 6-31G*
}

set_num_threads( 1 )
memory 2 gb

molecule MOL {
0 1

H	 -1.553274	 -1.526099	 -3.036047
C	 -2.270558	 -1.186721	 -2.278453
C	 -2.015582	 -1.700160	 -0.884187
O	 -3.166434	 -0.468365	 -2.583610
C	 -0.576540	 -1.442637	 -0.416112
H	 -2.739091	 -1.248262	 -0.215583
H	 -2.200360	 -2.773597	 -0.899874
C	 -0.252658	 0.041456	 -0.226725
H	 -0.420507	 -1.968388	 0.521185
H	 0.119364	 -1.882217	 -1.129025
C	 1.180775	 0.282413	 0.250794
H	 -0.950911	 0.469518	 0.489552
H	 -0.414096	 0.576542	 -1.160621
C	 2.148627	 -0.814315	 -0.201312
H	 1.516199	 1.249228	 -0.115937
H	 1.192670	 0.346017	 1.338083
C	 3.580890	 -0.659131	 0.322722
H	 2.166869	 -0.852443	 -1.289387
H	 1.762857	 -1.776509	 0.128956
C	 4.324889	 0.564933	 -0.213704
H	 4.142010	 -1.551473	 0.056605
H	 3.564836	 -0.624694	 1.410140
H	 4.342616	 0.565491	 -1.300421
H	 3.866655	 1.493402	 0.110242
H	 5.353900	 0.572371	 0.132816

	symmetry c1
}
set optking {
	frozen_dihedral = ("
		6 3 5 8,
		6 3 2 4,
		3 5 8 12,
		8 11 14 18,
		20 17 14 18
	")
}

ee = energy('scf')
oeprop('DIPOLE', 'QUADRUPOLE', 'MULLIKEN_CHARGES')
f=open( 'psi4out.xyz', 'w' )
f.write( "25  " )
f.write( str(ee) + "\n" )
f.write( MOL.save_string_xyz() )
f.close()
--------------------------------------------------------------------------

    Molecular point group: c1

    Geometry (in Angstrom), charge = 0, multiplicity = 1:

       Center              X                  Y                   Z               Mass
    ------------   -----------------  -----------------  -----------------  -----------------
           H         -1.886520296280    -0.937101703570    -2.332906294314     1.007825032070
           C         -2.603804296280    -0.597723703570    -1.575312294314    12.000000000000
           C         -2.348828296280    -1.111162703570    -0.181046294314    12.000000000000
           O         -3.499680296280     0.120632296430    -1.880469294314    15.994914619560
           C         -0.909786296280    -0.853639703570     0.287028705686    12.000000000000
           H         -3.072337296280    -0.659264703570     0.487557705686     1.007825032070
           H         -2.533606296280    -2.184599703570    -0.196733294314     1.007825032070
           C         -0.585904296280     0.630453296430     0.476415705686    12.000000000000
           H         -0.753753296280    -1.379390703570     1.224325705686     1.007825032070
           H         -0.213882296280    -1.293219703570    -0.425884294314     1.007825032070
           C          0.847528703720     0.871410296430     0.953934705686    12.000000000000
           H         -1.284157296280     1.058515296430     1.192692705686     1.007825032070
           H         -0.747342296280     1.165539296430    -0.457480294314     1.007825032070
           C          1.815380703720    -0.225317703570     0.501828705686    12.000000000000
           H          1.182952703720     1.838225296430     0.587203705686     1.007825032070
           H          0.859423703720     0.935014296430     2.041223705686     1.007825032070
           C          3.247643703720    -0.070133703570     1.025862705686    12.000000000000
           H          1.833622703720    -0.263445703570    -0.586246294314     1.007825032070
           H          1.429610703720    -1.187511703570     0.832096705686     1.007825032070
           C          3.991642703720     1.153930296430     0.489436705686    12.000000000000
           H          3.808763703720    -0.962475703570     0.759745705686     1.007825032070
           H          3.231589703720    -0.035696703570     2.113280705686     1.007825032070
           H          4.009369703720     1.154488296430    -0.597280294314     1.007825032070
           H          3.533408703720     2.082399296430     0.813382705686     1.007825032070
           H          5.020653703720     1.161368296430     0.835956705686     1.007825032070

  Charge       = 0
  Multiplicity = 1
  Basis Set: 6-31G*
  Basis Set:

    Orbital Energies (a.u.)
    -----------------------

    Doubly Occupied:

       1A    -20.561482     2A    -11.325676     3A    -11.233900
       4A    -11.233297     5A    -11.223379     6A    -11.219402
       7A    -11.219042     8A    -11.218246     9A    -11.211117
      10A     -1.401491    11A     -1.107973    12A     -1.067109
      13A     -1.013377    14A     -0.937679    15A     -0.887310
      16A     -0.824265    17A     -0.795001    18A     -0.764491
      19A     -0.665554    20A     -0.655133    21A     -0.636731
      22A     -0.628956    23A     -0.608397    24A     -0.588853
      25A     -0.575753    26A     -0.555935    27A     -0.538709
      28A     -0.524687    29A     -0.517711    30A     -0.500622
      31A     -0.484135    32A     -0.475348    33A     -0.456940
      34A     -0.453841    35A     -0.446555    36A     -0.408507

  @DF-RHF Final Energy:  -387.11200977064522

   => Energetics <=

    Nuclear Repulsion Energy =            447.6532634747351835
    One-Electron Energy =               -1411.5970866664599725
    Two-Electron Energy =                 576.8318134210769585
    DFT Exchange-Correlation Energy =       0.0000000000000000
    Empirical Dispersion Energy =           0.0000000000000000
    PCM Polarization Energy =               0.0000000000000000
    EFP Energy =                            0.0000000000000000
    Total Energy =                       -387.1120097706477736

  Mulliken Charges: (a.u.)
   Center  Symbol    Alpha    Beta     Spin     Total
       1     H     0.43295  0.43295  0.00000  0.13410
       2     C     2.83084  2.83084  0.00000  0.33833
       3     C     3.20567  3.20567  0.00000 -0.41133
       4     O     4.23801  4.23801  0.00000 -0.47601
       5     C     3.17632  3.17632  0.00000 -0.35264
       6     H     0.40033  0.40033  0.00000  0.19933
       7     H     0.40723  0.40723  0.00000  0.18555
       8     C     3.15536  3.15536  0.00000 -0.31071
       9     H     0.41242  0.41242  0.00000  0.17516
      10     H     0.41420  0.41420  0.00000  0.17159
      11     C     3.15572  3.15572  0.00000 -0.31143
      12     H     0.41545  0.41545  0.00000  0.16910
      13     H     0.41738  0.41738  0.00000  0.16524
      14     C     3.16205  3.16205  0.00000 -0.32411
      15     H     0.41594  0.41594  0.00000  0.16812
      16     H     0.42144  0.42144  0.00000  0.15711
      17     C     3.15033  3.15033  0.00000 -0.30066
      18     H     0.42425  0.42425  0.00000  0.15150
      19     H     0.41791  0.41791  0.00000  0.16419
      20     C     3.24162  3.24162  0.00000 -0.48323
      21     H     0.42111  0.42111  0.00000  0.15777
      22     H     0.42302  0.42302  0.00000  0.15397
      23     H     0.42216  0.42216  0.00000  0.15568
      24     H     0.41966  0.41966  0.00000  0.16068
      25     H     0.41864  0.41864  0.00000  0.16271

   Total alpha = 36.00000, Total beta = 36.00000, Total charge = -0.00000
