  ==> Input File <==

--------------------------------------------------------------------------
set {
	reference rhf
	basis 6-31G*
}

set_num_threads( 1 )
memory 2 gb

molecule MOL {
0 1

H	 -3.085476	 0.173123	 -3.118390
C	 -2.211277	 0.203795	 -2.492595
C	 -1.923872	 1.346972	 -1.762053
C	 -1.375765	 -0.899588	 -2.419115
H	 -2.572677	 2.201997	 -1.819942
C	 -0.799645	 1.385657	 -0.957627
H	 -1.600165	 -1.784877	 -2.986138
C	 -0.249843	 -0.863134	 -1.614539
H	 -0.561625	 2.261732	 -0.385342
C	 0.040970	 0.281105	 -0.881118
H	 0.399485	 -1.714668	 -1.554668
C	 1.239129	 0.373821	 0.000060
O	 1.970282	 -0.730723	 0.000018
O	 1.519910	 1.336788	 0.642490
C	 3.377318	 -0.566646	 -0.000065
H	 3.695437	 -0.028981	 -0.881264
H	 3.789299	 -1.563704	 0.000236
H	 3.695516	 -0.028316	 0.880770

	symmetry c1
}
set optking {
	frozen_dihedral = ("
		12 13 15 16,
		13 12 10 6
	")
}

ee = energy('scf')
oeprop('DIPOLE', 'QUADRUPOLE', 'MULLIKEN_CHARGES')
f=open( 'psi4out.xyz', 'w' )
f.write( "18  " )
f.write( str(ee) + "\n" )
f.write( MOL.save_string_xyz() )
f.close()
--------------------------------------------------------------------------

    Molecular point group: c1

    Geometry (in Angstrom), charge = 0, multiplicity = 1:

       Center              X                  Y                   Z               Mass
    ------------   -----------------  -----------------  -----------------  -----------------
           H         -3.355803532488    -0.005854053906    -2.227632710784     1.007825032070
           C         -2.481604532488     0.024817946094    -1.601837710784    12.000000000000
           C         -2.194199532488     1.167994946094    -0.871295710784    12.000000000000
           C         -1.646092532488    -1.078565053906    -1.528357710784    12.000000000000
           H         -2.843004532488     2.023019946094    -0.929184710784     1.007825032070
           C         -1.069972532488     1.206679946094    -0.066869710784    12.000000000000
           H         -1.870492532488    -1.963854053906    -2.095380710784     1.007825032070
           C         -0.520170532488    -1.042111053906    -0.723781710784    12.000000000000
           H         -0.831952532488     2.082754946094     0.505415289216     1.007825032070
           C         -0.229357532488     0.102127946094     0.009639289216    12.000000000000
           H          0.129157467512    -1.893645053906    -0.663910710784     1.007825032070
           C          0.968801467512     0.194843946094     0.890817289216    12.000000000000
           O          1.699954467512    -0.909700053906     0.890775289216    15.994914619560
           O          1.249582467512     1.157810946094     1.533247289216    15.994914619560
           C          3.106990467512    -0.745623053906     0.890692289216    12.000000000000
           H          3.425109467512    -0.207958053906     0.009493289216     1.007825032070
           H          3.518971467512    -1.742681053906     0.890993289216     1.007825032070
           H          3.425188467512    -0.207293053906     1.771527289216     1.007825032070

  Charge       = 0
  Multiplicity = 1
  Basis Set: 6-31G*
  Basis Set:

    Orbital Energies (a.u.)
    -----------------------

    Doubly Occupied:

       1A    -20.599508     2A    -20.546916     3A    -11.377971
       4A    -11.286205     5A    -11.246362     6A    -11.245763
       7A    -11.244538     8A    -11.242313     9A    -11.238172
      10A    -11.237379    11A     -1.469859    12A     -1.364270
      13A     -1.165841    14A     -1.047186    15A     -1.025523
      16A     -0.978607    17A     -0.862949    18A     -0.835165
      19A     -0.778244    20A     -0.739494    21A     -0.682977
      22A     -0.675759    23A     -0.669974    24A     -0.632820
      25A     -0.624601    26A     -0.599676    27A     -0.592143
      28A     -0.560395    29A     -0.527378    30A     -0.517482
      31A     -0.502084    32A     -0.498814    33A     -0.457951
      34A     -0.442497    35A     -0.345750    36A     -0.341681

  @DF-RHF Final Energy:  -457.34256900842786

   => Energetics <=

    Nuclear Repulsion Energy =            493.7226322181526257
    One-Electron Energy =               -1601.7217462657504257
    Two-Electron Energy =                 650.6565450391701688
    DFT Exchange-Correlation Energy =       0.0000000000000000
    Empirical Dispersion Energy =           0.0000000000000000
    PCM Polarization Energy =               0.0000000000000000
    EFP Energy =                            0.0000000000000000
    Total Energy =                       -457.3425690084275175

  Mulliken Charges: (a.u.)
   Center  Symbol    Alpha    Beta     Spin     Total
       1     H     0.39513  0.39513  0.00000  0.20974
       2     C     3.08969  3.08969  0.00000 -0.17939
       3     C     3.10706  3.10706  0.00000 -0.21411
       4     C     3.10701  3.10701  0.00000 -0.21401
       5     H     0.39524  0.39524  0.00000  0.20951
       6     C     3.08627  3.08627  0.00000 -0.17255
       7     H     0.39620  0.39620  0.00000  0.20761
       8     C     3.08745  3.08745  0.00000 -0.17490
       9     H     0.37592  0.37592  0.00000  0.24816
      10     C     3.07941  3.07941  0.00000 -0.15883
      11     H     0.38144  0.38144  0.00000  0.23712
      12     C     2.58143  2.58143  0.00000  0.83715
      13     O     4.31638  4.31638  0.00000 -0.63276
      14     O     4.28336  4.28336  0.00000 -0.56672
      15     C     3.09578  3.09578  0.00000 -0.19156
      16     H     0.41434  0.41434  0.00000  0.17131
      17     H     0.40659  0.40659  0.00000  0.18682
      18     H     0.40130  0.40130  0.00000  0.19739

   Total alpha = 36.00000, Total beta = 36.00000, Total charge = -0.00000
