                              Psi4 1.0.54 Driver

  ==> Input File <==

--------------------------------------------------------------------------
set {
	reference rhf
	basis cc-pvtz
}

set_num_threads( 4 )
memory 2 gb

molecule MOL {
0 1

O	 -0.482906	 -2.512241	 -1.791730
C	 -0.554356	 -1.332040	 -1.907715
C	 -0.881910	 -0.448129	 -0.720509
C	 -0.305466	 -0.650000	 -3.231967
C	 0.376695	 -0.140025	 0.100361
H	 -1.596634	 -0.978716	 -0.104264
H	 -1.339746	 0.476752	 -1.054942
C	 1.630207	 -0.772146	 -0.501001
H	 0.486632	 0.935267	 0.162725
H	 0.248225	 -0.501310	 1.117842
C	 2.907848	 -0.545876	 0.309149
H	 1.772784	 -0.391628	 -1.509394
H	 1.468529	 -1.842059	 -0.599744
C	 3.373802	 0.906639	 0.372125
H	 3.699140	 -1.146831	 -0.127906
H	 2.764321	 -0.923458	 1.318191
H	 3.519798	 1.311927	 -0.623875
H	 4.316899	 0.983758	 0.900700
H	 2.661122	 1.540651	 0.885346
H	 -1.233959	 -0.216984	 -3.590289
H	 0.061912	 -1.362679	 -3.954249
H	 0.403279	 0.162440	 -3.117027

	symmetry c1
}
set optking {
	frozen_dihedral = ("
		6 3 5 8
	")
}

ee,wfn = optimize('scf', return_wfn=True)
oeprop( wfn, 'DIPOLE', 'QUADRUPOLE', 'MULLIKEN_CHARGES')
f=open( 'psi4out.xyz', 'w' )
f.write( "22  " )
f.write( str(ee) + "\n" )
f.write( MOL.save_string_xyz() )
f.close()
--------------------------------------------------------------------------

    Molecular point group: c1
  Charge       = 0
  Multiplicity = 1
  Basis Set: CC-PVTZ
  Basis Set:
  @DF-RHF Final Energy:  -348.20932535738552
    Total Energy =                       -348.2093253573859784
    Molecular point group: c1
  Basis Set: CC-PVTZ
  Basis Set:
  Basis Set: CC-PVTZ
  Basis Set:
  @DF-RHF Final Energy:  -348.21291540305242
    Total Energy =                       -348.2129154030525342
  Basis Set: CC-PVTZ
  Basis Set:
  Basis Set: CC-PVTZ
  Basis Set:
  @DF-RHF Final Energy:  -348.21284428667929
    Total Energy =                       -348.2128442866790010
  Basis Set: CC-PVTZ
  Basis Set:
  Basis Set: CC-PVTZ
  Basis Set:
  @DF-RHF Final Energy:  -348.21399137484462
    Total Energy =                       -348.2139913748447384
  Basis Set: CC-PVTZ
  Basis Set:
  Basis Set: CC-PVTZ
  Basis Set:
  @DF-RHF Final Energy:  -348.21405293361721
    Total Energy =                       -348.2140529336172676
  Basis Set: CC-PVTZ
  Basis Set:
  Basis Set: CC-PVTZ
  Basis Set:
  @DF-RHF Final Energy:  -348.21403664388299
    Total Energy =                       -348.2140366438829346
  Basis Set: CC-PVTZ
  Basis Set:
  Basis Set: CC-PVTZ
  Basis Set:
  @DF-RHF Final Energy:  -348.21407378418110
    Total Energy =                       -348.2140737841816645
  Basis Set: CC-PVTZ
  Basis Set:
  Charge       = 0
  Multiplicity = 1
  Basis Set: CC-PVTZ
  Basis Set:

    Orbital Energies (a.u.)
    -----------------------

    Doubly Occupied:

       1A    -20.536145     2A    -11.319656     3A    -11.228358
       4A    -11.227823     5A    -11.226377     6A    -11.217395
       7A    -11.216551     8A    -11.210254     9A     -1.396793
      10A     -1.092567    11A     -1.042507    12A     -0.998287
      13A     -0.940293    14A     -0.860830    15A     -0.791337
      16A     -0.724571    17A     -0.659804    18A     -0.640765
      19A     -0.627841    20A     -0.624633    21A     -0.600048
      22A     -0.583020    23A     -0.565300    24A     -0.544834
      25A     -0.534970    26A     -0.526659    27A     -0.495860
      28A     -0.485230    29A     -0.468243    30A     -0.462603
      31A     -0.455035    32A     -0.398687

  @DF-RHF Final Energy:  -348.21407462293718

   => Energetics <=

    Nuclear Repulsion Energy =            382.3572934897903792
    One-Electron Energy =               -1229.7361789455010239
    Two-Electron Energy =                 499.1648108327739237
    DFT Exchange-Correlation Energy =       0.0000000000000000
    Empirical Dispersion Energy =           0.0000000000000000
    PCM Polarization Energy =               0.0000000000000000
    EFP Energy =                            0.0000000000000000
    Total Energy =                       -348.2140746229366641
    Molecular point group: c1
  Basis Set: CC-PVTZ
  Basis Set:

  -Total Gradient:
     Atom            X                  Y                   Z
    ------   -----------------  -----------------  -----------------
       1        0.000074799076     0.000045672947     0.000019476676
       2       -0.000056815325    -0.000029328660    -0.000016371472
       3        0.000379384063    -0.000596019224    -0.000384480259
       4       -0.000021483427    -0.000007962187    -0.000039873859
       5       -0.000188644797    -0.000486186503     0.000507055381
       6       -0.000285778588     0.000649541923     0.000188107173
       7        0.000008900876    -0.000004982849     0.000017208805
       8        0.000112007208     0.000398214796    -0.000283727158
       9        0.000004212265     0.000000828381     0.000004813579
      10        0.000005606595     0.000012831199    -0.000008272696
      11       -0.000021694134    -0.000008167554    -0.000016921657
      12        0.000009493244    -0.000002381609     0.000002819342
      13       -0.000015716066     0.000023764295    -0.000016022356
      14        0.000004517031     0.000000876733     0.000009229549
      15       -0.000013126497     0.000001494543    -0.000001674109
      16        0.000008097776    -0.000002998162     0.000012585718
      17        0.000002983816    -0.000004373612    -0.000001693496
      18        0.000001557316     0.000009639585     0.000003316790
      19        0.000000413287     0.000005205414    -0.000000832059
      20       -0.000001645783     0.000003904701     0.000002640133
      21       -0.000001469414     0.000000924573    -0.000002447233
      22       -0.000005598524    -0.000010498734     0.000005063209

  **** Optimization is complete! (in 8 steps) ****
    Final optimized geometry and variables:
    Molecular point group: c1

    Geometry (in Angstrom), charge = 0, multiplicity = 1:

    O           -1.427850307338    -1.834066856624    -0.934226442869
    C           -1.413861309015    -0.650892659707    -1.039484864606
    C           -1.591448410116     0.250568450275     0.169080701755
    C           -1.251417110544     0.016944723930    -2.384743858716
    C           -0.295103578913     0.535371323273     0.986463816976
    H           -2.318415275827    -0.233761489409     0.806090050605
    H           -2.022733823157     1.189712563857    -0.155781977792
    C            0.994448978867    -0.115612889279     0.481086666732
    H           -0.158895394754     1.607797247053     1.034497736707
    H           -0.461018053287     0.207577150713     2.005724910129
    C            2.208725852882     0.154767947465     1.372063022218
    H            1.217425987974     0.227843546222    -0.526256278839
    H            0.848224814254    -1.186488754908     0.413606513822
    C            2.676381289595     1.608044738683     1.402175287174
    H            3.027971231993    -0.465580837557     1.023077437523
    H            1.990206973919    -0.175711951823     2.383947796881
    H            2.893980174967     1.967914674916     0.401454854863
    H            3.581386550694     1.706922067195     1.990373099556
    H            1.934871403467     2.267335640858     1.837083740377
    H           -2.196540425441     0.470303528577    -2.667424675798
    H           -0.967461595186    -0.710879329579    -3.129401513236
    H           -0.516984627454     0.812321345260    -2.337902734036

  Mulliken Charges: (a.u.)
   Center  Symbol    Alpha    Beta     Spin     Total
       1     O     4.18296  4.18296  0.00000 -0.36592
       2     C     2.85046  2.85046  0.00000  0.29908
       3     C     3.10425  3.10425  0.00000 -0.20851
       4     C     3.15520  3.15520  0.00000 -0.31040
       5     C     3.09981  3.09981  0.00000 -0.19963
       6     H     0.43718  0.43718  0.00000  0.12564
       7     H     0.44694  0.44694  0.00000  0.10612
       8     C     3.11032  3.11032  0.00000 -0.22064
       9     H     0.44726  0.44726  0.00000  0.10548
      10     H     0.44619  0.44619  0.00000  0.10762
      11     C     3.09282  3.09282  0.00000 -0.18565
      12     H     0.45226  0.45226  0.00000  0.09548
      13     H     0.43215  0.43215  0.00000  0.13571
      14     C     3.15302  3.15302  0.00000 -0.30604
      15     H     0.44607  0.44607  0.00000  0.10786
      16     H     0.45307  0.45307  0.00000  0.09385
      17     H     0.45538  0.45538  0.00000  0.08924
      18     H     0.44508  0.44508  0.00000  0.10984
      19     H     0.45451  0.45451  0.00000  0.09099
      20     H     0.44677  0.44677  0.00000  0.10647
      21     H     0.43658  0.43658  0.00000  0.12685
      22     H     0.45171  0.45171  0.00000  0.09657

   Total alpha = 32.00000, Total beta = 32.00000, Total charge = -0.00000

*** Psi4 exiting successfully. Buy a developer a beer!
