  ==> Input File <==

--------------------------------------------------------------------------
set {
	reference rhf
	basis 6-31G*
}

set_num_threads( 4 )
memory 2 gb

molecule MOL {
0 1

H	 -2.103637	 3.654993	 -1.165491
O	 -1.408617	 3.057939	 -1.402932
C	 -1.217869	 2.121833	 -0.373412
C	 -0.099030	 1.182496	 -0.787650
H	 -0.957838	 2.623876	 0.557525
H	 -2.131913	 1.557022	 -0.194942
C	 0.198102	 0.111031	 0.262842
H	 0.791170	 1.775104	 -0.980237
H	 -0.374384	 0.717527	 -1.730232
C	 1.331804	 -0.827780	 -0.158768
H	 0.447906	 0.593495	 1.204649
H	 -0.700597	 -0.476092	 0.447624
C	 2.723619	 -0.410569	 0.329459
H	 1.342964	 -0.912588	 -1.244120
H	 1.116806	 -1.824343	 0.220779
C	 3.243875	 0.895854	 -0.272975
H	 3.424222	 -1.207124	 0.091250
H	 2.714788	 -0.329854	 1.414619
H	 3.251977	 0.848779	 -1.358681
H	 2.637085	 1.747371	 0.016682
H	 4.259473	 1.094070	 0.055697

	symmetry c1
}
set optking {
	frozen_dihedral = ("
		4 7 10 14
	")
}

ee = optimize('scf')
oeprop('DIPOLE', 'QUADRUPOLE', 'MULLIKEN_CHARGES')
f=open( 'psi4out.xyz', 'w' )
f.write( "21  " )
f.write( str(ee) + "\n" )
f.write( MOL.save_string_xyz() )
f.close()
--------------------------------------------------------------------------

    Molecular point group: c1
  Charge       = 0
  Multiplicity = 1
  Basis Set: 6-31G*
  Basis Set:
  @DF-RHF Final Energy:  -310.20732745948050
    Total Energy =                       -310.2073274594805525
    Molecular point group: c1
  Basis Set: 6-31G*
  Basis Set:
  Basis Set: 6-31G*
  Basis Set:
  @DF-RHF Final Energy:  -310.20807102850841
    Total Energy =                       -310.2080710285081864
  Basis Set: 6-31G*
  Basis Set:
  Basis Set: 6-31G*
  Basis Set:
  @DF-RHF Final Energy:  -310.20824030411029
    Total Energy =                       -310.2082403041101770
  Basis Set: 6-31G*
  Basis Set:
  Basis Set: 6-31G*
  Basis Set:
  @DF-RHF Final Energy:  -310.20831041495387
    Total Energy =                       -310.2083104149535302
  Basis Set: 6-31G*
  Basis Set:
  Basis Set: 6-31G*
  Basis Set:
  @DF-RHF Final Energy:  -310.20831249609171
    Total Energy =                       -310.2083124960916507
  Basis Set: 6-31G*
  Basis Set:
  Charge       = 0
  Multiplicity = 1
  Basis Set: 6-31G*
  Basis Set:

    Orbital Energies (a.u.)
    -----------------------

    Doubly Occupied:

       1A    -20.551736     2A    -11.266734     3A    -11.216314
       4A    -11.214839     5A    -11.213796     6A    -11.209695
       7A    -11.206762     8A     -1.358492     9A     -1.084171
      10A     -1.030475    11A     -0.955918    12A     -0.876537
      13A     -0.807934    14A     -0.776290    15A     -0.691651
      16A     -0.659881    17A     -0.618961    18A     -0.609303
      19A     -0.586483    20A     -0.559995    21A     -0.547967
      22A     -0.520664    23A     -0.499839    24A     -0.497196
      25A     -0.479662    26A     -0.459721    27A     -0.447848
      28A     -0.441798    29A     -0.433737

  @DF-RHF Final Energy:  -310.20831322411607

   => Energetics <=

    Nuclear Repulsion Energy =            318.4890355114800968
    One-Electron Energy =               -1051.7458970019270055
    Two-Electron Energy =                 423.0485482663310108
    DFT Exchange-Correlation Energy =       0.0000000000000000
    Empirical Dispersion Energy =           0.0000000000000000
    PCM Polarization Energy =               0.0000000000000000
    EFP Energy =                            0.0000000000000000
    Total Energy =                       -310.2083132241158978
    Molecular point group: c1
  Basis Set: 6-31G*
  Basis Set:

  -Total Gradient:
     Atom            X                  Y                   Z
    ------   -----------------  -----------------  -----------------
       1       -0.000003166220     0.000009739203    -0.000009694767
       2       -0.000034659570     0.000038580074     0.000004452798
       3        0.000020023215     0.000001681236    -0.000053092422
       4        0.000014460786     0.000033098773     0.000102111397
       5        0.000009625830    -0.000012423242    -0.000009859254
       6        0.000008645068    -0.000003748548    -0.000003602103
       7       -0.000107432587    -0.000099087112    -0.000042514656
       8        0.000030209170    -0.000000170022     0.000000727924
       9       -0.000002887121     0.000028913807     0.000021467746
      10        0.000123377544     0.000144799578     0.000034988576
      11       -0.000026431930     0.000022021689    -0.000026896156
      12       -0.000019133960     0.000013739998     0.000015655707
      13        0.000028394337    -0.000050047711    -0.000045850940
      14       -0.000049837799    -0.000067077482     0.000026082411
      15        0.000091385423    -0.000035427962    -0.000031539373
      16       -0.000042028837    -0.000005499432     0.000024668571
      17        0.000029937020    -0.000023490756     0.000028112329
      18       -0.000023730034     0.000030920943    -0.000012681621
      19       -0.000027125656    -0.000002135356    -0.000021595402
      20        0.000014498838     0.000012363505     0.000000191509
      21       -0.000034123513    -0.000036751189    -0.000001132272

  **** Optimization is complete! (in 6 steps) ****
    Final optimized geometry and variables:
    Molecular point group: c1

    Geometry (in Angstrom), charge = 0, multiplicity = 1:

    H           -2.822451639337     2.696897031655    -0.791482565038
    O           -2.129438134156     2.105074773459    -1.047209082881
    C           -1.880327744997     1.192607884249    -0.008858701936
    C           -0.764426057494     0.262661383997    -0.451950242925
    H           -1.589369940518     1.717295110634     0.900302244347
    H           -2.776924045551     0.617792110558     0.219609213936
    C           -0.427746372369    -0.795702320078     0.603113535011
    H            0.102975413685     0.865429291988    -0.695557204370
    H           -1.072708098611    -0.224069655172    -1.373144569509
    C            0.710588991595    -1.757754297531     0.209652974902
    H           -0.181790978528    -0.311225393910     1.546923368038
    H           -1.326244615939    -1.378068165193     0.794106728673
    C            2.113616399265    -1.369116274839     0.694632260432
    H            0.722606520245    -1.882039434710    -0.871486911678
    H            0.490947436796    -2.740337389117     0.618773950251
    C            2.673363222868    -0.060533277449     0.135549577240
    H            2.794000772806    -2.176781827648     0.434853716009
    H            2.108211132135    -1.318325449225     1.781676175808
    H            2.662066641455    -0.058310925740    -0.950776983911
    H            2.108164074155     0.800636145744     0.475418724494
    H            3.701371363612     0.080565208496     0.455220850711

  Mulliken Charges: (a.u.)
   Center  Symbol    Alpha    Beta     Spin     Total
       1     H     0.28120  0.28120  0.00000  0.43760
       2     O     4.37187  4.37187  0.00000 -0.74373
       3     C     2.99019  2.99019  0.00000  0.01962
       4     C     3.16184  3.16184  0.00000 -0.32368
       5     H     0.43316  0.43316  0.00000  0.13368
       6     H     0.43297  0.43297  0.00000  0.13405
       7     C     3.16427  3.16427  0.00000 -0.32853
       8     H     0.41086  0.41086  0.00000  0.17828
       9     H     0.41488  0.41488  0.00000  0.17024
      10     C     3.15435  3.15435  0.00000 -0.30869
      11     H     0.42291  0.42291  0.00000  0.15418
      12     H     0.42106  0.42106  0.00000  0.15788
      13     C     3.15137  3.15137  0.00000 -0.30273
      14     H     0.42130  0.42130  0.00000  0.15740
      15     H     0.42011  0.42011  0.00000  0.15977
      16     C     3.24147  3.24147  0.00000 -0.48293
      17     H     0.42171  0.42171  0.00000  0.15658
      18     H     0.42396  0.42396  0.00000  0.15208
      19     H     0.42069  0.42069  0.00000  0.15862
      20     H     0.42025  0.42025  0.00000  0.15949
      21     H     0.41960  0.41960  0.00000  0.16081

   Total alpha = 29.00000, Total beta = 29.00000, Total charge = -0.00000
