                              Psi4 1.0.54 Driver

  ==> Input File <==

--------------------------------------------------------------------------
set {
	reference rhf
	basis cc-pvtz
}

set_num_threads( 4 )
memory 2 gb

molecule MOL {
0 1

H	 2.614450	 2.028705	 0.296615
O	 3.359031	 1.662182	 -0.142805
C	 3.565635	 0.338174	 0.273837
C	 2.533834	 -0.637470	 -0.272232
H	 4.548205	 0.065009	 -0.086603
H	 3.594112	 0.282337	 1.360355
C	 1.114983	 -0.402277	 0.240988
H	 2.544719	 -0.580669	 -1.356581
H	 2.850741	 -1.642867	 -0.005502
C	 0.113465	 -1.420319	 -0.302509
H	 0.796540	 0.598522	 -0.031038
H	 1.113544	 -0.446381	 1.328802
C	 -1.310856	 -1.277209	 0.237013
H	 0.094028	 -1.357476	 -1.387820
H	 0.471996	 -2.417934	 -0.064415
C	 -2.040954	 -0.006456	 -0.194132
H	 -1.888381	 -2.136198	 -0.093336
H	 -1.289564	 -1.328662	 1.323316
C	 -3.489051	 0.042701	 0.286502
H	 -2.022018	 0.066382	 -1.279399
H	 -1.518597	 0.869400	 0.178725
C	 -4.219817	 1.311868	 -0.139043
H	 -4.022688	 -0.824205	 -0.093344
H	 -3.510205	 -0.038482	 1.370026
H	 -4.244084	 1.405820	 -1.219701
H	 -5.244178	 1.313328	 0.215625
H	 -3.731923	 2.196406	 0.257068

	symmetry c1
}
ee,wfn = energy('scf', return_wfn=True)
oeprop( wfn, 'DIPOLE', 'QUADRUPOLE', 'MULLIKEN_CHARGES')
oeprop( wfn, 'GRID_ESP')
f=open( 'psi4out.xyz', 'w' )
f.write( "27  " )
f.write( str(ee) + "\n" )
f.write( MOL.save_string_xyz() )
f.close()
--------------------------------------------------------------------------

    Molecular point group: c1

    Geometry (in Angstrom), charge = 0, multiplicity = 1:

       Center              X                  Y                   Z               Mass
    ------------   -----------------  -----------------  -----------------  -----------------
           H          2.614282636940     2.028609691008     0.296620341761     1.007825032070
           O          3.358863636940     1.662086691008    -0.142799658239    15.994914619560
           C          3.565467636940     0.338078691008     0.273842341761    12.000000000000
           C          2.533666636940    -0.637565308992    -0.272226658239    12.000000000000
           H          4.548037636940     0.064913691008    -0.086597658239     1.007825032070
           H          3.593944636940     0.282241691008     1.360360341761     1.007825032070
           C          1.114815636940    -0.402372308992     0.240993341761    12.000000000000
           H          2.544551636940    -0.580764308992    -1.356575658239     1.007825032070
           H          2.850573636940    -1.642962308992    -0.005496658239     1.007825032070
           C          0.113297636940    -1.420414308992    -0.302503658239    12.000000000000
           H          0.796372636940     0.598426691008    -0.031032658239     1.007825032070
           H          1.113376636940    -0.446476308992     1.328807341761     1.007825032070
           C         -1.311023363060    -1.277304308992     0.237018341761    12.000000000000
           H          0.093860636940    -1.357571308992    -1.387814658239     1.007825032070
           H          0.471828636940    -2.418029308992    -0.064409658239     1.007825032070
           C         -2.041121363060    -0.006551308992    -0.194126658239    12.000000000000
           H         -1.888548363060    -2.136293308992    -0.093330658239     1.007825032070
           H         -1.289731363060    -1.328757308992     1.323321341761     1.007825032070
           C         -3.489218363060     0.042605691008     0.286507341761    12.000000000000
           H         -2.022185363060     0.066286691008    -1.279393658239     1.007825032070
           H         -1.518764363060     0.869304691008     0.178730341761     1.007825032070
           C         -4.219984363060     1.311772691008    -0.139037658239    12.000000000000
           H         -4.022855363060    -0.824300308992    -0.093338658239     1.007825032070
           H         -3.510372363060    -0.038577308992     1.370031341761     1.007825032070
           H         -4.244251363060     1.405724691008    -1.219695658239     1.007825032070
           H         -5.244345363060     1.313232691008     0.215630341761     1.007825032070
           H         -3.732090363060     2.196310691008     0.257073341761     1.007825032070

  Charge       = 0
  Multiplicity = 1
  Basis Set: CC-PVTZ
  Basis Set:

    Orbital Energies (a.u.)
    -----------------------

    Doubly Occupied:

       1A    -20.545375     2A    -11.264984     3A    -11.216793
       4A    -11.214692     5A    -11.213900     6A    -11.213260
       7A    -11.213237     8A    -11.211917     9A    -11.207259
      10A     -1.363205    11A     -1.096202    12A     -1.062566
      13A     -1.012512    14A     -0.949394    15A     -0.888614
      16A     -0.820498    17A     -0.801835    18A     -0.778404
      19A     -0.696194    20A     -0.652667    21A     -0.639647
      22A     -0.615902    23A     -0.601755    24A     -0.583414
      25A     -0.581079    26A     -0.553602    27A     -0.541226
      28A     -0.532699    29A     -0.505819    30A     -0.495292
      31A     -0.485286    32A     -0.474338    33A     -0.469431
      34A     -0.461452    35A     -0.452699    36A     -0.442613
      37A     -0.425636

  @DF-RHF Final Energy:  -388.42778832704698

   => Energetics <=

    Nuclear Repulsion Energy =            460.1892533511690999
    One-Electron Energy =               -1438.6631828194986156
    Two-Electron Energy =                 590.0461411412827601
    DFT Exchange-Correlation Energy =       0.0000000000000000
    Empirical Dispersion Energy =           0.0000000000000000
    PCM Polarization Energy =               0.0000000000000000
    EFP Energy =                            0.0000000000000000
    Total Energy =                       -388.4277883270467555

  Mulliken Charges: (a.u.)
   Center  Symbol    Alpha    Beta     Spin     Total
       1     H     0.39229  0.39229  0.00000  0.21542
       2     O     4.20551  4.20551  0.00000 -0.41102
       3     C     2.97992  2.97992  0.00000  0.04016
       4     C     3.08926  3.08926  0.00000 -0.17853
       5     H     0.44855  0.44855  0.00000  0.10290
       6     H     0.46972  0.46972  0.00000  0.06056
       7     C     3.10235  3.10235  0.00000 -0.20469
       8     H     0.45076  0.45076  0.00000  0.09848
       9     H     0.45517  0.45517  0.00000  0.08965
      10     C     3.09854  3.09854  0.00000 -0.19708
      11     H     0.45606  0.45606  0.00000  0.08788
      12     H     0.45378  0.45378  0.00000  0.09245
      13     C     3.09803  3.09803  0.00000 -0.19605
      14     H     0.45169  0.45169  0.00000  0.09663
      15     H     0.44801  0.44801  0.00000  0.10398
      16     C     3.08791  3.08791  0.00000 -0.17582
      17     H     0.44798  0.44798  0.00000  0.10404
      18     H     0.45389  0.45389  0.00000  0.09223
      19     C     3.08404  3.08404  0.00000 -0.16809
      20     H     0.45408  0.45408  0.00000  0.09185
      21     H     0.45548  0.45548  0.00000  0.08904
      22     C     3.14958  3.14958  0.00000 -0.29915
      23     H     0.45376  0.45376  0.00000  0.09248
      24     H     0.45470  0.45470  0.00000  0.09059
      25     H     0.45484  0.45484  0.00000  0.09031
      26     H     0.44831  0.44831  0.00000  0.10338
      27     H     0.45579  0.45579  0.00000  0.08842

   Total alpha = 37.00000, Total beta = 37.00000, Total charge = -0.00000

*** Psi4 exiting successfully. Buy a developer a beer!
