  ==> Input File <==

--------------------------------------------------------------------------
set {
	reference rhf
	basis cc-pvtz
}

set_num_threads( 4 )
memory 2 gb

molecule MOL {
0 1

O	 0.967971	 1.697622	 -0.492789
C	 0.402597	 1.263457	 -1.437731
C	 -0.871719	 0.459508	 -1.402401
O	 0.829250	 1.433645	 -2.678448
C	 -1.413045	 0.229353	 0.001137
H	 -1.595427	 0.978189	 -2.022640
H	 -0.671776	 -0.480824	 -1.905652
C	 -2.702562	 -0.586401	 0.000228
H	 -1.584453	 1.186711	 0.480328
H	 -0.660304	 -0.274208	 0.597252
C	 -3.953810	 0.284959	 -0.000782
H	 -2.717793	 -1.238567	 -0.869075
H	 -2.719108	 -1.238472	 0.869576
H	 -3.983727	 0.924403	 -0.876454
H	 -4.852989	 -0.320147	 -0.001515
H	 -3.985140	 0.924399	 0.874841
C	 2.020010	 2.172987	 -2.859506
H	 1.908051	 3.176215	 -2.475805
H	 2.195637	 2.198664	 -3.922692
H	 2.846728	 1.693614	 -2.356553

	symmetry c1
}
set optking {
	frozen_dihedral = ("
		9 5 8 12
	")
}

ee = optimize('scf')
oeprop('DIPOLE', 'QUADRUPOLE', 'MULLIKEN_CHARGES')
f=open( 'psi4out.xyz', 'w' )
f.write( "20  " )
f.write( str(ee) + "\n" )
f.write( MOL.save_string_xyz() )
f.close()
--------------------------------------------------------------------------

    Molecular point group: c1
  Charge       = 0
  Multiplicity = 1
  Basis Set: CC-PVTZ
  Basis Set:
  @DF-RHF Final Energy:  -384.07921638053415
    Total Energy =                       -384.0792163805339214
    Molecular point group: c1
  Basis Set: CC-PVTZ
  Basis Set:
  Basis Set: CC-PVTZ
  Basis Set:
  @DF-RHF Final Energy:  -384.07948103633504
    Total Energy =                       -384.0794810363349825
  Basis Set: CC-PVTZ
  Basis Set:
  Basis Set: CC-PVTZ
  Basis Set:
  @DF-RHF Final Energy:  -384.07920775991079
    Total Energy =                       -384.0792077599109007
  Basis Set: CC-PVTZ
  Basis Set:
  Basis Set: CC-PVTZ
  Basis Set:
  @DF-RHF Final Energy:  -384.07954566693280
    Total Energy =                       -384.0795456669322903
  Basis Set: CC-PVTZ
  Basis Set:
  Basis Set: CC-PVTZ
  Basis Set:
  @DF-RHF Final Energy:  -384.07955160861934
    Total Energy =                       -384.0795516086192265
  Basis Set: CC-PVTZ
  Basis Set:
  Charge       = 0
  Multiplicity = 1
  Basis Set: CC-PVTZ
  Basis Set:

    Orbital Energies (a.u.)
    -----------------------

    Doubly Occupied:

       1A    -20.596375     2A    -20.534264     3A    -11.364558
       4A    -11.278539     5A    -11.234029     6A    -11.218501
       7A    -11.217415     8A    -11.210345     9A     -1.472264
      10A     -1.365858    11A     -1.089293    12A     -1.023951
      13A     -0.969059    14A     -0.890308    15A     -0.803115
      16A     -0.768405    17A     -0.703002    18A     -0.685969
      19A     -0.676356    20A     -0.633729    21A     -0.612734
      22A     -0.596756    23A     -0.573039    24A     -0.547672
      25A     -0.527013    26A     -0.524923    27A     -0.513843
      28A     -0.475052    29A     -0.474590    30A     -0.467781
      31A     -0.458921    32A     -0.440102

  @DF-RHF Final Energy:  -384.07955169227262

   => Energetics <=

    Nuclear Repulsion Energy =            384.4128865699181006
    One-Electron Energy =               -1285.0893548938183812
    Two-Electron Energy =                 516.5969166316275505
    DFT Exchange-Correlation Energy =       0.0000000000000000
    Empirical Dispersion Energy =           0.0000000000000000
    PCM Polarization Energy =               0.0000000000000000
    EFP Energy =                            0.0000000000000000
    Total Energy =                       -384.0795516922727302
    Molecular point group: c1
  Basis Set: CC-PVTZ
  Basis Set:

  -Total Gradient:
     Atom            X                  Y                   Z
    ------   -----------------  -----------------  -----------------
       1        0.000004943860     0.000000933027     0.000000087901
       2        0.000000456241    -0.000007307945    -0.000008946274
       3       -0.000009860772     0.000002872389     0.000012435043
       4        0.000001847289     0.000009138805     0.000002438128
       5        0.000650130772    -0.001108345901     0.003330249147
       6        0.000002982682    -0.000006262606    -0.000001127691
       7        0.000004728792    -0.000003849637    -0.000006894753
       8        0.001635715875    -0.002755526421     0.001557634181
       9       -0.000823005574     0.001369811732    -0.003048368326
      10       -0.000006775725    -0.000003069475    -0.000000243448
      11        0.000009765583    -0.000002326690     0.000004823395
      12       -0.001467427859     0.002502136079    -0.001839256766
      13        0.000001063277     0.000000899756     0.000001446339
      14        0.000000594817     0.000000669940     0.000001793576
      15       -0.000005055980    -0.000000061349    -0.000003129669
      16       -0.000004506133     0.000000664300    -0.000000066727
      17        0.000005062795    -0.000001405368    -0.000002557544
      18       -0.000001088647    -0.000000331779     0.000000133320
      19        0.000000307712     0.000000717187    -0.000000051454
      20        0.000000120998     0.000000643957    -0.000000398378

  **** Optimization is complete! (in 6 steps) ****
    Final optimized geometry and variables:
    Molecular point group: c1

    Geometry (in Angstrom), charge = 0, multiplicity = 1:

    O            1.521021288875     0.822238618225     0.631797004823
    C            0.964172567536     0.369632619345    -0.309605940774
    C           -0.293227123754    -0.460447481418    -0.267793149652
    O            1.387206947846     0.538991198358    -1.551788197439
    C           -0.824801215459    -0.699553602218     1.141255566963
    H           -1.027523987080     0.041643387516    -0.888958452391
    H           -0.074802874241    -1.398006902558    -0.767957504575
    C           -2.146975733859    -1.481727050547     1.141267877018
    H           -0.968249342668     0.264594901846     1.613959098194
    H           -0.071229100778    -1.221662632159     1.716204573809
    C           -3.379157857240    -0.579013951226     1.103844753789
    H           -2.182851838324    -2.139096904674     0.277356938927
    H           -2.199351896053    -2.113275118706     2.020365161905
    H           -3.368031258375     0.073258467943     0.236685787461
    H           -4.291287250853    -1.163235890837     1.061591625553
    H           -3.427333310371     0.049247122139     1.986418155243
    C            2.563002388977     1.300391564705    -1.738781427661
    H            2.431220554851     2.304120489665    -1.362746435097
    H            2.738048268427     1.321433554576    -2.802172727444
    H            3.399129375810     0.841406904153    -1.232359734995

  Mulliken Charges: (a.u.)
   Center  Symbol    Alpha    Beta     Spin     Total
       1     O     4.19676  4.19676  0.00000 -0.39352
       2     C     2.80640  2.80640  0.00000  0.38720
       3     C     3.10000  3.10000  0.00000 -0.20000
       4     O     4.14716  4.14716  0.00000 -0.29432
       5     C     3.08835  3.08835  0.00000 -0.17670
       6     H     0.44033  0.44033  0.00000  0.11934
       7     H     0.43977  0.43977  0.00000  0.12047
       8     C     3.09327  3.09327  0.00000 -0.18654
       9     H     0.44754  0.44754  0.00000  0.10492
      10     H     0.44112  0.44112  0.00000  0.11777
      11     C     3.14764  3.14764  0.00000 -0.29528
      12     H     0.45722  0.45722  0.00000  0.08556
      13     H     0.44508  0.44508  0.00000  0.10984
      14     H     0.45664  0.45664  0.00000  0.08671
      15     H     0.44811  0.44811  0.00000  0.10377
      16     H     0.45297  0.45297  0.00000  0.09405
      17     C     3.03775  3.03775  0.00000 -0.07549
      18     H     0.45430  0.45430  0.00000  0.09139
      19     H     0.44528  0.44528  0.00000  0.10943
      20     H     0.45431  0.45431  0.00000  0.09138

   Total alpha = 32.00000, Total beta = 32.00000, Total charge = -0.00000
