  ==> Input File <==

--------------------------------------------------------------------------
set {
	reference rhf
	basis cc-pvtz
}

set_num_threads( 4 )
memory 2 gb

molecule MOL {
0 1

H	 -1.769860	 -0.273386	 0.702618
N	 -1.173824	 -0.310545	 -0.096857
C	 -0.022588	 0.563366	 0.065815
H	 -0.886662	 -1.260833	 -0.206877
C	 1.270420	 -0.230572	 -0.014245
H	 -0.045354	 1.293678	 -0.735129
H	 -0.043155	 1.123061	 1.001180
H	 1.336273	 -0.754933	 -0.959364
H	 2.130728	 0.422015	 0.082222
H	 1.323344	 -0.967006	 0.781773

	symmetry c1
}
set optking {
	frozen_dihedral = ("
		1 2 3 6
	")
}

ee = optimize('scf')
oeprop('DIPOLE', 'QUADRUPOLE', 'MULLIKEN_CHARGES')
f=open( 'psi4out.xyz', 'w' )
f.write( "10  " )
f.write( str(ee) + "\n" )
f.write( MOL.save_string_xyz() )
f.close()
--------------------------------------------------------------------------

    Molecular point group: c1
  Charge       = 0
  Multiplicity = 1
  Basis Set: CC-PVTZ
  Basis Set:
  @DF-RHF Final Energy:  -134.30010475171008
    Total Energy =                       -134.3001047517100517
    Molecular point group: c1
  Basis Set: CC-PVTZ
  Basis Set:
  Basis Set: CC-PVTZ
  Basis Set:
  @DF-RHF Final Energy:  -134.30077416934250
    Total Energy =                       -134.3007741693424464
  Basis Set: CC-PVTZ
  Basis Set:
  Basis Set: CC-PVTZ
  Basis Set:
  @DF-RHF Final Energy:  -134.30089411172594
    Total Energy =                       -134.3008941117259383
  Basis Set: CC-PVTZ
  Basis Set:
  Basis Set: CC-PVTZ
  Basis Set:
  @DF-RHF Final Energy:  -134.30090176426040
    Total Energy =                       -134.3009017642603169
  Basis Set: CC-PVTZ
  Basis Set:
  Charge       = 0
  Multiplicity = 1
  Basis Set: CC-PVTZ
  Basis Set:

    Orbital Energies (a.u.)
    -----------------------

    Doubly Occupied:

       1A    -15.523618     2A    -11.240939     3A    -11.210907
       4A     -1.174758     5A     -0.990287     6A     -0.831146
       7A     -0.666527     8A     -0.610894     9A     -0.595611
      10A     -0.533897    11A     -0.506687    12A     -0.489896
      13A     -0.378676

  @DF-RHF Final Energy:  -134.30090289756276

   => Energetics <=

    Nuclear Repulsion Energy =             83.3811410332933747
    One-Electron Energy =                -345.8563986687367446
    Two-Electron Energy =                 128.1743547378805488
    DFT Exchange-Correlation Energy =       0.0000000000000000
    Empirical Dispersion Energy =           0.0000000000000000
    PCM Polarization Energy =               0.0000000000000000
    EFP Energy =                            0.0000000000000000
    Total Energy =                       -134.3009028975628212
    Molecular point group: c1
  Basis Set: CC-PVTZ
  Basis Set:

  -Total Gradient:
     Atom            X                  Y                   Z
    ------   -----------------  -----------------  -----------------
       1       -0.000260726397     0.000409128239    -0.000194901222
       2        0.000144780363    -0.000473974963     0.000282037230
       3        0.000394287024    -0.000267477029    -0.000342643698
       4        0.000033814745     0.000021625169    -0.000004362619
       5       -0.000069875014     0.000009574154     0.000026113823
       6       -0.000251252919     0.000240738817     0.000278574965
       7       -0.000008336941     0.000020182119     0.000010444246
       8        0.000009786265    -0.000012526177    -0.000003225186
       9        0.000024738632     0.000022603126    -0.000005478269
      10       -0.000017215757     0.000030126545    -0.000046559270

  **** Optimization is complete! (in 5 steps) ****
    Final optimized geometry and variables:
    Molecular point group: c1

    Geometry (in Angstrom), charge = 0, multiplicity = 1:

    H           -1.791717884206    -0.255946635877     0.721114822422
    N           -1.209064288751    -0.284544476915    -0.085157117350
    C           -0.030375181293     0.565696071208     0.056121907930
    H           -0.964941336632    -1.235628279886    -0.253222587736
    C            1.276846003850    -0.209437214874    -0.010766313811
    H           -0.036279049628     1.317225117725    -0.726898697008
    H           -0.077392669870     1.105740740640     0.996143331347
    H            1.349955175186    -0.757713437905    -0.944683144826
    H            2.127837937500     0.459655446807     0.046401853599
    H            1.350186009077    -0.921685491741     0.804305949489

  Mulliken Charges: (a.u.)
   Center  Symbol    Alpha    Beta     Spin     Total
       1     H     0.42661  0.42661  0.00000  0.14678
       2     N     3.69552  3.69552  0.00000 -0.39104
       3     C     3.01297  3.01297  0.00000 -0.02594
       4     H     0.42815  0.42815  0.00000  0.14371
       5     C     3.14581  3.14581  0.00000 -0.29161
       6     H     0.46369  0.46369  0.00000  0.07262
       7     H     0.46313  0.46313  0.00000  0.07374
       8     H     0.45412  0.45412  0.00000  0.09177
       9     H     0.45292  0.45292  0.00000  0.09415
      10     H     0.45709  0.45709  0.00000  0.08583

   Total alpha = 13.00000, Total beta = 13.00000, Total charge = -0.00000
