                              Psi4 1.0.54 Driver

  ==> Input File <==

--------------------------------------------------------------------------
set {
	reference rhf
	basis cc-pvtz
}

set_num_threads( 4 )
memory 2 gb

molecule MOL {
0 1

H	 -0.718794	 6.749299	 2.818267
C	 -1.627130	 6.159682	 2.771964
C	 -1.446416	 4.938146	 1.877248
H	 -1.882380	 5.865395	 3.784119
H	 -2.420450	 6.802556	 2.404327
C	 -2.711256	 4.088109	 1.779328
H	 -0.632553	 4.332511	 2.259049
H	 -1.155258	 5.262901	 0.880963
C	 -2.562032	 2.861409	 0.884998
H	 -3.010309	 3.768068	 2.769767
H	 -3.519030	 4.699291	 1.387229
C	 -1.698243	 1.754383	 1.465384
H	 -3.537560	 2.418268	 0.701320
H	 -2.175868	 3.137063	 -0.091941
C	 -1.180025	 0.697761	 0.509157
O	 -1.450812	 1.699794	 2.626880
C	 -2.285431	 -0.137488	 -0.145671
H	 -0.514588	 0.058614	 1.073537
H	 -0.595683	 1.190981	 -0.263162
C	 -3.646545	 0.082747	 0.508954
H	 -2.348635	 0.118247	 -1.199806
H	 -2.034895	 -1.192387	 -0.096473
C	 -4.757412	 -0.737227	 -0.138149
H	 -3.900211	 1.137405	 0.459735
H	 -3.580878	 -0.166775	 1.564416
H	 -4.867876	 -0.486707	 -1.187777
H	 -4.549650	 -1.800049	 -0.072540
H	 -5.709585	 -0.556397	 0.346597

	symmetry c1
}
set optking {
	frozen_dihedral = ("
		12 15 17 21
	")
}

ee,wfn = optimize('scf', return_wfn=True)
oeprop( wfn, 'DIPOLE', 'QUADRUPOLE', 'MULLIKEN_CHARGES')
f=open( 'psi4out.xyz', 'w' )
f.write( "28  " )
f.write( str(ee) + "\n" )
f.write( MOL.save_string_xyz() )
f.close()
--------------------------------------------------------------------------

    Molecular point group: c1
  Charge       = 0
  Multiplicity = 1
  Basis Set: CC-PVTZ
  Basis Set:
  @DF-RHF Final Energy:  -426.28980106777578
    Total Energy =                       -426.2898010677753291
    Molecular point group: c1
  Basis Set: CC-PVTZ
  Basis Set:
  Basis Set: CC-PVTZ
  Basis Set:
  @DF-RHF Final Energy:  -426.26690669301786
    Total Energy =                       -426.2669066930177451
  Basis Set: CC-PVTZ
  Basis Set:
  Basis Set: CC-PVTZ
  Basis Set:
  @DF-RHF Final Energy:  -426.30706120603793
    Total Energy =                       -426.3070612060384974
  Basis Set: CC-PVTZ
  Basis Set:
  Basis Set: CC-PVTZ
  Basis Set:
  @DF-RHF Final Energy:  -426.31012323280356
    Total Energy =                       -426.3101232328036758
  Basis Set: CC-PVTZ
  Basis Set:
  @DF-RHF Final Energy:  -426.31047544332887
    Total Energy =                       -426.3104754433290964
  @DF-RHF Final Energy:  -426.31069091831864
    Total Energy =                       -426.3106909183184143
  @DF-RHF Final Energy:  -426.31096484169404
    Total Energy =                       -426.3109648416933624
  @DF-RHF Final Energy:  -426.16958795572884
    Total Energy =                       -426.1695879557290709
  @DF-RHF Final Energy:  -426.28999718373973
    Total Energy =                       -426.2899971837398425
  @DF-RHF Final Energy:  -426.31087232059087
    Total Energy =                       -426.3108723205903061
  @DF-RHF Final Energy:  -426.31170853328933
    Total Energy =                       -426.3117085332897886
  @DF-RHF Final Energy:  -426.31204336680048
    Total Energy =                       -426.3120433668008218
  @DF-RHF Final Energy:  -426.31227475629703
    Total Energy =                       -426.3122747562975974
  @DF-RHF Final Energy:  -426.31208166619160
    Total Energy =                       -426.3120816661917161
  @DF-RHF Final Energy:  -426.31232964443996
    Total Energy =                       -426.3123296444396146
  @DF-RHF Final Energy:  -426.31236646703746
    Total Energy =                       -426.3123664670372364
  Basis Set: CC-PVTZ
  Basis Set:
  @DF-RHF Final Energy:  -426.31237511701022
    Total Energy =                       -426.3123751170103333
  Basis Set: CC-PVTZ
  Basis Set:
  Basis Set: CC-PVTZ
  Basis Set:
  @DF-RHF Final Energy:  -426.31237708761830
    Total Energy =                       -426.3123770876179606
  Basis Set: CC-PVTZ
  Basis Set:
  Basis Set: CC-PVTZ
  Basis Set:
  @DF-RHF Final Energy:  -426.31237839387541
    Total Energy =                       -426.3123783938758606
  Basis Set: CC-PVTZ
  Basis Set:
  Charge       = 0
  Multiplicity = 1
  Basis Set: CC-PVTZ
  Basis Set:

    Orbital Energies (a.u.)
    -----------------------

    Doubly Occupied:

       1A    -20.536606     2A    -11.317135     3A    -11.229033
       4A    -11.228418     5A    -11.226669     6A    -11.218283
       7A    -11.214758     8A    -11.210595     9A    -11.208600
      10A    -11.202804    11A     -1.397337    12A     -1.090456
      13A     -1.076872    14A     -1.021239    15A     -0.990746
      16A     -0.908781    17A     -0.872445    18A     -0.812701
      19A     -0.794908    20A     -0.721170    21A     -0.666341
      22A     -0.650449    23A     -0.630120    24A     -0.617728
      25A     -0.608834    26A     -0.584085    27A     -0.578459
      28A     -0.571951    29A     -0.556054    30A     -0.531852
      31A     -0.516977    32A     -0.509099    33A     -0.497333
      34A     -0.486666    35A     -0.475809    36A     -0.468681
      37A     -0.464734    38A     -0.462703    39A     -0.456820
      40A     -0.393757

  @DF-RHF Final Energy:  -426.31237851697347

   => Energetics <=

    Nuclear Repulsion Energy =            544.2612107916420428
    One-Electron Energy =               -1657.1311604483234987
    Two-Electron Energy =                 686.5575711397086707
    DFT Exchange-Correlation Energy =       0.0000000000000000
    Empirical Dispersion Energy =           0.0000000000000000
    PCM Polarization Energy =               0.0000000000000000
    EFP Energy =                            0.0000000000000000
    Total Energy =                       -426.3123785169727853
    Molecular point group: c1
  Basis Set: CC-PVTZ
  Basis Set:

  -Total Gradient:
     Atom            X                  Y                   Z
    ------   -----------------  -----------------  -----------------
       1       -0.000002941361    -0.000001853860    -0.000005871345
       2       -0.000006025962     0.000000003071     0.000000922110
       3        0.000009312489     0.000012940510    -0.000009421481
       4        0.000008638828    -0.000003989104    -0.000001044810
       5       -0.000000291463    -0.000003611981     0.000001601028
       6        0.000009230336     0.000010753596     0.000003875728
       7       -0.000001727255     0.000002783220    -0.000000416982
       8       -0.000006210628    -0.000000720088     0.000002147054
       9       -0.000002137096    -0.000009931436    -0.000011349128
      10        0.000002125831    -0.000003159879    -0.000000229448
      11       -0.000001976867    -0.000000876107     0.000005593419
      12       -0.002011142083    -0.000766368160     0.002635257942
      13        0.000004612033     0.000004395428     0.000019802104
      14       -0.000003118620    -0.000001983996     0.000007210754
      15        0.002913033743     0.000097069885    -0.003476836207
      16        0.000018120072    -0.000018600044    -0.000013534961
      17       -0.001414610192     0.005089498786    -0.000217859756
      18        0.000000162704    -0.000003689858    -0.000003655027
      19       -0.000001583191    -0.000000425158     0.000001570959
      20        0.000003051855     0.000004701670     0.000005127773
      21        0.000485597376    -0.004403369212     0.001063317013
      22        0.000000137023     0.000006231904     0.000001933038
      23       -0.000006202085    -0.000001761908    -0.000002672338
      24       -0.000000360535    -0.000003720467    -0.000001537121
      25        0.000000750006    -0.000005149950    -0.000005434677
      26       -0.000000405179     0.000001104640     0.000003312064
      27        0.000001810706     0.000001926234    -0.000000742928
      28        0.000002149515    -0.000002197737    -0.000001064780

  **** Optimization is complete! (in 20 steps) ****
    Final optimized geometry and variables:
    Molecular point group: c1

    Geometry (in Angstrom), charge = 0, multiplicity = 1:

    H            2.476491152308     3.814421678509     2.553082038870
    C            1.864118365803     3.635156175011     1.676889692318
    C            1.922871360945     2.171248443225     1.254331431649
    H            0.848466518150     3.929603227804     1.918009723631
    H            2.219046635557     4.288368034415     0.886064944638
    C            1.084099317505     1.884980612025     0.010342312148
    H            1.582103477219     1.546565147751     2.070414872604
    H            2.956479402906     1.896283287084     1.057150185635
    C            1.117365714687     0.428045022120    -0.439634074050
    H            0.056091284408     2.176422371858     0.192595115882
    H            1.445350355250     2.502701280545    -0.806878265435
    C            0.290869039017    -0.531659172689     0.394332847755
    H            0.766074612505     0.334118528030    -1.464389221057
    H            2.137512036798     0.051255659075    -0.453719545584
    C            0.266352618622    -1.982041296228    -0.056753585286
    O           -0.319708434458    -0.181565415056     1.351819701969
    C           -0.889053053492    -2.343218734126    -1.032139324647
    H            0.163018943774    -2.564924794012     0.848122254729
    H            1.215105072846    -2.241550528457    -0.509512215726
    C           -2.051814247030    -1.357910129160    -1.129459257561
    H           -0.477879832840    -2.533795476254    -2.017957996846
    H           -1.287902755026    -3.300054761846    -0.713018665108
    C           -3.148774791760    -1.860212780422    -2.062281000950
    H           -1.700268111602    -0.394223442039    -1.485284878062
    H           -2.463333499677    -1.184221538002    -0.142338793352
    H           -2.771109202429    -2.015196656695    -3.067660318841
    H           -3.556607610551    -2.803264064631    -1.714285926478
    H           -3.964556191346    -1.149455033083    -2.121285132119

  Mulliken Charges: (a.u.)
   Center  Symbol    Alpha    Beta     Spin     Total
       1     H     0.44870  0.44870  0.00000  0.10260
       2     C     3.15177  3.15177  0.00000 -0.30354
       3     C     3.08324  3.08324  0.00000 -0.16648
       4     H     0.45236  0.45236  0.00000  0.09527
       5     H     0.45749  0.45749  0.00000  0.08503
       6     C     3.08748  3.08748  0.00000 -0.17497
       7     H     0.44315  0.44315  0.00000  0.11370
       8     H     0.45898  0.45898  0.00000  0.08205
       9     C     3.12911  3.12911  0.00000 -0.25823
      10     H     0.44712  0.44712  0.00000  0.10577
      11     H     0.44816  0.44816  0.00000  0.10367
      12     C     2.86504  2.86504  0.00000  0.26991
      13     H     0.43403  0.43403  0.00000  0.13193
      14     H     0.44039  0.44039  0.00000  0.11922
      15     C     3.09677  3.09677  0.00000 -0.19354
      16     O     4.18549  4.18549  0.00000 -0.37097
      17     C     3.10535  3.10535  0.00000 -0.21070
      18     H     0.43782  0.43782  0.00000  0.12436
      19     H     0.44322  0.44322  0.00000  0.11355
      20     C     3.08797  3.08797  0.00000 -0.17594
      21     H     0.44865  0.44865  0.00000  0.10270
      22     H     0.44672  0.44672  0.00000  0.10657
      23     C     3.15174  3.15174  0.00000 -0.30349
      24     H     0.45459  0.45459  0.00000  0.09082
      25     H     0.43840  0.43840  0.00000  0.12320
      26     H     0.45638  0.45638  0.00000  0.08724
      27     H     0.45370  0.45370  0.00000  0.09260
      28     H     0.44618  0.44618  0.00000  0.10765

   Total alpha = 40.00000, Total beta = 40.00000, Total charge = -0.00000

*** Psi4 exiting successfully. Buy a developer a beer!
