  ==> Input File <==

--------------------------------------------------------------------------
set {
	reference rhf
	basis 6-31G*
}

set_num_threads( 4 )
memory 2 gb

molecule MOL {
0 1

O	 0.608139	 1.330448	 -0.223749
C	 0.486307	 0.169203	 0.000779
C	 1.608116	 -0.841643	 0.000302
O	 -0.676043	 -0.401606	 0.284901
C	 2.990107	 -0.200498	 -0.000684
H	 1.468623	 -1.481519	 -0.865924
H	 1.469683	 -1.481289	 0.866878
H	 3.129736	 0.423364	 -0.875135
H	 3.757882	 -0.966877	 -0.001197
H	 3.130964	 0.423383	 0.873533
C	 -1.828269	 0.434190	 0.319849
C	 -3.014825	 -0.442680	 0.659695
H	 -1.946847	 0.911527	 -0.643309
H	 -1.679260	 1.209425	 1.059036
H	 -3.147266	 -1.217209	 -0.087113
H	 -3.918624	 0.156836	 0.696794
H	 -2.878342	 -0.917690	 1.624575

	symmetry c1
}
set optking {
	frozen_dihedral = ("
		4 2 3 6
	")
}

ee = optimize('scf')
oeprop('DIPOLE', 'QUADRUPOLE', 'MULLIKEN_CHARGES')
f=open( 'psi4out.xyz', 'w' )
f.write( "17  " )
f.write( str(ee) + "\n" )
f.write( MOL.save_string_xyz() )
f.close()
--------------------------------------------------------------------------

    Molecular point group: c1
  Charge       = 0
  Multiplicity = 1
  Basis Set: 6-31G*
  Basis Set:
  @DF-RHF Final Energy:  -344.91177430126527
    Total Energy =                       -344.9117743012652682
    Molecular point group: c1
  Basis Set: 6-31G*
  Basis Set:
  Basis Set: 6-31G*
  Basis Set:
  @DF-RHF Final Energy:  -344.91178531351409
    Total Energy =                       -344.9117853135140876
  Basis Set: 6-31G*
  Basis Set:
  Basis Set: 6-31G*
  Basis Set:
  @DF-RHF Final Energy:  -344.91167724545397
    Total Energy =                       -344.9116772454539159
  Basis Set: 6-31G*
  Basis Set:
  Basis Set: 6-31G*
  Basis Set:
  @DF-RHF Final Energy:  -344.91183527532854
    Total Energy =                       -344.9118352753284853
  Basis Set: 6-31G*
  Basis Set:
  Charge       = 0
  Multiplicity = 1
  Basis Set: 6-31G*
  Basis Set:

    Orbital Energies (a.u.)
    -----------------------

    Doubly Occupied:

       1A    -20.601176     2A    -20.544007     3A    -11.371312
       4A    -11.284793     5A    -11.237476     6A    -11.222346
       7A    -11.216050     8A     -1.467632     9A     -1.361819
      10A     -1.069923    11A     -1.031855    12A     -0.910597
      13A     -0.847541    14A     -0.773006    15A     -0.695279
      16A     -0.689516    17A     -0.664591    18A     -0.629433
      19A     -0.582551    20A     -0.572751    21A     -0.558202
      22A     -0.523614    23A     -0.520050    24A     -0.513670
      25A     -0.504471    26A     -0.492524    27A     -0.452641
      28A     -0.435871

  @DF-RHF Final Energy:  -344.91183523123590

   => Energetics <=

    Nuclear Repulsion Energy =            314.6931681952100348
    One-Electron Energy =               -1093.6606166021233548
    Two-Electron Energy =                 434.0556131756771947
    DFT Exchange-Correlation Energy =       0.0000000000000000
    Empirical Dispersion Energy =           0.0000000000000000
    PCM Polarization Energy =               0.0000000000000000
    EFP Energy =                            0.0000000000000000
    Total Energy =                       -344.9118352312360685
    Molecular point group: c1
  Basis Set: 6-31G*
  Basis Set:

  -Total Gradient:
     Atom            X                  Y                   Z
    ------   -----------------  -----------------  -----------------
       1        0.000008994561    -0.000005457074     0.000088205365
       2       -0.000053067640    -0.000017043449    -0.000853064013
       3       -0.000387162810    -0.000420299479     0.000471571450
       4        0.000097225880     0.000080675245     0.000645619866
       5        0.000010373900     0.000003251284     0.000073639058
       6        0.000321504175     0.000360812557    -0.000317892405
       7       -0.000002303408     0.000020810150    -0.000003230161
       8       -0.000017640297    -0.000014141039     0.000000373935
       9        0.000002280193    -0.000002072017     0.000007432141
      10        0.000021746252     0.000012905586    -0.000001685999
      11       -0.000036469141    -0.000069449530    -0.000352457614
      12        0.000015570708     0.000017934640     0.000100823320
      13       -0.000029968627     0.000014499052     0.000070089535
      14        0.000046570165     0.000015094786     0.000059150832
      15        0.000026929646     0.000024349012    -0.000007610995
      16        0.000001943096     0.000002428496     0.000009610148
      17       -0.000026526653    -0.000024298221     0.000009425536

  **** Optimization is complete! (in 5 steps) ****
    Final optimized geometry and variables:
    Molecular point group: c1

    Geometry (in Angstrom), charge = 0, multiplicity = 1:

    O            0.600811356510     1.318695058838    -0.352006698923
    C            0.476133240130     0.156264378019    -0.134817756168
    C            1.596778439518    -0.856169583560    -0.146245361372
    O           -0.688558935862    -0.414308191554     0.139060475035
    C            2.978779759477    -0.213688167729    -0.166947879976
    H            1.449303639511    -1.479406216031    -1.024690082134
    H            1.470901641388    -1.508208003935     0.710981053390
    H            3.097018200402     0.424859432064    -1.033114151419
    H            3.746747465593    -0.979275782447    -0.196289332507
    H            3.140057498576     0.394873435109     0.715359305666
    C           -1.842556287573     0.419665640712     0.151790535301
    C           -3.029920097325    -0.453868172780     0.497419715083
    H           -1.955125320468     0.881728926419    -0.819508143210
    H           -1.699970229775     1.206584895184     0.879730333289
    H           -3.156102785007    -1.240145588825    -0.238135764257
    H           -3.934918184952     0.144596552241     0.519200272228
    H           -2.899177112345    -0.913640058973     1.470432578147

  Mulliken Charges: (a.u.)
   Center  Symbol    Alpha    Beta     Spin     Total
       1     O     4.28647  4.28647  0.00000 -0.57295
       2     C     2.60518  2.60518  0.00000  0.78965
       3     C     3.20539  3.20539  0.00000 -0.41077
       4     O     4.31313  4.31313  0.00000 -0.62627
       5     C     3.23952  3.23952  0.00000 -0.47904
       6     H     0.40044  0.40044  0.00000  0.19911
       7     H     0.40094  0.40094  0.00000  0.19811
       8     H     0.40708  0.40708  0.00000  0.18585
       9     H     0.41801  0.41801  0.00000  0.16398
      10     H     0.41257  0.41257  0.00000  0.17486
      11     C     3.00231  3.00231  0.00000 -0.00462
      12     C     3.24844  3.24844  0.00000 -0.49688
      13     H     0.41066  0.41066  0.00000  0.17869
      14     H     0.40984  0.40984  0.00000  0.18033
      15     H     0.41191  0.41191  0.00000  0.17619
      16     H     0.41629  0.41629  0.00000  0.16742
      17     H     0.41183  0.41183  0.00000  0.17634

   Total alpha = 28.00000, Total beta = 28.00000, Total charge = -0.00000
