  ==> Input File <==

--------------------------------------------------------------------------
set {
	reference rhf
	basis 6-31G*
}

set_num_threads( 4 )
memory 2 gb

molecule MOL {
0 1

H	 -3.420663	 1.227371	 -1.044276
O	 -3.452007	 0.283848	 -0.965577
C	 -3.181085	 -0.079926	 0.364119
C	 -1.765924	 0.277073	 0.805136
H	 -3.327791	 -1.152017	 0.410903
H	 -3.905698	 0.375695	 1.036898
C	 -1.108778	 1.351220	 -0.062553
H	 -1.790975	 0.608212	 1.843732
H	 -1.163977	 -0.629944	 0.790987
C	 0.302127	 1.718115	 0.402112
H	 -1.735206	 2.237940	 -0.067610
H	 -1.069433	 0.999698	 -1.092251
C	 0.955667	 2.789577	 -0.474780
H	 0.257235	 2.058914	 1.433742
H	 0.926860	 0.825751	 0.402306
C	 2.403958	 3.127473	 -0.102710
H	 0.355650	 3.697590	 -0.440311
H	 0.935048	 2.452632	 -1.509120
C	 2.570971	 3.788888	 1.266612
H	 2.808182	 3.792541	 -0.862037
H	 3.006012	 2.221836	 -0.142130
H	 1.969898	 4.691391	 1.339676
H	 3.606402	 4.068162	 1.436102
H	 2.276283	 3.128712	 2.075618

	symmetry c1
}
set optking {
	frozen_dihedral = ("
		7 4 3 2
	")
}

ee = optimize('scf')
oeprop('DIPOLE', 'QUADRUPOLE', 'MULLIKEN_CHARGES')
f=open( 'psi4out.xyz', 'w' )
f.write( "24  " )
f.write( str(ee) + "\n" )
f.write( MOL.save_string_xyz() )
f.close()
--------------------------------------------------------------------------

    Molecular point group: c1
  Charge       = 0
  Multiplicity = 1
  Basis Set: 6-31G*
  Basis Set:
  @DF-RHF Final Energy:  -349.23977355106973
    Total Energy =                       -349.2397735510700727
    Molecular point group: c1
  Basis Set: 6-31G*
  Basis Set:
  Basis Set: 6-31G*
  Basis Set:
  @DF-RHF Final Energy:  -349.24027755792895
    Total Energy =                       -349.2402775579290619
  Basis Set: 6-31G*
  Basis Set:
  Basis Set: 6-31G*
  Basis Set:
  @DF-RHF Final Energy:  -349.24096990527767
    Total Energy =                       -349.2409699052777796
  Basis Set: 6-31G*
  Basis Set:
  Basis Set: 6-31G*
  Basis Set:
  @DF-RHF Final Energy:  -349.24097342057263
    Total Energy =                       -349.2409734205728000
  Basis Set: 6-31G*
  Basis Set:
  Basis Set: 6-31G*
  Basis Set:
  @DF-RHF Final Energy:  -349.24098373657819
    Total Energy =                       -349.2409837365781300
  Basis Set: 6-31G*
  Basis Set:
  Basis Set: 6-31G*
  Basis Set:
  @DF-RHF Final Energy:  -349.24098614827443
    Total Energy =                       -349.2409861482746010
  Basis Set: 6-31G*
  Basis Set:
  Charge       = 0
  Multiplicity = 1
  Basis Set: 6-31G*
  Basis Set:

    Orbital Energies (a.u.)
    -----------------------

    Doubly Occupied:

       1A    -20.552318     2A    -11.267918     3A    -11.217692
       4A    -11.216333     5A    -11.215828     6A    -11.215038
       7A    -11.214149     8A    -11.208828     9A     -1.359321
      10A     -1.090409    11A     -1.047341    12A     -0.985174
      13A     -0.919190    14A     -0.853949    15A     -0.793807
      16A     -0.778978    17A     -0.692245    18A     -0.648842
      19A     -0.625161    20A     -0.609365    21A     -0.605484
      22A     -0.587571    23A     -0.559728    24A     -0.541991
      25A     -0.518950    26A     -0.511876    27A     -0.493700
      28A     -0.483967    29A     -0.465336    30A     -0.460630
      31A     -0.455114    32A     -0.445241    33A     -0.421311

  @DF-RHF Final Energy:  -349.24098650092151

   => Energetics <=

    Nuclear Repulsion Energy =            385.2761829949263301
    One-Electron Energy =               -1236.9087704206485796
    Two-Electron Energy =                 502.3916009248005707
    DFT Exchange-Correlation Energy =       0.0000000000000000
    Empirical Dispersion Energy =           0.0000000000000000
    PCM Polarization Energy =               0.0000000000000000
    EFP Energy =                            0.0000000000000000
    Total Energy =                       -349.2409865009216787
    Molecular point group: c1
  Basis Set: 6-31G*
  Basis Set:

  -Total Gradient:
     Atom            X                  Y                   Z
    ------   -----------------  -----------------  -----------------
       1       -0.000004128045     0.000000499783    -0.000019063413
       2       -0.001359784252     0.003569738041     0.001160965523
       3        0.002447343669    -0.006004671112    -0.002530947927
       4       -0.002468583866     0.005025561703     0.003514884542
       5        0.000012087846    -0.000006014459     0.000027746227
       6        0.000011690843     0.000001791571     0.000010089274
       7        0.001393922937    -0.002574320213    -0.002168327132
       8       -0.000017552469    -0.000003223619     0.000001090092
       9       -0.000008215287    -0.000005746329     0.000008757601
      10       -0.000014459698    -0.000002843684     0.000002266173
      11        0.000004909564     0.000007506782     0.000004969634
      12        0.000003473919     0.000005311273    -0.000006691589
      13       -0.000017474559     0.000012245206     0.000005411855
      14        0.000000527560    -0.000008630974    -0.000008646831
      15        0.000000090156    -0.000004832213    -0.000006757963
      16        0.000004446887    -0.000022157131     0.000013877043
      17       -0.000008524743    -0.000000296740    -0.000016110603
      18        0.000005692504    -0.000012209831     0.000007327492
      19        0.000006592622     0.000001494360     0.000007063757
      20       -0.000010201700     0.000006404815     0.000008159121
      21        0.000010431644     0.000002612663    -0.000011374567
      22        0.000001775370     0.000004474269     0.000001044839
      23       -0.000001549161    -0.000001629815     0.000002529703
      24        0.000007488263     0.000008935654    -0.000008262850

  **** Optimization is complete! (in 7 steps) ****
    Final optimized geometry and variables:
    Molecular point group: c1

    Geometry (in Angstrom), charge = 0, multiplicity = 1:

    H           -3.120195728426    -0.485228335264    -1.198474630893
    O           -3.056511855056    -1.424463137330    -1.105484548668
    C           -2.727696430063    -1.743190198757     0.222517899624
    C           -1.298066540446    -1.341011997389     0.649814135479
    H           -2.855603597634    -2.813114139699     0.308842243465
    H           -3.451698858980    -1.282844159909     0.892182286578
    C           -0.640237624846    -0.267068489356    -0.220676147238
    H           -1.320571387262    -1.013771635471     1.686262633908
    H           -0.659520047713    -2.220736952234     0.625514139198
    C            0.768437440371     0.093000002268     0.256400319803
    H           -1.248957826328     0.638161585040    -0.223636542525
    H           -0.599874197139    -0.615829976524    -1.246926887671
    C            1.435773957002     1.159247570309    -0.616472279908
    H            0.718957532959     0.432891357718     1.287656499781
    H            1.385037869054    -0.804550341678     0.258940445380
    C            2.884542578976     1.484691053057    -0.235196687870
    H            0.844074879917     2.073087307772    -0.585326030496
    H            1.418765020022     0.822365712151    -1.650875232601
    C            3.048889957121     2.143379052433     1.135735534619
    H            3.298607706018     2.146967567436    -0.991534310856
    H            3.478926207526     0.574019640485    -0.272168156169
    H            2.455406212266     3.051132804809     1.206152476122
    H            4.085651661984     2.413488976970     1.311473169835
    H            2.743793271648     1.485123695460     1.942358268655

  Mulliken Charges: (a.u.)
   Center  Symbol    Alpha    Beta     Spin     Total
       1     H     0.27996  0.27996  0.00000  0.44008
       2     O     4.36937  4.36937  0.00000 -0.73873
       3     C     2.99520  2.99520  0.00000  0.00959
       4     C     3.17385  3.17385  0.00000 -0.34771
       5     H     0.41369  0.41369  0.00000  0.17262
       6     H     0.43054  0.43054  0.00000  0.13892
       7     C     3.15878  3.15878  0.00000 -0.31757
       8     H     0.42118  0.42118  0.00000  0.15765
       9     H     0.41827  0.41827  0.00000  0.16347
      10     C     3.15375  3.15375  0.00000 -0.30750
      11     H     0.43269  0.43269  0.00000  0.13462
      12     H     0.40940  0.40940  0.00000  0.18120
      13     C     3.15260  3.15260  0.00000 -0.30520
      14     H     0.42197  0.42197  0.00000  0.15607
      15     H     0.42285  0.42285  0.00000  0.15430
      16     C     3.15242  3.15242  0.00000 -0.30484
      17     H     0.42520  0.42520  0.00000  0.14961
      18     H     0.42142  0.42142  0.00000  0.15717
      19     C     3.24120  3.24120  0.00000 -0.48239
      20     H     0.42086  0.42086  0.00000  0.15827
      21     H     0.42298  0.42298  0.00000  0.15405
      22     H     0.42261  0.42261  0.00000  0.15479
      23     H     0.41909  0.41909  0.00000  0.16182
      24     H     0.42015  0.42015  0.00000  0.15971

   Total alpha = 33.00000, Total beta = 33.00000, Total charge =  0.00000
