                              Psi4 1.0.54 Driver

  ==> Input File <==

--------------------------------------------------------------------------
set {
	reference rhf
	basis cc-pvtz
}

set_num_threads( 4 )
memory 2 gb

molecule MOL {
0 1

O	 1.268647	 1.217027	 0.432468
C	 1.121787	 0.124983	 0.000110
C	 -0.170912	 -0.649867	 -0.000147
O	 2.100454	 -0.572741	 -0.552855
C	 -1.413045	 0.229353	 0.001137
H	 -0.152877	 -1.303435	 -0.866175
H	 -0.152278	 -1.305116	 0.864586
C	 -2.702562	 -0.586401	 0.000228
H	 -1.390744	 0.882001	 -0.864365
H	 -1.390549	 0.879837	 0.868264
C	 -3.953810	 0.284959	 -0.000782
H	 -2.717793	 -1.238567	 -0.869075
H	 -2.719108	 -1.238472	 0.869576
H	 -3.983727	 0.924403	 -0.876454
H	 -4.852989	 -0.320147	 -0.001515
H	 -3.985140	 0.924399	 0.874841
C	 3.374159	 0.036015	 -0.619264
H	 3.332578	 0.944859	 -1.201072
H	 4.022439	 -0.681413	 -1.095603
H	 3.738144	 0.267750	 0.370704

	symmetry c1
}
set optking {
	frozen_dihedral = ("
		1 2 3 6
	")
}

ee,wfn = optimize('scf', return_wfn=True)
oeprop( wfn, 'DIPOLE', 'QUADRUPOLE', 'MULLIKEN_CHARGES')
f=open( 'psi4out.xyz', 'w' )
f.write( "20  " )
f.write( str(ee) + "\n" )
f.write( MOL.save_string_xyz() )
f.close()
--------------------------------------------------------------------------

    Molecular point group: c1
  Charge       = 0
  Multiplicity = 1
  Basis Set: CC-PVTZ
  Basis Set:
  @DF-RHF Final Energy:  -384.08257017868868
    Total Energy =                       -384.0825701786885702
    Molecular point group: c1
  Basis Set: CC-PVTZ
  Basis Set:
  Basis Set: CC-PVTZ
  Basis Set:
  @DF-RHF Final Energy:  -384.03312213878644
    Total Energy =                       -384.0331221387860978
  Basis Set: CC-PVTZ
  Basis Set:
  Basis Set: CC-PVTZ
  Basis Set:
  @DF-RHF Final Energy:  -384.08018908671664
    Total Energy =                       -384.0801890867167003
  Basis Set: CC-PVTZ
  Basis Set:
  Basis Set: CC-PVTZ
  Basis Set:
  @DF-RHF Final Energy:  -384.08271709053446
    Total Energy =                       -384.0827170905339472
  Basis Set: CC-PVTZ
  Basis Set:
  Basis Set: CC-PVTZ
  Basis Set:
  @DF-RHF Final Energy:  -384.08241862200560
    Total Energy =                       -384.0824186220060028
  Basis Set: CC-PVTZ
  Basis Set:
  Basis Set: CC-PVTZ
  Basis Set:
  @DF-RHF Final Energy:  -384.08281974992485
    Total Energy =                       -384.0828197499253065
  Basis Set: CC-PVTZ
  Basis Set:
  Basis Set: CC-PVTZ
  Basis Set:
  @DF-RHF Final Energy:  -384.08282606752397
    Total Energy =                       -384.0828260675241381
  Basis Set: CC-PVTZ
  Basis Set:
  Charge       = 0
  Multiplicity = 1
  Basis Set: CC-PVTZ
  Basis Set:

    Orbital Energies (a.u.)
    -----------------------

    Doubly Occupied:

       1A    -20.597369     2A    -20.533245     3A    -11.364730
       4A    -11.278560     5A    -11.233670     6A    -11.219042
       7A    -11.218418     8A    -11.209139     9A     -1.472545
      10A     -1.365568    11A     -1.090233    12A     -1.025422
      13A     -0.970200    14A     -0.886942    15A     -0.804884
      16A     -0.770665    17A     -0.698749    18A     -0.686149
      19A     -0.675837    20A     -0.647425    21A     -0.599073
      22A     -0.593036    23A     -0.578877    24A     -0.545143
      25A     -0.536151    26A     -0.524565    27A     -0.501218
      28A     -0.478851    29A     -0.476317    30A     -0.470963
      31A     -0.460183    32A     -0.438846

  @DF-RHF Final Energy:  -384.08282692219700

   => Energetics <=

    Nuclear Repulsion Energy =            381.7145751414777806
    One-Electron Energy =               -1279.6907716594391786
    Two-Electron Energy =                 513.8933695957643977
    DFT Exchange-Correlation Energy =       0.0000000000000000
    Empirical Dispersion Energy =           0.0000000000000000
    PCM Polarization Energy =               0.0000000000000000
    EFP Energy =                            0.0000000000000000
    Total Energy =                       -384.0828269221970004
    Molecular point group: c1
  Basis Set: CC-PVTZ
  Basis Set:

  -Total Gradient:
     Atom            X                  Y                   Z
    ------   -----------------  -----------------  -----------------
       1        0.000091935348    -0.000696140731     0.000702206227
       2       -0.000185935790     0.000886388923    -0.000875038994
       3       -0.000236735054     0.000694048652    -0.000101393060
       4        0.000106065197    -0.000068559629    -0.000040696539
       5        0.000012473245    -0.000012939776     0.000015376211
       6        0.000258899457    -0.000841049893     0.000314266673
       7        0.000006844287     0.000017728576     0.000000718825
       8       -0.000005942007     0.000016161027    -0.000001192096
       9        0.000004453435     0.000013656173    -0.000016401720
      10       -0.000003449113     0.000018924365     0.000028700175
      11        0.000001231978    -0.000009003655    -0.000003676655
      12       -0.000004322978    -0.000002801706    -0.000016471749
      13       -0.000000857976    -0.000018424153     0.000014944292
      14        0.000001420692     0.000015073139    -0.000013396946
      15       -0.000015669754    -0.000006512252    -0.000001666988
      16        0.000003543348     0.000003227696     0.000017318898
      17       -0.000011665949    -0.000027079897    -0.000049346028
      18        0.000010150629    -0.000050663555     0.000022677360
      19       -0.000022014166     0.000059428822     0.000056147074
      20       -0.000010424824     0.000008537875    -0.000053074961

  **** Optimization is complete! (in 8 steps) ****
    Final optimized geometry and variables:
    Molecular point group: c1

    Geometry (in Angstrom), charge = 0, multiplicity = 1:

    O            1.376823485844     0.812783033750     0.844842435810
    C            1.124485710420    -0.089437462924     0.120897616308
    C           -0.259586443345    -0.620882167910    -0.152486958537
    O            2.050189700728    -0.782938814762    -0.520424245531
    C           -1.362238932958     0.404673252899     0.077146375505
    H           -0.283318119029    -1.022304058780    -1.157413492667
    H           -0.389686940226    -1.470557715897     0.513123784164
    C           -2.754439554711    -0.176254284442    -0.151593376914
    H           -1.208042867279     1.250883252519    -0.585474207928
    H           -1.283679931067     0.791565529496     1.085628910618
    C           -3.865186302968     0.844557109733     0.070145599924
    H           -2.822830030692    -0.568646355041    -1.162739743047
    H           -2.905135723989    -1.022221521077     0.513884635808
    H           -3.762391085452     1.687031799807    -0.605472936858
    H           -4.841325420505     0.403997076551    -0.096401233068
    H           -3.843921382935     1.230708721617     1.083524237356
    C            3.398989065818    -0.423444538880    -0.298596281915
    H            3.575873060401     0.597784868131    -0.601289258302
    H            3.989059728418    -1.097100400936    -0.898288301593
    H            3.655521251617    -0.530997217374     0.744845212394

  Mulliken Charges: (a.u.)
   Center  Symbol    Alpha    Beta     Spin     Total
       1     O     4.19878  4.19878  0.00000 -0.39756
       2     C     2.81151  2.81151  0.00000  0.37697
       3     C     3.09347  3.09347  0.00000 -0.18694
       4     O     4.14516  4.14516  0.00000 -0.29032
       5     C     3.08446  3.08446  0.00000 -0.16891
       6     H     0.43805  0.43805  0.00000  0.12389
       7     H     0.44409  0.44409  0.00000  0.11183
       8     C     3.08713  3.08713  0.00000 -0.17425
       9     H     0.45099  0.45099  0.00000  0.09802
      10     H     0.44138  0.44138  0.00000  0.11724
      11     C     3.14911  3.14911  0.00000 -0.29823
      12     H     0.45518  0.45518  0.00000  0.08964
      13     H     0.45458  0.45458  0.00000  0.09085
      14     H     0.45430  0.45430  0.00000  0.09141
      15     H     0.44833  0.44833  0.00000  0.10335
      16     H     0.45342  0.45342  0.00000  0.09316
      17     C     3.03627  3.03627  0.00000 -0.07253
      18     H     0.45426  0.45426  0.00000  0.09147
      19     H     0.44512  0.44512  0.00000  0.10975
      20     H     0.45441  0.45441  0.00000  0.09117

   Total alpha = 32.00000, Total beta = 32.00000, Total charge = -0.00000

*** Psi4 exiting successfully. Buy a developer a beer!
