                              Psi4 1.0.54 Driver

  ==> Input File <==

--------------------------------------------------------------------------
set {
	reference rhf
	basis cc-pvtz
}

set_num_threads( 4 )
memory 2 gb

molecule MOL {
0 1

O	 -0.234581	 -2.242966	 0.338291
C	 -1.297944	 -1.746933	 0.178178
C	 -2.587693	 -2.521959	 0.165236
O	 -1.481217	 -0.452708	 0.001092
H	 -2.684321	 -3.044981	 1.107144
H	 -3.441174	 -1.881599	 0.009834
H	 -2.534726	 -3.264521	 -0.619539
C	 -0.332055	 0.384012	 -0.000250
C	 0.892252	 -0.506059	 -0.000295
H	 -0.360822	 1.020205	 -0.874146
H	 -0.359817	 1.021310	 0.872861
C	 2.188199	 0.299473	 -0.001416
H	 0.857046	 -1.152781	 -0.871031
H	 0.857910	 -1.151798	 0.871202
C	 3.437151	 -0.577593	 -0.000991
H	 2.209565	 0.950707	 -0.871712
H	 2.210062	 0.952234	 0.867721
C	 4.732399	 0.226982	 -0.000914
H	 3.417321	 -1.229122	 -0.869998
H	 3.416993	 -1.228707	 0.868337
H	 4.797903	 0.863451	 -0.876963
H	 5.598517	 -0.424436	 -0.000420
H	 4.797415	 0.864118	 0.874691

	symmetry c1
}
set optking {
	frozen_dihedral = ("
		2 4 8 10
	")
}

ee,wfn = optimize('scf', return_wfn=True)
oeprop( wfn, 'DIPOLE', 'QUADRUPOLE', 'MULLIKEN_CHARGES')
f=open( 'psi4out.xyz', 'w' )
f.write( "23  " )
f.write( str(ee) + "\n" )
f.write( MOL.save_string_xyz() )
f.close()
--------------------------------------------------------------------------

    Molecular point group: c1
  Charge       = 0
  Multiplicity = 1
  Basis Set: CC-PVTZ
  Basis Set:
  @DF-RHF Final Energy:  -423.05543208007623
    Total Energy =                       -423.0554320800761161
    Molecular point group: c1
  Basis Set: CC-PVTZ
  Basis Set:
  Basis Set: CC-PVTZ
  Basis Set:
  @DF-RHF Final Energy:  -422.79060119619021
    Total Energy =                       -422.7906011961904369
  Basis Set: CC-PVTZ
  Basis Set:
  Basis Set: CC-PVTZ
  Basis Set:
  @DF-RHF Final Energy:  -422.96113531746261
    Total Energy =                       -422.9611353174624355
  Basis Set: CC-PVTZ
  Basis Set:
  Basis Set: CC-PVTZ
  Basis Set:
  @DF-RHF Final Energy:  -423.09098478315627
    Total Energy =                       -423.0909847831559318
  Basis Set: CC-PVTZ
  Basis Set:
  @DF-RHF Final Energy:  -423.11459541463995
    Total Energy =                       -423.1145954146401209
  @DF-RHF Final Energy:  -423.11956884888571
    Total Energy =                       -423.1195688488858195
  @DF-RHF Final Energy:  -423.11905836974785
    Total Energy =                       -423.1190583697473357
  @DF-RHF Final Energy:  -423.12087906652755
    Total Energy =                       -423.1208790665277775
  @DF-RHF Final Energy:  -423.12189205035759
    Total Energy =                       -423.1218920503580421
  @DF-RHF Final Energy:  -423.12192901755026
    Total Energy =                       -423.1219290175506558
  @DF-RHF Final Energy:  -423.12193632665912
    Total Energy =                       -423.1219363266593518
  @DF-RHF Final Energy:  -423.12194249891769
    Total Energy =                       -423.1219424989174058
  @DF-RHF Final Energy:  -423.12173162725861
    Total Energy =                       -423.1217316272585549
  @DF-RHF Final Energy:  -423.12202438842189
    Total Energy =                       -423.1220243884217780
  @DF-RHF Final Energy:  -421.30119777174156
    Total Energy =                       -421.3011977717414993
  @DF-RHF Final Energy:  -421.54786818317467
    Total Energy =                       -421.5478681831750691
  @DF-RHF Final Energy:  -421.90707373044216
    Total Energy =                       -421.9070737304421073
  @DF-RHF Final Energy:  -422.28215499612418
    Total Energy =                       -422.2821549961240635
  @DF-RHF Final Energy:  -422.61144304597644
    Total Energy =                       -422.6114430459764435
  @DF-RHF Final Energy:  -422.84177360311162
    Total Energy =                       -422.8417736031117329
  @DF-RHF Final Energy:  -422.99279955613349
    Total Energy =                       -422.9927995561337184
  @DF-RHF Final Energy:  -423.08793290678375
    Total Energy =                       -423.0879329067836352
  @DF-RHF Final Energy:  -423.11654990648526
    Total Energy =                       -423.1165499064852611
  @DF-RHF Final Energy:  -423.12140313015874
    Total Energy =                       -423.1214031301583418
  @DF-RHF Final Energy:  -423.09205613265340
    Total Energy =                       -423.0920561326533971
  @DF-RHF Final Energy:  -423.12148821884222
    Total Energy =                       -423.1214882188422735
  @DF-RHF Final Energy:  -423.12234161429961
    Total Energy =                       -423.1223416143001259
  @DF-RHF Final Energy:  -423.12022226301951
    Total Energy =                       -423.1202222630197411
  @DF-RHF Final Energy:  -423.12217958832451
    Total Energy =                       -423.1221795883242294
  @DF-RHF Final Energy:  -423.12259356148377
    Total Energy =                       -423.1225935614834270
  @DF-RHF Final Energy:  -423.12223633136364
    Total Energy =                       -423.1222363313636379
  @DF-RHF Final Energy:  -423.12265338458781
    Total Energy =                       -423.1226533845879203
  @DF-RHF Final Energy:  -423.12282460726146
    Total Energy =                       -423.1228246072619186
  Basis Set: CC-PVTZ
  Basis Set:
  @DF-RHF Final Energy:  -423.12285393201574
    Total Energy =                       -423.1228539320155733
  Basis Set: CC-PVTZ
  Basis Set:
  Basis Set: CC-PVTZ
  Basis Set:
  @DF-RHF Final Energy:  -423.12286177106165
    Total Energy =                       -423.1228617710612525
  Basis Set: CC-PVTZ
  Basis Set:
  Basis Set: CC-PVTZ
  Basis Set:
  @DF-RHF Final Energy:  -423.12286300681671
    Total Energy =                       -423.1228630068166012
  Basis Set: CC-PVTZ
  Basis Set:
  Charge       = 0
  Multiplicity = 1
  Basis Set: CC-PVTZ
  Basis Set:

    Orbital Energies (a.u.)
    -----------------------

    Doubly Occupied:

       1A    -20.590230     2A    -20.527570     3A    -11.367461
       4A    -11.286330     5A    -11.227865     6A    -11.217947
       7A    -11.215424     8A    -11.215098     9A    -11.208252
      10A     -1.462155    11A     -1.364020    12A     -1.092027
      13A     -1.041357    14A     -1.000654    15A     -0.933364
      16A     -0.858315    17A     -0.797944    18A     -0.748467
      19A     -0.692055    20A     -0.679292    21A     -0.674946
      22A     -0.644381    23A     -0.605918    24A     -0.590114
      25A     -0.581057    26A     -0.563250    27A     -0.558010
      28A     -0.534263    29A     -0.525869    30A     -0.513542
      31A     -0.497969    32A     -0.475493    33A     -0.468655
      34A     -0.454398    35A     -0.443047    36A     -0.430089

  @DF-RHF Final Energy:  -423.12286328791720

   => Energetics <=

    Nuclear Repulsion Energy =            458.0404937442683604
    One-Electron Energy =               -1484.1530544429938345
    Two-Electron Energy =                 602.9896974108080485
    DFT Exchange-Correlation Energy =       0.0000000000000000
    Empirical Dispersion Energy =           0.0000000000000000
    PCM Polarization Energy =               0.0000000000000000
    EFP Energy =                            0.0000000000000000
    Total Energy =                       -423.1228632879174256
    Molecular point group: c1
  Basis Set: CC-PVTZ
  Basis Set:

  -Total Gradient:
     Atom            X                  Y                   Z
    ------   -----------------  -----------------  -----------------
       1        0.000009760665    -0.000009395884    -0.000034499902
       2       -0.001653896646     0.000981680762     0.000034398737
       3        0.000043250233     0.000069383008    -0.000062043078
       4        0.002253568586    -0.001565533993    -0.000215959199
       5       -0.000004209742    -0.000008554999     0.000001563933
       6        0.000012134577    -0.000006566582     0.000016984281
       7       -0.000006457654     0.000006099962     0.000011723916
       8        0.000622488735     0.000238574033     0.001651394636
       9        0.000009134874    -0.000018467219    -0.000003144248
      10       -0.001265154118     0.000284751089    -0.001396018635
      11       -0.000009543252     0.000006607416    -0.000014905604
      12        0.000010902940     0.000029674042     0.000000860956
      13       -0.000009567030    -0.000002189217     0.000005986537
      14       -0.000005888656     0.000006159870     0.000005569974
      15       -0.000008601053    -0.000012765842     0.000000320194
      16        0.000001909667    -0.000011068159    -0.000007722249
      17       -0.000005629738    -0.000000172766     0.000000793899
      18        0.000007239743     0.000018981397    -0.000002428988
      19       -0.000000509790     0.000000516928     0.000000473498
      20       -0.000004918754     0.000009307421     0.000006384661
      21        0.000002468861    -0.000012165450    -0.000005977098
      22        0.000000250297    -0.000004247796     0.000004293542
      23        0.000001267254    -0.000000608022     0.000001950243

  **** Optimization is complete! (in 37 steps) ****
    Final optimized geometry and variables:
    Molecular point group: c1

    Geometry (in Angstrom), charge = 0, multiplicity = 1:

    O           -1.006257165786    -2.031951862257    -0.357974721829
    C           -1.057938816781    -1.976351219040     0.822176796926
    C           -1.804153962883    -2.966289072996     1.676407336586
    O           -0.477172978347    -1.066497576111     1.580453070835
    H           -2.248219939080    -3.721583661033     1.048546988120
    H           -1.125107449028    -3.421042720951     2.385763017877
    H           -2.571879264252    -2.452285502698     2.240452750204
    C            0.251927038658     0.086285511142     1.153210124798
    C            0.256849402012     0.467402942479    -0.319547912660
    H           -0.181495519734     0.898376441127     1.720738685231
    H            1.265720620623    -0.062832105789     1.500182395904
    C            1.003324761818     1.788825588929    -0.501116142669
    H           -0.757823852872     0.566779527622    -0.682673042370
    H            0.724028879439    -0.305050864240    -0.911678018491
    C            1.070935529783     2.234324307748    -1.959348675431
    H            0.521950635209     2.567123222590     0.086734221838
    H            2.014668362241     1.694600849255    -0.111526345696
    C            1.813529901078     3.552783877383    -2.147723256677
    H            0.062476989963     2.328681237179    -2.351541225131
    H            1.554524894605     1.460155013851    -2.547671769826
    H            1.332737433815     4.355531904874    -1.598471957088
    H            1.843601005142     3.839545491597    -3.192483071930
    H            2.837212794624     3.479794317128    -1.795571578937

  Mulliken Charges: (a.u.)
   Center  Symbol    Alpha    Beta     Spin     Total
       1     O     4.19685  4.19685  0.00000 -0.39371
       2     C     2.81076  2.81076  0.00000  0.37848
       3     C     3.13500  3.13500  0.00000 -0.26999
       4     O     4.15574  4.15574  0.00000 -0.31149
       5     H     0.43927  0.43927  0.00000  0.12146
       6     H     0.44591  0.44591  0.00000  0.10819
       7     H     0.44712  0.44712  0.00000  0.10577
       8     C     2.97829  2.97829  0.00000  0.04342
       9     C     3.10178  3.10178  0.00000 -0.20355
      10     H     0.45250  0.45250  0.00000  0.09499
      11     H     0.45353  0.45353  0.00000  0.09293
      12     C     3.09379  3.09379  0.00000 -0.18757
      13     H     0.44363  0.44363  0.00000  0.11275
      14     H     0.43739  0.43739  0.00000  0.12523
      15     C     3.08257  3.08257  0.00000 -0.16514
      16     H     0.45625  0.45625  0.00000  0.08750
      17     H     0.45601  0.45601  0.00000  0.08798
      18     C     3.15086  3.15086  0.00000 -0.30172
      19     H     0.45250  0.45250  0.00000  0.09500
      20     H     0.45188  0.45188  0.00000  0.09624
      21     H     0.45549  0.45549  0.00000  0.08902
      22     H     0.44756  0.44756  0.00000  0.10489
      23     H     0.45534  0.45534  0.00000  0.08932

   Total alpha = 36.00000, Total beta = 36.00000, Total charge =  0.00000

*** Psi4 exiting successfully. Buy a developer a beer!
