  ==> Input File <==

--------------------------------------------------------------------------
set {
	reference rhf
	basis 6-31G*
}

set_num_threads( 1 )
memory 2 gb

molecule MOL {
0 1

O	 -1.276010	 1.052711	 -0.768302
C	 -1.204840	 0.067374	 -0.106123
C	 -2.388195	 -0.672128	 0.458071
O	 -0.067104	 -0.527208	 0.221609
H	 -2.388023	 -1.694060	 0.097175
H	 -3.300579	 -0.174919	 0.164318
H	 -2.315377	 -0.706351	 1.539059
C	 0.376476	 -0.479124	 1.585006
C	 1.885692	 -0.639359	 1.538310
C	 -0.313736	 -1.570218	 2.388603
H	 0.115477	 0.489659	 1.984813
H	 2.336079	 0.147515	 0.943980
H	 2.297940	 -0.590454	 2.540802
H	 2.156541	 -1.594893	 1.102135
H	 0.034937	 -1.553927	 3.416308
H	 -1.386271	 -1.423177	 2.393632
H	 -0.094407	 -2.546707	 1.968637

	symmetry c1
}
set optking {
	frozen_dihedral = ("
		11 8 4 2
	")
}

ee = energy('scf')
oeprop('DIPOLE', 'QUADRUPOLE', 'MULLIKEN_CHARGES')
f=open( 'psi4out.xyz', 'w' )
f.write( "17  " )
f.write( str(ee) + "\n" )
f.write( MOL.save_string_xyz() )
f.close()
--------------------------------------------------------------------------

    Molecular point group: c1

    Geometry (in Angstrom), charge = 0, multiplicity = 1:

       Center              X                  Y                   Z               Mass
    ------------   -----------------  -----------------  -----------------  -----------------
           O         -0.847062797856     1.452825209068    -1.531511579993    15.994914619560
           C         -0.775892797856     0.467488209068    -0.869332579993    12.000000000000
           C         -1.959247797856    -0.272013790932    -0.305138579993    12.000000000000
           O          0.361843202144    -0.127093790932    -0.541600579993    15.994914619560
           H         -1.959075797856    -1.293945790932    -0.666034579993     1.007825032070
           H         -2.871631797856     0.225195209068    -0.598891579993     1.007825032070
           H         -1.886429797856    -0.306236790932     0.775849420007     1.007825032070
           C          0.805423202144    -0.079009790932     0.821796420007    12.000000000000
           C          2.314639202144    -0.239244790932     0.775100420007    12.000000000000
           C          0.115211202144    -1.170103790932     1.625393420007    12.000000000000
           H          0.544424202144     0.889773209068     1.221603420007     1.007825032070
           H          2.765026202144     0.547629209068     0.180770420007     1.007825032070
           H          2.726887202144    -0.190339790932     1.777592420007     1.007825032070
           H          2.585488202144    -1.194778790932     0.338925420007     1.007825032070
           H          0.463884202144    -1.153812790932     2.653098420007     1.007825032070
           H         -0.957323797856    -1.023062790932     1.630422420007     1.007825032070
           H          0.334540202144    -2.146592790932     1.205427420007     1.007825032070

  Charge       = 0
  Multiplicity = 1
  Basis Set: 6-31G*
  Basis Set:

    Orbital Energies (a.u.)
    -----------------------

    Doubly Occupied:

       1A    -20.583952     2A    -20.551489     3A    -11.375010
       4A    -11.307917     5A    -11.230500     6A    -11.227813
       7A    -11.225659     8A     -1.460041     9A     -1.366425
      10A     -1.080159    11A     -1.020151    12A     -0.956086
      13A     -0.853245    14A     -0.777620    15A     -0.703090
      16A     -0.673005    17A     -0.667325    18A     -0.616112
      19A     -0.604517    20A     -0.585764    21A     -0.567774
      22A     -0.556746    23A     -0.550531    24A     -0.521133
      25A     -0.491246    26A     -0.481849    27A     -0.449561
      28A     -0.435718

  @DF-RHF Final Energy:  -344.87463035443051

   => Energetics <=

    Nuclear Repulsion Energy =            325.6558122916152911
    One-Electron Energy =               -1115.2199765810560166
    Two-Electron Energy =                 444.6895339350107861
    DFT Exchange-Correlation Energy =       0.0000000000000000
    Empirical Dispersion Energy =           0.0000000000000000
    PCM Polarization Energy =               0.0000000000000000
    EFP Energy =                            0.0000000000000000
    Total Energy =                       -344.8746303544298826

  Mulliken Charges: (a.u.)
   Center  Symbol    Alpha    Beta     Spin     Total
       1     O     4.25690  4.25690  0.00000 -0.51380
       2     C     2.62307  2.62307  0.00000  0.75387
       3     C     3.29568  3.29568  0.00000 -0.59135
       4     O     4.31365  4.31365  0.00000 -0.62730
       5     H     0.39897  0.39897  0.00000  0.20206
       6     H     0.39688  0.39688  0.00000  0.20624
       7     H     0.40936  0.40936  0.00000  0.18128
       8     C     2.93271  2.93271  0.00000  0.13459
       9     C     3.23934  3.23934  0.00000 -0.47868
      10     C     3.24559  3.24559  0.00000 -0.49119
      11     H     0.41218  0.41218  0.00000  0.17565
      12     H     0.40365  0.40365  0.00000  0.19269
      13     H     0.41871  0.41871  0.00000  0.16259
      14     H     0.41073  0.41073  0.00000  0.17853
      15     H     0.41528  0.41528  0.00000  0.16944
      16     H     0.41742  0.41742  0.00000  0.16516
      17     H     0.40989  0.40989  0.00000  0.18023

   Total alpha = 28.00000, Total beta = 28.00000, Total charge =  0.00000
