  ==> Input File <==

--------------------------------------------------------------------------
set {
	reference rhf
	basis 6-31G*
}

set_num_threads( 1 )
memory 2 gb

molecule MOL {
0 1

H	 1.882243	 -1.261976	 -0.028631
C	 1.951159	 -0.223429	 0.317018
C	 0.692068	 0.589600	 0.160137
O	 2.967809	 0.186620	 0.775726
C	 -0.558097	 -0.297372	 0.091132
H	 0.791645	 1.202255	 -0.728243
H	 0.616171	 1.253469	 1.020572
C	 -1.850991	 0.512573	 -0.019058
H	 -0.476753	 -0.965681	 -0.762987
H	 -0.604799	 -0.930658	 0.975228
C	 -3.096943	 -0.368295	 -0.099594
H	 -1.800724	 1.150330	 -0.898172
H	 -1.931651	 1.177355	 0.838044
H	 -3.060452	 -1.020287	 -0.967456
H	 -3.996858	 0.233488	 -0.175704
H	 -3.191959	 -0.995686	 0.782074

	symmetry c1
}
set optking {
	frozen_dihedral = ("
		9 5 8 12,
		6 3 5 9
	")
}

ee = energy('scf')
oeprop('DIPOLE', 'QUADRUPOLE', 'MULLIKEN_CHARGES')
f=open( 'psi4out.xyz', 'w' )
f.write( "16  " )
f.write( str(ee) + "\n" )
f.write( MOL.save_string_xyz() )
f.close()
--------------------------------------------------------------------------

    Molecular point group: c1

    Geometry (in Angstrom), charge = 0, multiplicity = 1:

       Center              X                  Y                   Z               Mass
    ------------   -----------------  -----------------  -----------------  -----------------
           H          1.867709534332    -1.324518981665    -0.236110815288     1.007825032070
           C          1.936625534332    -0.285971981665     0.109538184712    12.000000000000
           C          0.677534534332     0.527057018335    -0.047342815288    12.000000000000
           O          2.953275534332     0.124077018335     0.568246184712    15.994914619560
           C         -0.572630465668    -0.359914981665    -0.116347815288    12.000000000000
           H          0.777111534332     1.139712018335    -0.935722815288     1.007825032070
           H          0.601637534332     1.190926018335     0.813092184712     1.007825032070
           C         -1.865524465668     0.450030018335    -0.226537815288    12.000000000000
           H         -0.491286465668    -1.028223981665    -0.970466815288     1.007825032070
           H         -0.619332465668    -0.993200981665     0.767748184712     1.007825032070
           C         -3.111476465668    -0.430837981665    -0.307073815288    12.000000000000
           H         -1.815257465668     1.087787018335    -1.105651815288     1.007825032070
           H         -1.946184465668     1.114812018335     0.630564184712     1.007825032070
           H         -3.074985465668    -1.082829981665    -1.174935815288     1.007825032070
           H         -4.011391465668     0.170945018335    -0.383183815288     1.007825032070
           H         -3.206492465668    -1.058228981665     0.574594184712     1.007825032070

  Charge       = 0
  Multiplicity = 1
  Basis Set: 6-31G*
  Basis Set:

    Orbital Energies (a.u.)
    -----------------------

    Doubly Occupied:

       1A    -20.561969     2A    -11.327035     3A    -11.235900
       4A    -11.234904     5A    -11.229323     6A    -11.218629
       7A     -1.402161     8A     -1.097017     9A     -1.019305
      10A     -0.904693    11A     -0.811936    12A     -0.796026
      13A     -0.669751    14A     -0.654212    15A     -0.631720
      16A     -0.604006    17A     -0.587716    18A     -0.544107
      19A     -0.534172    20A     -0.498447    21A     -0.487598
      22A     -0.485450    23A     -0.479365    24A     -0.409671

  @DF-RHF Final Energy:  -270.01870916247816

   => Energetics <=

    Nuclear Repulsion Energy =            228.3466227585141723
    One-Electron Energy =                -817.8804022246865770
    Two-Electron Energy =                 319.5150703036941877
    DFT Exchange-Correlation Energy =       0.0000000000000000
    Empirical Dispersion Energy =           0.0000000000000000
    PCM Polarization Energy =               0.0000000000000000
    EFP Energy =                            0.0000000000000000
    Total Energy =                       -270.0187091624782170

  Mulliken Charges: (a.u.)
   Center  Symbol    Alpha    Beta     Spin     Total
       1     H     0.43062  0.43062  0.00000  0.13877
       2     C     2.83202  2.83202  0.00000  0.33596
       3     C     3.20708  3.20708  0.00000 -0.41416
       4     O     4.23997  4.23997  0.00000 -0.47994
       5     C     3.16582  3.16582  0.00000 -0.33164
       6     H     0.40017  0.40017  0.00000  0.19967
       7     H     0.39960  0.39960  0.00000  0.20081
       8     C     3.15167  3.15167  0.00000 -0.30335
       9     H     0.41954  0.41954  0.00000  0.16093
      10     H     0.41684  0.41684  0.00000  0.16633
      11     C     3.24017  3.24017  0.00000 -0.48035
      12     H     0.42037  0.42037  0.00000  0.15927
      13     H     0.41930  0.41930  0.00000  0.16141
      14     H     0.42040  0.42040  0.00000  0.15920
      15     H     0.41644  0.41644  0.00000  0.16712
      16     H     0.42000  0.42000  0.00000  0.15999

   Total alpha = 24.00000, Total beta = 24.00000, Total charge = -0.00000
