                              Psi4 1.0.54 Driver

  ==> Input File <==

--------------------------------------------------------------------------
set {
	reference rhf
	basis cc-pvtz
}

set_num_threads( 4 )
memory 2 gb

molecule MOL {
0 1

O	 1.625643	 1.679592	 0.495201
C	 1.060501	 1.236162	 1.435958
C	 -0.246764	 0.486934	 1.399139
O	 1.517274	 1.344856	 2.672874
C	 -0.824290	 0.329213	 -0.000115
H	 -0.076602	 -0.478091	 1.865210
H	 -0.936100	 1.012345	 2.051980
C	 -2.146151	 -0.432825	 -0.000068
H	 -0.104131	 -0.182697	 -0.628281
H	 -0.964386	 1.309485	 -0.441397
C	 -3.366283	 0.483552	 0.000557
H	 -2.189286	 -1.084450	 -0.869996
H	 -2.188867	 -1.085083	 0.869399
C	 -4.687436	 -0.278003	 0.000108
H	 -3.325150	 1.134819	 -0.867957
H	 -3.325087	 1.133730	 0.869885
H	 -4.773783	 -0.912098	 -0.876078
H	 -5.531922	 0.401392	 0.000363
H	 -4.773901	 -0.912898	 0.875703
C	 2.741170	 2.027662	 2.855027
H	 3.537389	 1.532659	 2.319097
H	 2.937773	 2.008562	 3.914663
H	 2.664051	 3.047540	 2.508452

	symmetry c1
}
set optking {
	frozen_dihedral = ("
		9 5 8 12
	")
}

ee,wfn = optimize('scf', return_wfn=True)
oeprop( wfn, 'DIPOLE', 'QUADRUPOLE', 'MULLIKEN_CHARGES')
f=open( 'psi4out.xyz', 'w' )
f.write( "23  " )
f.write( str(ee) + "\n" )
f.write( MOL.save_string_xyz() )
f.close()
--------------------------------------------------------------------------

    Molecular point group: c1
  Charge       = 0
  Multiplicity = 1
  Basis Set: CC-PVTZ
  Basis Set:
  @DF-RHF Final Energy:  -423.12691226051697
    Total Energy =                       -423.1269122605168604
    Molecular point group: c1
  Basis Set: CC-PVTZ
  Basis Set:
  Basis Set: CC-PVTZ
  Basis Set:
  @DF-RHF Final Energy:  -423.12720347766236
    Total Energy =                       -423.1272034776627606
  Basis Set: CC-PVTZ
  Basis Set:
  Basis Set: CC-PVTZ
  Basis Set:
  @DF-RHF Final Energy:  -423.12699248987064
    Total Energy =                       -423.1269924898709860
  Basis Set: CC-PVTZ
  Basis Set:
  Basis Set: CC-PVTZ
  Basis Set:
  @DF-RHF Final Energy:  -423.12726284420762
    Total Energy =                       -423.1272628442072801
  Basis Set: CC-PVTZ
  Basis Set:
  Basis Set: CC-PVTZ
  Basis Set:
  @DF-RHF Final Energy:  -423.12726651051372
    Total Energy =                       -423.1272665105137776
  Basis Set: CC-PVTZ
  Basis Set:
  Charge       = 0
  Multiplicity = 1
  Basis Set: CC-PVTZ
  Basis Set:

    Orbital Energies (a.u.)
    -----------------------

    Doubly Occupied:

       1A    -20.596309     2A    -20.534187     3A    -11.364512
       4A    -11.278485     5A    -11.234128     6A    -11.216923
       7A    -11.216454     8A    -11.215426     9A    -11.208596
      10A     -1.472201    11A     -1.365792    12A     -1.093828
      13A     -1.044042    14A     -0.987715    15A     -0.932920
      16A     -0.848059    17A     -0.794969    18A     -0.768758
      19A     -0.703331    20A     -0.685476    21A     -0.676539
      22A     -0.632917    23A     -0.625350    24A     -0.600186
      25A     -0.575707    26A     -0.559855    27A     -0.555987
      28A     -0.529679    29A     -0.522412    30A     -0.501059
      31A     -0.496040    32A     -0.470365    33A     -0.465633
      34A     -0.461833    35A     -0.453310    36A     -0.439346

  @DF-RHF Final Energy:  -423.12726662784354

   => Energetics <=

    Nuclear Repulsion Energy =            456.4562860853956749
    One-Electron Energy =               -1480.9104387485879215
    Two-Electron Energy =                 601.3268860353488208
    DFT Exchange-Correlation Energy =       0.0000000000000000
    Empirical Dispersion Energy =           0.0000000000000000
    PCM Polarization Energy =               0.0000000000000000
    EFP Energy =                            0.0000000000000000
    Total Energy =                       -423.1272666278433690
    Molecular point group: c1
  Basis Set: CC-PVTZ
  Basis Set:

  -Total Gradient:
     Atom            X                  Y                   Z
    ------   -----------------  -----------------  -----------------
       1        0.000010181726     0.000002681186     0.000015061868
       2       -0.000012474845    -0.000004985430    -0.000007456924
       3       -0.000015017229     0.000005444541     0.000003476852
       4        0.000009776858     0.000010468363    -0.000010454158
       5        0.001439839472    -0.002918988273     0.003705197982
       6       -0.000002446030    -0.000000692224    -0.000007651854
       7       -0.000001358662    -0.000008030056    -0.000008365077
       8       -0.001820649961     0.003566399368    -0.002842857633
       9       -0.000904010281     0.001864498286    -0.002637492383
      10        0.000000678849     0.000003801213    -0.000012652814
      11       -0.000001312584    -0.000006216353     0.000041149363
      12        0.001281820983    -0.002513135501     0.001778179243
      13        0.000006460579    -0.000006620370     0.000001990315
      14       -0.000001652803     0.000005288244    -0.000023916772
      15        0.000008644098     0.000004064729     0.000004796044
      16        0.000006944246     0.000000285547     0.000004892391
      17       -0.000005759802    -0.000009587737    -0.000001093176
      18       -0.000010835707    -0.000001343477    -0.000008367890
      19        0.000006414609     0.000007540186     0.000001110734
      20        0.000002094653    -0.000004142728     0.000003936111
      21        0.000000086426     0.000000938124     0.000000096973
      22        0.000004035350     0.000002214683     0.000001885771
      23       -0.000001459940     0.000000117675    -0.000001464968

  **** Optimization is complete! (in 6 steps) ****
    Final optimized geometry and variables:
    Molecular point group: c1

    Geometry (in Angstrom), charge = 0, multiplicity = 1:

    O            2.082394919870     0.900569754869    -0.469992665021
    C            1.504523327896     0.442546897628     0.455922445566
    C            0.209464304331    -0.325579929158     0.387571199507
    O            1.934673711034     0.548741388467     1.702679948699
    C           -0.333991748948    -0.488525759172    -1.024910112720
    H            0.383831766850    -1.289764472685     0.853181681382
    H           -0.500607720507     0.187405499701     1.027752262621
    C           -1.690778392347    -1.208227267413    -1.067520796637
    H            0.389428742864    -1.010145371926    -1.638513090460
    H           -0.429102527252     0.491151304187    -1.479474850027
    C           -2.892805526485    -0.267611637554    -1.051588055155
    H           -1.735483304234    -1.845943379074    -1.944447703012
    H           -1.765320977779    -1.889384454566    -0.222374576931
    C           -4.228473466095    -1.002688089400    -1.033505946134
    H           -2.848072568766     0.379190531238    -1.922895342892
    H           -2.831251817618     0.386305326842    -0.185557294678
    H           -4.332504816121    -1.644607091614    -1.902001858853
    H           -5.059758437689    -0.307138066360    -1.035371754763
    H           -4.320882682203    -1.626351972411    -0.150524450819
    C            3.145073967310     1.246817970860     1.914236025597
    H            3.958724844686     0.766568575848     1.391193559719
    H            3.320630611318     1.222912702970     2.977488092789
    H            3.061000739616     2.268016481797     1.573162283166

  Mulliken Charges: (a.u.)
   Center  Symbol    Alpha    Beta     Spin     Total
       1     O     4.19683  4.19683  0.00000 -0.39366
       2     C     2.80685  2.80685  0.00000  0.38629
       3     C     3.09754  3.09754  0.00000 -0.19509
       4     O     4.14717  4.14717  0.00000 -0.29435
       5     C     3.09387  3.09387  0.00000 -0.18774
       6     H     0.43938  0.43938  0.00000  0.12124
       7     H     0.44011  0.44011  0.00000  0.11978
       8     C     3.09963  3.09963  0.00000 -0.19926
       9     H     0.43991  0.43991  0.00000  0.12019
      10     H     0.44722  0.44722  0.00000  0.10556
      11     C     3.08122  3.08122  0.00000 -0.16244
      12     H     0.44472  0.44472  0.00000  0.11057
      13     H     0.45791  0.45791  0.00000  0.08419
      14     C     3.15060  3.15060  0.00000 -0.30120
      15     H     0.45216  0.45216  0.00000  0.09567
      16     H     0.45583  0.45583  0.00000  0.08834
      17     H     0.45430  0.45430  0.00000  0.09141
      18     H     0.44794  0.44794  0.00000  0.10413
      19     H     0.45510  0.45510  0.00000  0.08981
      20     C     3.03782  3.03782  0.00000 -0.07564
      21     H     0.45432  0.45432  0.00000  0.09137
      22     H     0.44530  0.44530  0.00000  0.10940
      23     H     0.45428  0.45428  0.00000  0.09144

   Total alpha = 36.00000, Total beta = 36.00000, Total charge =  0.00000

*** Psi4 exiting successfully. Buy a developer a beer!
