  ==> Input File <==

--------------------------------------------------------------------------
set {
	reference rhf
	basis 6-31G*
}

set_num_threads( 4 )
memory 2 gb

molecule MOL {
0 1

O	 0.074228	 1.262779	 -0.000085
C	 0.028650	 0.075053	 -0.000277
C	 -1.233602	 -0.752807	 0.000328
O	 1.109162	 -0.694619	 -0.000298
C	 -2.501530	 0.091881	 0.000126
H	 -1.193807	 -1.406641	 -0.865785
H	 -1.193516	 -1.405779	 0.867015
H	 -2.545121	 0.729328	 -0.874513
H	 -3.377167	 -0.548497	 0.000561
H	 -2.544818	 0.730135	 0.874258
C	 1.505092	 -1.246353	 -1.243044
H	 0.723871	 -1.874873	 -1.645620
H	 2.387799	 -1.831749	 -1.038096
H	 1.731389	 -0.462784	 -1.951761

	symmetry c1
}
set optking {
	frozen_dihedral = ("
		11 4 2 3
	")
}

ee = optimize('scf')
oeprop('DIPOLE', 'QUADRUPOLE', 'MULLIKEN_CHARGES')
f=open( 'psi4out.xyz', 'w' )
f.write( "14  " )
f.write( str(ee) + "\n" )
f.write( MOL.save_string_xyz() )
f.close()
--------------------------------------------------------------------------

    Molecular point group: c1
  Charge       = 0
  Multiplicity = 1
  Basis Set: 6-31G*
  Basis Set:
  @DF-RHF Final Energy:  -305.84908194875936
    Total Energy =                       -305.8490819487593058
    Molecular point group: c1
  Basis Set: 6-31G*
  Basis Set:
  Basis Set: 6-31G*
  Basis Set:
  @DF-RHF Final Energy:  -305.85039685091851
    Total Energy =                       -305.8503968509184006
  Basis Set: 6-31G*
  Basis Set:
  Basis Set: 6-31G*
  Basis Set:
  @DF-RHF Final Energy:  -305.85001207667278
    Total Energy =                       -305.8500120766726695
  Basis Set: 6-31G*
  Basis Set:
  Basis Set: 6-31G*
  Basis Set:
  @DF-RHF Final Energy:  -305.85104557427110
    Total Energy =                       -305.8510455742709269
  Basis Set: 6-31G*
  Basis Set:
  Basis Set: 6-31G*
  Basis Set:
  @DF-RHF Final Energy:  -305.85106681839233
    Total Energy =                       -305.8510668183922689
  Basis Set: 6-31G*
  Basis Set:
  Basis Set: 6-31G*
  Basis Set:
  @DF-RHF Final Energy:  -305.85106851821701
    Total Energy =                       -305.8510685182168345
  Basis Set: 6-31G*
  Basis Set:
  Charge       = 0
  Multiplicity = 1
  Basis Set: 6-31G*
  Basis Set:

    Orbital Energies (a.u.)
    -----------------------

    Doubly Occupied:

       1A    -20.587056     2A    -20.557506     3A    -11.375919
       4A    -11.293997     5A    -11.244151     6A    -11.220158
       7A     -1.459529     8A     -1.368689     9A     -1.062706
      10A     -0.977974    11A     -0.893980    12A     -0.766764
      13A     -0.701095    14A     -0.677620    15A     -0.673225
      16A     -0.627051    17A     -0.613686    18A     -0.557813
      19A     -0.546178    20A     -0.525339    21A     -0.510948
      22A     -0.488858    23A     -0.457472    24A     -0.437127

  @DF-RHF Final Energy:  -305.85106860515862

   => Energetics <=

    Nuclear Repulsion Energy =            246.6019563537853116
    One-Electron Energy =                -905.6563675124393740
    Two-Electron Energy =                 353.2033425534956450
    DFT Exchange-Correlation Energy =       0.0000000000000000
    Empirical Dispersion Energy =           0.0000000000000000
    PCM Polarization Energy =               0.0000000000000000
    EFP Energy =                            0.0000000000000000
    Total Energy =                       -305.8510686051583889
    Molecular point group: c1
  Basis Set: 6-31G*
  Basis Set:

  -Total Gradient:
     Atom            X                  Y                   Z
    ------   -----------------  -----------------  -----------------
       1        0.000022271361    -0.000006259524    -0.000004519750
       2       -0.000249528565    -0.000340669013     0.001190008886
       3       -0.000008150284    -0.000000073263    -0.000746986345
       4        0.000711072796     0.001025100118    -0.000582539441
       5       -0.000005361469    -0.000005623467    -0.000006615910
       6       -0.000000953794     0.000003895402    -0.000004986540
       7       -0.000003324123    -0.000005045367    -0.000005406794
       8        0.000000883022     0.000000289815     0.000000145948
       9        0.000000593575     0.000000853980     0.000000881245
      10       -0.000000140806    -0.000000302374     0.000001499978
      11       -0.000472749278    -0.000662876180     0.000164281806
      12       -0.000003360706    -0.000000620653     0.000007417836
      13        0.000001121971    -0.000001474599     0.000001574880
      14        0.000007626299    -0.000007194880    -0.000014755800

  **** Optimization is complete! (in 7 steps) ****
    Final optimized geometry and variables:
    Molecular point group: c1

    Geometry (in Angstrom), charge = 0, multiplicity = 1:

    O            0.219434550063     1.451177556629     0.254390007921
    C            0.164189865546     0.272467661362     0.204876939234
    C           -1.120097322887    -0.525127270641     0.209769966084
    O            1.288288736441    -0.480956855928     0.202917223216
    C           -2.371031089164     0.344402513054     0.238025950269
    H           -1.123866634878    -1.178335741696    -0.658209436400
    H           -1.077315281499    -1.184323447671     1.072518491881
    H           -2.418117630161     0.988401342165    -0.631929154056
    H           -3.259628847815    -0.277583143119     0.251359711591
    H           -2.383161297715     0.977634222540     1.116361370316
    C            1.714872841685    -1.031444278184    -1.023653505382
    H            1.003347704787    -1.753893084500    -1.407511776412
    H            2.650481064601    -1.530161793692    -0.824777359496
    H            1.874188412190    -0.250981667059    -1.758406423186

  Mulliken Charges: (a.u.)
   Center  Symbol    Alpha    Beta     Spin     Total
       1     O     4.24959  4.24959  0.00000 -0.49918
       2     C     2.61635  2.61635  0.00000  0.76731
       3     C     3.21334  3.21334  0.00000 -0.42669
       4     O     4.31366  4.31366  0.00000 -0.62733
       5     C     3.23838  3.23838  0.00000 -0.47675
       6     H     0.40739  0.40739  0.00000  0.18522
       7     H     0.39778  0.39778  0.00000  0.20443
       8     H     0.41078  0.41078  0.00000  0.17843
       9     H     0.41784  0.41784  0.00000  0.16433
      10     H     0.40730  0.40730  0.00000  0.18539
      11     C     3.09258  3.09258  0.00000 -0.18516
      12     H     0.42206  0.42206  0.00000  0.15588
      13     H     0.40125  0.40125  0.00000  0.19749
      14     H     0.41169  0.41169  0.00000  0.17661

   Total alpha = 24.00000, Total beta = 24.00000, Total charge = -0.00000
