  ==> Input File <==

--------------------------------------------------------------------------
set {
	reference rhf
	basis 6-31G*
}

set_num_threads( 4 )
memory 2 gb

molecule MOL {
0 1

H	 -2.172150	 0.880146	 0.502514
C	 -2.018062	 -0.000025	 -0.114509
O	 -0.774054	 0.001095	 -0.743181
H	 -2.760490	 0.003458	 -0.901350
H	 -2.173624	 -0.884374	 0.496163
C	 0.378774	 0.386946	 -0.016106
C	 1.509512	 0.251215	 -1.033466
C	 0.273092	 1.840394	 0.456662
C	 0.625791	 -0.553047	 1.168171
H	 1.324305	 0.895498	 -1.885540
H	 1.569395	 -0.770566	 -1.390891
H	 2.464550	 0.521873	 -0.594938
H	 0.027068	 2.489441	 -0.377148
H	 1.218021	 2.168578	 0.877382
H	 -0.484081	 1.967466	 1.222884
H	 0.627962	 -1.585283	 0.834200
H	 1.587525	 -0.339649	 1.623211
H	 -0.128684	 -0.445744	 1.940107

	symmetry c1
}
set optking {
	frozen_dihedral = ("
		6 3 2 5
	")
}

ee = optimize('scf')
oeprop('DIPOLE', 'QUADRUPOLE', 'MULLIKEN_CHARGES')
f=open( 'psi4out.xyz', 'w' )
f.write( "18  " )
f.write( str(ee) + "\n" )
f.write( MOL.save_string_xyz() )
f.close()
--------------------------------------------------------------------------

    Molecular point group: c1
  Charge       = 0
  Multiplicity = 1
  Basis Set: 6-31G*
  Basis Set:
  @DF-RHF Final Energy:  -271.17487752334023
    Total Energy =                       -271.1748775233401147
    Molecular point group: c1
  Basis Set: 6-31G*
  Basis Set:
  Basis Set: 6-31G*
  Basis Set:
  @DF-RHF Final Energy:  -271.17445139564973
    Total Energy =                       -271.1744513956498395
  Basis Set: 6-31G*
  Basis Set:
  Basis Set: 6-31G*
  Basis Set:
  @DF-RHF Final Energy:  -271.17515379731839
    Total Energy =                       -271.1751537973185009
  Basis Set: 6-31G*
  Basis Set:
  Basis Set: 6-31G*
  Basis Set:
  @DF-RHF Final Energy:  -271.17511212422585
    Total Energy =                       -271.1751121242257341
  Basis Set: 6-31G*
  Basis Set:
  Basis Set: 6-31G*
  Basis Set:
  @DF-RHF Final Energy:  -271.17518041446556
    Total Energy =                       -271.1751804144654443
  Basis Set: 6-31G*
  Basis Set:
  Charge       = 0
  Multiplicity = 1
  Basis Set: 6-31G*
  Basis Set:

    Orbital Energies (a.u.)
    -----------------------

    Doubly Occupied:

       1A    -20.546402     2A    -11.281338     3A    -11.260797
       4A    -11.209686     5A    -11.207714     6A    -11.203270
       7A     -1.369795     8A     -1.072867     9A     -0.946185
      10A     -0.939477    11A     -0.912514    12A     -0.752402
      13A     -0.655115    14A     -0.644566    15A     -0.637796
      16A     -0.591598    17A     -0.573441    18A     -0.552656
      19A     -0.535484    20A     -0.524003    21A     -0.514799
      22A     -0.488789    23A     -0.486222    24A     -0.438924
      25A     -0.403490

  @DF-RHF Final Energy:  -271.17517967101043

   => Energetics <=

    Nuclear Repulsion Energy =            272.3449923660866148
    One-Electron Energy =                -907.5416870881497289
    Two-Electron Energy =                 364.0215150510528019
    DFT Exchange-Correlation Energy =       0.0000000000000000
    Empirical Dispersion Energy =           0.0000000000000000
    PCM Polarization Energy =               0.0000000000000000
    EFP Energy =                            0.0000000000000000
    Total Energy =                       -271.1751796710102553
    Molecular point group: c1
  Basis Set: 6-31G*
  Basis Set:

  -Total Gradient:
     Atom            X                  Y                   Z
    ------   -----------------  -----------------  -----------------
       1        0.000081410727     0.000044989553     0.000048398284
       2        0.000599711763     0.000906093533     0.001141849953
       3        0.000067743096    -0.001427733413    -0.000184451536
       4        0.000023837263     0.000051557145    -0.000027864265
       5       -0.000599624005    -0.000409125891    -0.000998445814
       6       -0.000291620380     0.000883231852    -0.000070026978
       7       -0.000016886513     0.000029604783     0.000086739389
       8        0.000077562022    -0.000062054263    -0.000132755004
       9        0.000081402548     0.000026819931     0.000055246389
      10       -0.000012094674    -0.000026793076     0.000021153616
      11        0.000008954002    -0.000008800199     0.000035833255
      12        0.000023391712     0.000044382876     0.000011669396
      13       -0.000139535487     0.000028698552     0.000082426273
      14        0.000070843008     0.000075271740    -0.000049511443
      15       -0.000007811511    -0.000116040171    -0.000027108695
      16       -0.000031221981    -0.000023093260     0.000037604643
      17       -0.000018677117    -0.000044776591    -0.000049140142
      18        0.000082615528     0.000027766899     0.000018382681

  **** Optimization is complete! (in 6 steps) ****
    Final optimized geometry and variables:
    Molecular point group: c1

    Geometry (in Angstrom), charge = 0, multiplicity = 1:

    H           -2.150937542201     0.419151801725     0.669252808725
    C           -1.982711620552    -0.376954562415    -0.048466419185
    O           -0.760618305542    -0.262380741440    -0.710445154246
    H           -2.754579174221    -0.318579170879    -0.804946904563
    H           -2.079465368094    -1.332580966484     0.459217845912
    C            0.400892806691     0.079514293773     0.024926148017
    C            1.535338154677    -0.088632555996    -0.982977120879
    C            0.332019109510     1.536873223682     0.492756607837
    C            0.609040457888    -0.866225377490     1.211549219769
    H            1.367654782926     0.550255498030    -1.842624249523
    H            1.579073133066    -1.114944118664    -1.329692952627
    H            2.492248118602     0.169639741884    -0.540862673593
    H            0.117954195361     2.187979872427    -0.347779175498
    H            1.278254055643     1.840411112038     0.929296407312
    H           -0.435047918189     1.689578814848     1.244093517208
    H            0.594604662883    -1.898944862902     0.878903242949
    H            1.567523387416    -0.674312864956     1.682455229007
    H           -0.157315661301    -0.741868114714     1.969519700249

  Mulliken Charges: (a.u.)
   Center  Symbol    Alpha    Beta     Spin     Total
       1     H     0.43067  0.43067  0.00000  0.13866
       2     C     3.07906  3.07906  0.00000 -0.15811
       3     O     4.31906  4.31906  0.00000 -0.63813
       4     H     0.41357  0.41357  0.00000  0.17287
       5     H     0.42752  0.42752  0.00000  0.14495
       6     C     2.84335  2.84335  0.00000  0.31329
       7     C     3.23307  3.23307  0.00000 -0.46615
       8     C     3.24407  3.24407  0.00000 -0.48814
       9     C     3.24907  3.24907  0.00000 -0.49814
      10     H     0.41362  0.41362  0.00000  0.17275
      11     H     0.41474  0.41474  0.00000  0.17052
      12     H     0.42511  0.42511  0.00000  0.14978
      13     H     0.41311  0.41311  0.00000  0.17379
      14     H     0.42090  0.42090  0.00000  0.15820
      15     H     0.42086  0.42086  0.00000  0.15828
      16     H     0.41359  0.41359  0.00000  0.17283
      17     H     0.41868  0.41868  0.00000  0.16263
      18     H     0.41994  0.41994  0.00000  0.16011

   Total alpha = 25.00000, Total beta = 25.00000, Total charge = -0.00000
