                              Psi4 1.0.54 Driver

  ==> Input File <==

--------------------------------------------------------------------------
set {
	reference rhf
	basis cc-pvtz
}

set_num_threads( 4 )
memory 2 gb

molecule MOL {
0 1

O	 0.074770	 1.259872	 0.000487
C	 0.029490	 0.077183	 0.000078
C	 -1.232113	 -0.748027	 0.000015
O	 1.106773	 -0.690081	 -0.000204
C	 -2.501422	 0.088592	 -0.000052
H	 -1.188777	 -1.400384	 -0.865133
H	 -1.188857	 -1.400312	 0.865225
H	 -2.548170	 0.725504	 -0.873205
H	 -3.371613	 -0.556398	 -0.000040
H	 -2.548215	 0.725571	 0.873047
C	 0.950786	 -2.027480	 -0.429941
H	 0.250061	 -2.551889	 0.202686
H	 1.926903	 -2.479041	 -0.358433
H	 0.598138	 -2.061292	 -1.450108

	symmetry c1
}
set optking {
	frozen_dihedral = ("
		11 4 2 3
	")
}

ee,wfn = optimize('scf', return_wfn=True)
oeprop( wfn, 'DIPOLE', 'QUADRUPOLE', 'MULLIKEN_CHARGES')
f=open( 'psi4out.xyz', 'w' )
f.write( "14  " )
f.write( str(ee) + "\n" )
f.write( MOL.save_string_xyz() )
f.close()
--------------------------------------------------------------------------

    Molecular point group: c1
  Charge       = 0
  Multiplicity = 1
  Basis Set: CC-PVTZ
  Basis Set:
  @DF-RHF Final Energy:  -305.96313273020507
    Total Energy =                       -305.9631327302050181
    Molecular point group: c1
  Basis Set: CC-PVTZ
  Basis Set:
  Basis Set: CC-PVTZ
  Basis Set:
  @DF-RHF Final Energy:  -305.95034150954069
    Total Energy =                       -305.9503415095405785
  Basis Set: CC-PVTZ
  Basis Set:
  Basis Set: CC-PVTZ
  Basis Set:
  @DF-RHF Final Energy:  -305.97046407077039
    Total Energy =                       -305.9704640707703902
  Basis Set: CC-PVTZ
  Basis Set:
  Basis Set: CC-PVTZ
  Basis Set:
  @DF-RHF Final Energy:  -305.97227286762154
    Total Energy =                       -305.9722728676215411
  Basis Set: CC-PVTZ
  Basis Set:
  @DF-RHF Final Energy:  -305.96925453262747
    Total Energy =                       -305.9692545326274740
  Basis Set: CC-PVTZ
  Basis Set:
  @DF-RHF Final Energy:  -305.97277851480646
    Total Energy =                       -305.9727785148066346
  Basis Set: CC-PVTZ
  Basis Set:
  Basis Set: CC-PVTZ
  Basis Set:
  @DF-RHF Final Energy:  -305.97291231599593
    Total Energy =                       -305.9729123159960409
  Basis Set: CC-PVTZ
  Basis Set:
  Basis Set: CC-PVTZ
  Basis Set:
  @DF-RHF Final Energy:  -305.97292011713887
    Total Energy =                       -305.9729201171389263
  Basis Set: CC-PVTZ
  Basis Set:
  Charge       = 0
  Multiplicity = 1
  Basis Set: CC-PVTZ
  Basis Set:

    Orbital Energies (a.u.)
    -----------------------

    Doubly Occupied:

       1A    -20.594639     2A    -20.530062     3A    -11.366901
       4A    -11.293948     5A    -11.246809     6A    -11.218988
       7A     -1.466503     8A     -1.368825     9A     -1.064271
      10A     -0.987043    11A     -0.900336    12A     -0.769566
      13A     -0.707234    14A     -0.690272    15A     -0.675916
      16A     -0.626709    17A     -0.607280    18A     -0.559666
      19A     -0.554273    20A     -0.527181    21A     -0.511592
      22A     -0.503995    23A     -0.452938    24A     -0.436204

  @DF-RHF Final Energy:  -305.97292104030203

   => Energetics <=

    Nuclear Repulsion Energy =            248.0363454095256373
    One-Electron Energy =                -908.6962283788411696
    Two-Electron Energy =                 354.6869619290134779
    DFT Exchange-Correlation Energy =       0.0000000000000000
    Empirical Dispersion Energy =           0.0000000000000000
    PCM Polarization Energy =               0.0000000000000000
    EFP Energy =                            0.0000000000000000
    Total Energy =                       -305.9729210403020261
    Molecular point group: c1
  Basis Set: CC-PVTZ
  Basis Set:

  -Total Gradient:
     Atom            X                  Y                   Z
    ------   -----------------  -----------------  -----------------
       1        0.000001698454    -0.000026537838     0.000006670337
       2        0.000210812441    -0.000115407494    -0.003068968634
       3        0.000026580093     0.000190782946     0.001444820181
       4       -0.000499618480    -0.000282642723     0.003229361349
       5       -0.000004229660     0.000012502640    -0.000011824040
       6       -0.000015444239    -0.000013210267    -0.000006010577
       7       -0.000007145755    -0.000013908163    -0.000012957896
       8       -0.000005171391    -0.000002043000     0.000009578177
       9        0.000008975233    -0.000003908027     0.000000012026
      10       -0.000002991405     0.000002956596     0.000001181747
      11        0.000288900542     0.000278341575    -0.001603812680
      12        0.000003395193    -0.000002308606    -0.000001425168
      13       -0.000019591030     0.000011181766     0.000007889703
      14        0.000013830008    -0.000035799401     0.000005485476

  **** Optimization is complete! (in 9 steps) ****
    Final optimized geometry and variables:
    Molecular point group: c1

    Geometry (in Angstrom), charge = 0, multiplicity = 1:

    O            0.315185143607     1.551964852732    -0.095023315696
    C            0.235292954476     0.380064233414     0.000225708846
    C           -1.082658254140    -0.356303757136     0.111260049103
    O            1.353437950943    -0.341092432836     0.075745082139
    C           -2.281676839195     0.578791517405     0.078955388960
    H           -1.148600005274    -1.084301297521    -0.689802853624
    H           -1.064698737337    -0.926044949667     1.034630324011
    H           -2.312087338967     1.137961636189    -0.845925590807
    H           -3.198132795410     0.007934017173     0.166938373885
    H           -2.239823068808     1.290980353839     0.891113021722
    C            1.384172480413    -1.726562192631    -0.156941737876
    H            0.801538181506    -2.274446901554     0.571455566478
    H            2.417690445289    -2.018790153691    -0.067562964419
    H            1.037718017034    -1.967319839374    -1.153758045178

  Mulliken Charges: (a.u.)
   Center  Symbol    Alpha    Beta     Spin     Total
       1     O     4.17894  4.17894  0.00000 -0.35788
       2     C     2.80706  2.80706  0.00000  0.38589
       3     C     3.12193  3.12193  0.00000 -0.24386
       4     O     4.13014  4.13014  0.00000 -0.26028
       5     C     3.13916  3.13916  0.00000 -0.27832
       6     H     0.44297  0.44297  0.00000  0.11405
       7     H     0.43918  0.43918  0.00000  0.12163
       8     H     0.44605  0.44605  0.00000  0.10790
       9     H     0.45143  0.45143  0.00000  0.09714
      10     H     0.44480  0.44480  0.00000  0.11040
      11     C     3.04518  3.04518  0.00000 -0.09036
      12     H     0.46081  0.46081  0.00000  0.07838
      13     H     0.43348  0.43348  0.00000  0.13304
      14     H     0.45887  0.45887  0.00000  0.08226

   Total alpha = 24.00000, Total beta = 24.00000, Total charge = -0.00000

*** Psi4 exiting successfully. Buy a developer a beer!
