                              Psi4 1.0.54 Driver

  ==> Input File <==

--------------------------------------------------------------------------
set {
	reference rhf
	basis cc-pvtz
}

set_num_threads( 4 )
memory 2 gb

molecule MOL {
0 1

O	 -1.935420	 0.095798	 2.090510
C	 -2.196867	 -0.510850	 1.107633
C	 -3.386758	 -1.423203	 0.980930
O	 -1.481217	 -0.452708	 0.001092
H	 -4.282545	 -0.849846	 1.178179
H	 -3.445936	 -1.875069	 0.003711
H	 -3.313725	 -2.190850	 1.739520
C	 -0.332055	 0.384012	 -0.000250
C	 0.892252	 -0.506059	 -0.000295
H	 -0.360822	 1.020205	 -0.874146
H	 -0.359817	 1.021310	 0.872861
C	 2.188199	 0.299473	 -0.001416
H	 0.857046	 -1.152781	 -0.871031
H	 0.857910	 -1.151798	 0.871202
C	 3.437151	 -0.577593	 -0.000991
H	 2.209565	 0.950707	 -0.871712
H	 2.210062	 0.952234	 0.867721
C	 4.732399	 0.226982	 -0.000914
H	 3.417321	 -1.229122	 -0.869998
H	 3.416993	 -1.228707	 0.868337
H	 4.797903	 0.863451	 -0.876963
H	 5.598517	 -0.424436	 -0.000420
H	 4.797415	 0.864118	 0.874691

	symmetry c1
}
set optking {
	frozen_dihedral = ("
		2 4 8 10
	")
}

ee,wfn = optimize('scf', return_wfn=True)
oeprop( wfn, 'DIPOLE', 'QUADRUPOLE', 'MULLIKEN_CHARGES')
f=open( 'psi4out.xyz', 'w' )
f.write( "23  " )
f.write( str(ee) + "\n" )
f.write( MOL.save_string_xyz() )
f.close()
--------------------------------------------------------------------------

    Molecular point group: c1
  Charge       = 0
  Multiplicity = 1
  Basis Set: CC-PVTZ
  Basis Set:
  @DF-RHF Final Energy:  -423.13207663831867
    Total Energy =                       -423.1320766383186083
    Molecular point group: c1
  Basis Set: CC-PVTZ
  Basis Set:
  Basis Set: CC-PVTZ
  Basis Set:
  @DF-RHF Final Energy:  -423.12952752839749
    Total Energy =                       -423.1295275283974888
  Basis Set: CC-PVTZ
  Basis Set:
  Basis Set: CC-PVTZ
  Basis Set:
  @DF-RHF Final Energy:  -423.13303416798954
    Total Energy =                       -423.1330341679896492
  Basis Set: CC-PVTZ
  Basis Set:
  Basis Set: CC-PVTZ
  Basis Set:
  @DF-RHF Final Energy:  -423.13257133187716
    Total Energy =                       -423.1325713318769886
  Basis Set: CC-PVTZ
  Basis Set:
  Basis Set: CC-PVTZ
  Basis Set:
  @DF-RHF Final Energy:  -423.13312211233756
    Total Energy =                       -423.1331221123373325
  Basis Set: CC-PVTZ
  Basis Set:
  Basis Set: CC-PVTZ
  Basis Set:
  @DF-RHF Final Energy:  -423.13312964637782
    Total Energy =                       -423.1331296463780518
  Basis Set: CC-PVTZ
  Basis Set:
  Charge       = 0
  Multiplicity = 1
  Basis Set: CC-PVTZ
  Basis Set:

    Orbital Energies (a.u.)
    -----------------------

    Doubly Occupied:

       1A    -20.594845     2A    -20.528996     3A    -11.367852
       4A    -11.277928     5A    -11.230165     6A    -11.221246
       7A    -11.220458     8A    -11.218559     9A    -11.210145
      10A     -1.468742    11A     -1.364407    12A     -1.093895
      13A     -1.042416    14A     -1.003435    15A     -0.932276
      16A     -0.848709    17A     -0.800238    18A     -0.771786
      19A     -0.700481    20A     -0.682447    21A     -0.660292
      22A     -0.650826    23A     -0.606160    24A     -0.589051
      25A     -0.586464    26A     -0.573835    27A     -0.550585
      28A     -0.541060    29A     -0.523146    30A     -0.510261
      31A     -0.487975    32A     -0.480000    33A     -0.474590
      34A     -0.470210    35A     -0.442310    36A     -0.438753

  @DF-RHF Final Energy:  -423.13312986408567

   => Energetics <=

    Nuclear Repulsion Energy =            453.6540938900108699
    One-Electron Energy =               -1475.2453660550122549
    Two-Electron Energy =                 598.4581423009159380
    DFT Exchange-Correlation Energy =       0.0000000000000000
    Empirical Dispersion Energy =           0.0000000000000000
    PCM Polarization Energy =               0.0000000000000000
    EFP Energy =                            0.0000000000000000
    Total Energy =                       -423.1331298640853902
    Molecular point group: c1
  Basis Set: CC-PVTZ
  Basis Set:

  -Total Gradient:
     Atom            X                  Y                   Z
    ------   -----------------  -----------------  -----------------
       1       -0.000007242295     0.000014481203    -0.000005825716
       2       -0.000475078351     0.000629768477    -0.000498423896
       3       -0.000018349772     0.000017193273     0.000009163137
       4        0.000591481930    -0.000768848134     0.000747216043
       5        0.000007356326    -0.000007466309     0.000008224631
       6        0.000001786362     0.000001472043     0.000004608159
       7        0.000001195406    -0.000003293827    -0.000007789961
       8        0.000422325324    -0.000685084420    -0.000644445427
       9        0.000026418544     0.000011334567    -0.000004088081
      10       -0.000556897055     0.000803333569     0.000391885076
      11       -0.000005785010    -0.000002460720    -0.000008033005
      12        0.000004013524    -0.000018195571     0.000008759793
      13        0.000001948985    -0.000002041949     0.000000966829
      14        0.000000294203     0.000004107124    -0.000000807323
      15        0.000009008051     0.000006415548    -0.000000109904
      16        0.000001950153     0.000001608754     0.000000508309
      17        0.000000457110    -0.000000401405     0.000007521202
      18       -0.000001021596    -0.000005326753    -0.000007156850
      19       -0.000000907419    -0.000003173961    -0.000001867811
      20       -0.000002467710     0.000006011788     0.000001784425
      21        0.000001572583     0.000002223243    -0.000003093405
      22        0.000000177936    -0.000001240655    -0.000001825335
      23       -0.000002237222    -0.000000415888     0.000002829114

  **** Optimization is complete! (in 7 steps) ****
    Final optimized geometry and variables:
    Molecular point group: c1

    Geometry (in Angstrom), charge = 0, multiplicity = 1:

    O           -2.231603053743     0.593627721394     1.549351006269
    C           -2.446614396076    -0.135413651415     0.641306753649
    C           -3.648457676165    -1.038933450364     0.571643276769
    O           -1.669294662447    -0.254902453671    -0.419105706095
    H           -4.539798675392    -0.428742995556     0.630457360505
    H           -3.661122866784    -1.624760080436    -0.333397749506
    H           -3.638589906826    -1.690775281738     1.434877751623
    C           -0.496710571201     0.544085986982    -0.529534943947
    C            0.742019226656    -0.314362287333    -0.364192881760
    H           -0.536085945280     0.990710259117    -1.513704709616
    H           -0.528536494557     1.329166047772     0.207644040947
    C            2.026230170853     0.488610025669    -0.549562271070
    H            0.705711516403    -1.128465540716    -1.081083791716
    H            0.726435751774    -0.761993759572     0.624606447715
    C            3.288169444863    -0.353961236531    -0.386465088126
    H            2.028010084220     0.946349086078    -1.536108414800
    H            2.047614006720     1.306374085419     0.166388147471
    C            4.570912146285     0.448931221505    -0.573398248814
    H            3.267405042284    -1.172198304936    -1.100862070987
    H            3.288631783874    -0.809922606119     0.599457479615
    H            4.615977202444     0.890331443560    -1.563482177010
    H            5.446686287882    -0.177692341270    -0.451024270780
    H            4.637156989645     1.254685992609     0.149966865807

  Mulliken Charges: (a.u.)
   Center  Symbol    Alpha    Beta     Spin     Total
       1     O     4.20399  4.20399  0.00000 -0.40799
       2     C     2.80736  2.80736  0.00000  0.38528
       3     C     3.14221  3.14221  0.00000 -0.28441
       4     O     4.15461  4.15461  0.00000 -0.30922
       5     H     0.44221  0.44221  0.00000  0.11558
       6     H     0.44193  0.44193  0.00000  0.11615
       7     H     0.44263  0.44263  0.00000  0.11474
       8     C     2.98576  2.98576  0.00000  0.02848
       9     C     3.08884  3.08884  0.00000 -0.17768
      10     H     0.44591  0.44591  0.00000  0.10818
      11     H     0.44305  0.44305  0.00000  0.11390
      12     C     3.09836  3.09836  0.00000 -0.19673
      13     H     0.45059  0.45059  0.00000  0.09883
      14     H     0.44958  0.44958  0.00000  0.10084
      15     C     3.08439  3.08439  0.00000 -0.16879
      16     H     0.45452  0.45452  0.00000  0.09095
      17     H     0.45062  0.45062  0.00000  0.09876
      18     C     3.14997  3.14997  0.00000 -0.29994
      19     H     0.45387  0.45387  0.00000  0.09227
      20     H     0.45260  0.45260  0.00000  0.09479
      21     H     0.45517  0.45517  0.00000  0.08967
      22     H     0.44768  0.44768  0.00000  0.10464
      23     H     0.45415  0.45415  0.00000  0.09169

   Total alpha = 36.00000, Total beta = 36.00000, Total charge =  0.00000

*** Psi4 exiting successfully. Buy a developer a beer!
