                              Psi4 1.0.54 Driver

  ==> Input File <==

--------------------------------------------------------------------------
set {
	reference rhf
	basis cc-pvtz
}

set_num_threads( 4 )
memory 2 gb

molecule MOL {
0 1

O	 1.427376	 0.796342	 0.930632
C	 1.704209	 0.119472	 -0.000093
C	 0.976312	 0.105270	 -1.319792
O	 2.715427	 -0.733672	 0.000025
C	 -0.200525	 1.068361	 -1.381721
H	 1.706535	 0.326804	 -2.091248
H	 0.658019	 -0.916400	 -1.499576
C	 -0.913576	 1.027750	 -2.730027
H	 0.150064	 2.074318	 -1.180696
H	 -0.899555	 0.829822	 -0.588156
C	 -2.097511	 1.987019	 -2.811079
H	 -0.206447	 1.265410	 -3.521695
H	 -1.259843	 0.015549	 -2.926969
C	 -2.809903	 1.946832	 -4.158778
H	 -1.752649	 2.998438	 -2.615482
H	 -2.805214	 1.749527	 -2.021830
H	 -2.136059	 2.213789	 -4.966183
H	 -3.643873	 2.638688	 -4.182514
H	 -3.197296	 0.955102	 -4.367666
C	 4.020999	 -0.192556	 0.000019
H	 4.182809	 0.412891	 -0.879449
H	 4.692590	 -1.035653	 0.000152
H	 4.182726	 0.413087	 0.879368

	symmetry c1
}
set optking {
	frozen_dihedral = ("
		1 2 4 20
	")
}

ee,wfn = optimize('scf', return_wfn=True)
oeprop( wfn, 'DIPOLE', 'QUADRUPOLE', 'MULLIKEN_CHARGES')
f=open( 'psi4out.xyz', 'w' )
f.write( "23  " )
f.write( str(ee) + "\n" )
f.write( MOL.save_string_xyz() )
f.close()
--------------------------------------------------------------------------

    Molecular point group: c1
  Charge       = 0
  Multiplicity = 1
  Basis Set: CC-PVTZ
  Basis Set:
  @DF-RHF Final Energy:  -423.11389393069550
    Total Energy =                       -423.1138939306954398
    Molecular point group: c1
  Basis Set: CC-PVTZ
  Basis Set:
  Basis Set: CC-PVTZ
  Basis Set:
  @DF-RHF Final Energy:  -423.04366782284035
    Total Energy =                       -423.0436678228404617
  Basis Set: CC-PVTZ
  Basis Set:
  Basis Set: CC-PVTZ
  Basis Set:
  @DF-RHF Final Energy:  -423.10761260563368
    Total Energy =                       -423.1076126056335625
  Basis Set: CC-PVTZ
  Basis Set:
  Basis Set: CC-PVTZ
  Basis Set:
  @DF-RHF Final Energy:  -423.11438996620086
    Total Energy =                       -423.1143899662010881
  Basis Set: CC-PVTZ
  Basis Set:
  Basis Set: CC-PVTZ
  Basis Set:
  @DF-RHF Final Energy:  -423.11324918754224
    Total Energy =                       -423.1132491875425785
  Basis Set: CC-PVTZ
  Basis Set:
  Basis Set: CC-PVTZ
  Basis Set:
  @DF-RHF Final Energy:  -423.11498293645667
    Total Energy =                       -423.1149829364568404
  Basis Set: CC-PVTZ
  Basis Set:
  Basis Set: CC-PVTZ
  Basis Set:
  @DF-RHF Final Energy:  -423.11503063118454
    Total Energy =                       -423.1150306311843678
  Basis Set: CC-PVTZ
  Basis Set:
  Charge       = 0
  Multiplicity = 1
  Basis Set: CC-PVTZ
  Basis Set:

    Orbital Energies (a.u.)
    -----------------------

    Doubly Occupied:

       1A    -20.579543     2A    -20.544075     3A    -11.367294
       4A    -11.286060     5A    -11.236778     6A    -11.219232
       7A    -11.217646     8A    -11.215911     9A    -11.208917
      10A     -1.462583    11A     -1.368513    12A     -1.095786
      13A     -1.043533    14A     -0.982608    15A     -0.939399
      16A     -0.849268    17A     -0.797255    18A     -0.766266
      19A     -0.698138    20A     -0.680917    21A     -0.676060
      22A     -0.650506    23A     -0.615641    24A     -0.607671
      25A     -0.579055    26A     -0.569144    27A     -0.555085
      28A     -0.533676    29A     -0.510480    30A     -0.505586
      31A     -0.487237    32A     -0.476973    33A     -0.470323
      34A     -0.467604    35A     -0.453451    36A     -0.434194

  @DF-RHF Final Energy:  -423.11503442826063

   => Energetics <=

    Nuclear Repulsion Energy =            452.7124635398976125
    One-Electron Energy =               -1473.3501839487535108
    Two-Electron Energy =                 597.5226859805951563
    DFT Exchange-Correlation Energy =       0.0000000000000000
    Empirical Dispersion Energy =           0.0000000000000000
    PCM Polarization Energy =               0.0000000000000000
    EFP Energy =                            0.0000000000000000
    Total Energy =                       -423.1150344282607421
    Molecular point group: c1
  Basis Set: CC-PVTZ
  Basis Set:

  -Total Gradient:
     Atom            X                  Y                   Z
    ------   -----------------  -----------------  -----------------
       1       -0.003278424462    -0.004640058761     0.003981133855
       2        0.004865806135     0.006036376500    -0.008344661624
       3       -0.000045701735    -0.000039840945     0.000058621661
       4       -0.001273765167    -0.000078883947     0.009598424284
       5       -0.000004033158     0.000053224178    -0.000036160650
       6       -0.000009343227     0.000014787480     0.000023475018
       7        0.000008626780     0.000022401679    -0.000007218901
       8       -0.000035731108    -0.000035692009     0.000023274324
       9       -0.000009578986    -0.000005636622     0.000015983167
      10        0.000018825606    -0.000001519966    -0.000032469679
      11       -0.000003129957     0.000033532023    -0.000048786320
      12       -0.000027090109     0.000009682136     0.000031602412
      13        0.000000804957    -0.000009303096    -0.000017912386
      14       -0.000012306716    -0.000010823223     0.000012708872
      15        0.000000342335     0.000004574995     0.000013534616
      16        0.000023779606    -0.000005722179    -0.000026050366
      17        0.000006133261    -0.000004848316     0.000019334299
      18       -0.000006277391    -0.000002260716     0.000005257239
      19        0.000003179174     0.000000391448    -0.000012600702
      20       -0.000167303916    -0.001334208506    -0.005217023144
      21       -0.000062045305    -0.000014068030    -0.000036640778
      22        0.000032995176    -0.000006210794    -0.000011924116
      23       -0.000025761792     0.000014106673     0.000008098922

  **** Optimization is complete! (in 8 steps) ****
    Final optimized geometry and variables:
    Molecular point group: c1

    Geometry (in Angstrom), charge = 0, multiplicity = 1:

    O            1.080491741980     0.863255183874     1.887319306432
    C            1.372941797654     0.025073306170     1.113645880127
    C            0.500407741643    -0.461611866946    -0.012311143595
    O            2.520532271367    -0.673283671449     1.213719472102
    C           -0.848727879538     0.235562448010    -0.106188809607
    H            1.069243310801    -0.344687461078    -0.931016197449
    H            0.386277450120    -1.532533443118     0.122367833728
    C           -1.699876256260    -0.293627278571    -1.256754426475
    H           -0.692821610298     1.302169058874    -0.223549324444
    H           -1.378487767744     0.111091314569     0.831405608590
    C           -3.057860454176     0.394032096118    -1.363573471303
    H           -1.161740937617    -0.168404208521    -2.193817053582
    H           -1.849960736455    -1.363920692163    -1.134243908429
    C           -3.908514591554    -0.135467554773    -2.513046589023
    H           -2.909132125368     1.463032684351    -1.487337001069
    H           -3.596610214941     0.268566273296    -0.428717902657
    H           -3.411153822990     0.007622591398    -3.466670898077
    H           -4.864682390598     0.372695308377    -2.559872900151
    H           -4.103543984072    -1.196712426427    -2.399507475589
    C            3.717118123582     0.025878440619     0.947953172850
    H            3.748771328683     0.346735494344    -0.087475997030
    H            4.526617163537    -0.662136692088     1.130142243102
    H            3.814846366146     0.883840427546     1.598619676451

  Mulliken Charges: (a.u.)
   Center  Symbol    Alpha    Beta     Spin     Total
       1     O     4.17473  4.17473  0.00000 -0.34947
       2     C     2.79037  2.79037  0.00000  0.41926
       3     C     3.11243  3.11243  0.00000 -0.22486
       4     O     4.16861  4.16861  0.00000 -0.33723
       5     C     3.08480  3.08480  0.00000 -0.16961
       6     H     0.44457  0.44457  0.00000  0.11087
       7     H     0.43675  0.43675  0.00000  0.12651
       8     C     3.08883  3.08883  0.00000 -0.17765
       9     H     0.44691  0.44691  0.00000  0.10618
      10     H     0.44484  0.44484  0.00000  0.11031
      11     C     3.08417  3.08417  0.00000 -0.16835
      12     H     0.45612  0.45612  0.00000  0.08776
      13     H     0.45505  0.45505  0.00000  0.08991
      14     C     3.15035  3.15035  0.00000 -0.30069
      15     H     0.45335  0.45335  0.00000  0.09331
      16     H     0.45281  0.45281  0.00000  0.09439
      17     H     0.45549  0.45549  0.00000  0.08902
      18     H     0.44752  0.44752  0.00000  0.10496
      19     H     0.45507  0.45507  0.00000  0.08985
      20     C     3.03566  3.03566  0.00000 -0.07132
      21     H     0.46717  0.46717  0.00000  0.06565
      22     H     0.44458  0.44458  0.00000  0.11084
      23     H     0.44982  0.44982  0.00000  0.10036

   Total alpha = 36.00000, Total beta = 36.00000, Total charge = -0.00000

*** Psi4 exiting successfully. Buy a developer a beer!
