  ==> Input File <==

--------------------------------------------------------------------------
set {
	reference rhf
	basis 6-31G*
}

set_num_threads( 1 )
memory 2 gb

molecule MOL {
0 1

H	 2.591676	 2.013956	 0.335017
O	 3.341076	 1.666752	 -0.126416
C	 3.569581	 0.339145	 0.272707
C	 2.539767	 -0.640285	 -0.279495
H	 4.553106	 0.084646	 -0.100901
H	 3.608576	 0.269204	 1.359154
C	 2.661401	 -2.056770	 0.287643
H	 1.546808	 -0.248907	 -0.074017
H	 2.649928	 -0.673510	 -1.362143
C	 1.649416	 -3.028380	 -0.326099
H	 2.524678	 -2.023038	 1.364924
H	 3.669446	 -2.432221	 0.110948
C	 1.784243	 -4.481104	 0.144810
H	 0.641413	 -2.674531	 -0.117373
H	 1.760158	 -3.005612	 -1.408189
C	 1.461585	 -4.711760	 1.623718
H	 1.118779	 -5.098057	 -0.455476
H	 2.792994	 -4.834352	 -0.063700
C	 1.507388	 -6.188884	 2.020508
H	 0.471942	 -4.312769	 1.841720
H	 2.157771	 -4.158462	 2.249408
C	 1.191974	 -6.421324	 3.497718
H	 0.802297	 -6.747830	 1.409023
H	 2.492493	 -6.591788	 1.794404
H	 0.199238	 -6.058258	 3.748482
H	 1.230450	 -7.477229	 3.747155
H	 1.902681	 -5.904769	 4.136804

	symmetry c1
}
set optking {
	frozen_dihedral = ("
		14 10 7 4,
		14 10 13 16,
		10 7 4 8,
		10 13 16 20,
		20 16 19 22,
		4 3 2 1
	")
}

ee = energy('scf')
oeprop('DIPOLE', 'QUADRUPOLE', 'MULLIKEN_CHARGES')
f=open( 'psi4out.xyz', 'w' )
f.write( "27  " )
f.write( str(ee) + "\n" )
f.write( MOL.save_string_xyz() )
f.close()
--------------------------------------------------------------------------

    Molecular point group: c1

    Geometry (in Angstrom), charge = 0, multiplicity = 1:

       Center              X                  Y                   Z               Mass
    ------------   -----------------  -----------------  -----------------  -----------------
           H          0.387622329227     4.779950627169    -0.460584647738     1.007825032070
           O          1.137022329227     4.432746627169    -0.922017647738    15.994914619560
           C          1.365527329227     3.105139627169    -0.522894647738    12.000000000000
           C          0.335713329227     2.125709627169    -1.075096647738    12.000000000000
           H          2.349052329227     2.850640627169    -0.896502647738     1.007825032070
           H          1.404522329227     3.035198627169     0.563552352262     1.007825032070
           C          0.457347329227     0.709224627169    -0.507958647738    12.000000000000
           H         -0.657245670773     2.517087627169    -0.869618647738     1.007825032070
           H          0.445874329227     2.092484627169    -2.157744647738     1.007825032070
           C         -0.554637670773    -0.262385372831    -1.121700647738    12.000000000000
           H          0.320624329227     0.742956627169     0.569322352262     1.007825032070
           H          1.465392329227     0.333773627169    -0.684653647738     1.007825032070
           C         -0.419810670773    -1.715109372831    -0.650791647738    12.000000000000
           H         -1.562640670773     0.091463627169    -0.912974647738     1.007825032070
           H         -0.443895670773    -0.239617372831    -2.203790647738     1.007825032070
           C         -0.742468670773    -1.945765372831     0.828116352262    12.000000000000
           H         -1.085274670773    -2.332062372831    -1.251077647738     1.007825032070
           H          0.588940329227    -2.068357372831    -0.859301647738     1.007825032070
           C         -0.696665670773    -3.422889372831     1.224906352262    12.000000000000
           H         -1.732111670773    -1.546774372831     1.046118352262     1.007825032070
           H         -0.046282670773    -1.392467372831     1.453806352262     1.007825032070
           C         -1.012079670773    -3.655329372831     2.702116352262    12.000000000000
           H         -1.401756670773    -3.981835372831     0.613421352262     1.007825032070
           H          0.288439329227    -3.825793372831     0.998802352262     1.007825032070
           H         -2.004815670773    -3.292263372831     2.952880352262     1.007825032070
           H         -0.973603670773    -4.711234372831     2.951553352262     1.007825032070
           H         -0.301372670773    -3.138774372831     3.341202352262     1.007825032070

  Charge       = 0
  Multiplicity = 1
  Basis Set: 6-31G*
  Basis Set:

    Orbital Energies (a.u.)
    -----------------------

    Doubly Occupied:

       1A    -20.552420     2A    -11.266973     3A    -11.218926
       4A    -11.216593     5A    -11.215743     6A    -11.215112
       7A    -11.215025     8A    -11.213827     9A    -11.209299
      10A     -1.358737    11A     -1.095068    12A     -1.062043
      13A     -1.011444    14A     -0.945732    15A     -0.883743
      16A     -0.822175    17A     -0.804104    18A     -0.777817
      19A     -0.693835    20A     -0.647913    21A     -0.643497
      22A     -0.607700    23A     -0.604058    24A     -0.585728
      25A     -0.572559    26A     -0.553192    27A     -0.545521
      28A     -0.520878    29A     -0.509440    30A     -0.496070
      31A     -0.481899    32A     -0.475332    33A     -0.463916
      34A     -0.460601    35A     -0.456683    36A     -0.443156
      37A     -0.420731

  @DF-RHF Final Energy:  -388.28141078217487

   => Energetics <=

    Nuclear Repulsion Energy =            452.9568719005109756
    One-Electron Energy =               -1423.9415290361243933
    Two-Electron Energy =                 582.7032463534388853
    DFT Exchange-Correlation Energy =       0.0000000000000000
    Empirical Dispersion Energy =           0.0000000000000000
    PCM Polarization Energy =               0.0000000000000000
    EFP Energy =                            0.0000000000000000
    Total Energy =                       -388.2814107821744756

  Mulliken Charges: (a.u.)
   Center  Symbol    Alpha    Beta     Spin     Total
       1     H     0.28281  0.28281  0.00000  0.43437
       2     O     4.37107  4.37107  0.00000 -0.74214
       3     C     2.99000  2.99000  0.00000  0.01999
       4     C     3.16379  3.16379  0.00000 -0.32757
       5     H     0.41654  0.41654  0.00000  0.16692
       6     H     0.43246  0.43246  0.00000  0.13508
       7     C     3.16179  3.16179  0.00000 -0.32359
       8     H     0.42742  0.42742  0.00000  0.14515
       9     H     0.41565  0.41565  0.00000  0.16870
      10     C     3.15240  3.15240  0.00000 -0.30481
      11     H     0.42122  0.42122  0.00000  0.15757
      12     H     0.42267  0.42267  0.00000  0.15466
      13     C     3.15337  3.15337  0.00000 -0.30674
      14     H     0.42360  0.42360  0.00000  0.15280
      15     H     0.42059  0.42059  0.00000  0.15882
      16     C     3.15277  3.15277  0.00000 -0.30554
      17     H     0.42133  0.42133  0.00000  0.15733
      18     H     0.42360  0.42360  0.00000  0.15281
      19     C     3.15118  3.15118  0.00000 -0.30236
      20     H     0.42481  0.42481  0.00000  0.15037
      21     H     0.42254  0.42254  0.00000  0.15493
      22     C     3.23920  3.23920  0.00000 -0.47839
      23     H     0.42299  0.42299  0.00000  0.15403
      24     H     0.42292  0.42292  0.00000  0.15417
      25     H     0.42196  0.42196  0.00000  0.15607
      26     H     0.41922  0.41922  0.00000  0.16157
      27     H     0.42210  0.42210  0.00000  0.15581

   Total alpha = 37.00000, Total beta = 37.00000, Total charge =  0.00000
