  ==> Input File <==

--------------------------------------------------------------------------
set {
	reference rhf
	basis 6-31G*
}

set_num_threads( 4 )
memory 2 gb

molecule MOL {
0 1

H	 -2.798360	 -0.862255	 -0.071053
N	 -1.863561	 -0.715187	 0.256814
C	 -1.344686	 0.554728	 -0.219830
H	 -1.300452	 -1.461917	 -0.101532
C	 -0.178931	 0.992991	 0.641609
H	 -1.014525	 0.531663	 -1.259283
H	 -2.129844	 1.300759	 -0.144015
O	 0.858657	 0.068919	 0.478551
H	 0.155235	 1.987157	 0.345629
H	 -0.488707	 1.032485	 1.683585
C	 1.969427	 0.304708	 1.283637
H	 2.698361	 -0.465354	 1.070661
H	 2.413540	 1.276302	 1.074469
H	 1.710924	 0.263600	 2.339712

	symmetry c1
}
set optking {
	frozen_dihedral = ("
		6 3 2 4
	")
}

ee = optimize('scf')
oeprop('DIPOLE', 'QUADRUPOLE', 'MULLIKEN_CHARGES')
f=open( 'psi4out.xyz', 'w' )
f.write( "14  " )
f.write( str(ee) + "\n" )
f.write( MOL.save_string_xyz() )
f.close()
--------------------------------------------------------------------------

    Molecular point group: c1
  Charge       = 0
  Multiplicity = 1
  Basis Set: 6-31G*
  Basis Set:
  @DF-RHF Final Energy:  -248.12374332970396
    Total Energy =                       -248.1237433297040980
    Molecular point group: c1
  Basis Set: 6-31G*
  Basis Set:
  Basis Set: 6-31G*
  Basis Set:
  @DF-RHF Final Energy:  -248.12389329060346
    Total Energy =                       -248.1238932906032915
  Basis Set: 6-31G*
  Basis Set:
  Basis Set: 6-31G*
  Basis Set:
  @DF-RHF Final Energy:  -248.12391411635809
    Total Energy =                       -248.1239141163582644
  Basis Set: 6-31G*
  Basis Set:
  Charge       = 0
  Multiplicity = 1
  Basis Set: 6-31G*
  Basis Set:

    Orbital Energies (a.u.)
    -----------------------

    Doubly Occupied:

       1A    -20.553313     2A    -15.530802     3A    -11.263128
       4A    -11.261633     5A    -11.241511     6A     -1.377725
       7A     -1.174277     8A     -0.997899     9A     -0.904382
      10A     -0.813375    11A     -0.680678    12A     -0.673934
      13A     -0.640312    14A     -0.613456    15A     -0.604786
      16A     -0.534676    17A     -0.525858    18A     -0.498271
      19A     -0.471245    20A     -0.413777    21A     -0.382214

  @DF-RHF Final Energy:  -248.12391485066530

   => Energetics <=

    Nuclear Repulsion Energy =            194.3354208433096915
    One-Electron Energy =                -722.6041692312055602
    Two-Electron Energy =                 280.1448335372305678
    DFT Exchange-Correlation Energy =       0.0000000000000000
    Empirical Dispersion Energy =           0.0000000000000000
    PCM Polarization Energy =               0.0000000000000000
    EFP Energy =                            0.0000000000000000
    Total Energy =                       -248.1239148506652441
    Molecular point group: c1
  Basis Set: 6-31G*
  Basis Set:

  -Total Gradient:
     Atom            X                  Y                   Z
    ------   -----------------  -----------------  -----------------
       1       -0.000008079070    -0.000005443355    -0.000006703195
       2        0.003673274255     0.000135669045     0.004147076745
       3       -0.004794838883     0.001104843497    -0.002196804307
       4       -0.002149748056    -0.000349627723    -0.003094613035
       5        0.000030021029     0.000009671090    -0.000002169742
       6        0.003268584833    -0.000899770752     0.001166204574
       7        0.000024810636     0.000013771191     0.000003910352
       8       -0.000016575037    -0.000025171108    -0.000002481271
       9       -0.000013026896    -0.000007405213    -0.000011411658
      10       -0.000012486425     0.000015488031     0.000004434816
      11       -0.000004260680     0.000007011937    -0.000005995363
      12       -0.000001238133     0.000000146651    -0.000003169573
      13        0.000007553952     0.000002108731     0.000004125072
      14       -0.000003991524    -0.000001292023    -0.000002403415

  **** Optimization is complete! (in 4 steps) ****
    Final optimized geometry and variables:
    Molecular point group: c1

    Geometry (in Angstrom), charge = 0, multiplicity = 1:

    H           -2.686487001195    -1.097584177005    -0.591105898353
    N           -1.771394130150    -0.938350195926    -0.215356030761
    C           -1.240902301061     0.325732913056    -0.704342076675
    H           -1.200400818239    -1.694987544030    -0.537981368259
    C           -0.073766845174     0.767767660927     0.155465159407
    H           -0.882305287798     0.276065274002    -1.732440217611
    H           -2.020359301789     1.078181426189    -0.651319255821
    O            0.967561833122    -0.147178444143    -0.026451374699
    H            0.252869696507     1.767445270196    -0.133731122799
    H           -0.377774999427     0.794704668338     1.199156277025
    C            2.073687105209     0.072560559778     0.788428726180
    H            2.808139777376    -0.686905875712     0.556778125117
    H            2.513197991660     1.052354169517     0.608331609126
    H            1.812085211155     0.000231643966     1.842044137553

  Mulliken Charges: (a.u.)
   Center  Symbol    Alpha    Beta     Spin     Total
       1     H     0.33330  0.33330  0.00000  0.33341
       2     N     3.92019  3.92019  0.00000 -0.84038
       3     C     3.07590  3.07590  0.00000 -0.15181
       4     H     0.32611  0.32611  0.00000  0.34777
       5     C     2.98277  2.98277  0.00000  0.03447
       6     H     0.42417  0.42417  0.00000  0.15166
       7     H     0.42077  0.42077  0.00000  0.15847
       8     O     4.30874  4.30874  0.00000 -0.61747
       9     H     0.43395  0.43395  0.00000  0.13211
      10     H     0.42391  0.42391  0.00000  0.15217
      11     C     3.07828  3.07828  0.00000 -0.15655
      12     H     0.41325  0.41325  0.00000  0.17350
      13     H     0.43108  0.43108  0.00000  0.13785
      14     H     0.42759  0.42759  0.00000  0.14482

   Total alpha = 21.00000, Total beta = 21.00000, Total charge = -0.00000
