                              Psi4 1.0.54 Driver

  ==> Input File <==

--------------------------------------------------------------------------
set {
	reference rhf
	basis cc-pvtz
}

set_num_threads( 4 )
memory 2 gb

molecule MOL {
0 1

H	 -2.816458	 -0.841657	 -0.064679
N	 -1.878861	 -0.711874	 0.250184
C	 -1.341419	 0.551458	 -0.220231
H	 -1.333674	 -1.468530	 -0.105118
C	 -2.398632	 1.630338	 -0.165748
H	 -0.474580	 0.891060	 0.345282
H	 -1.030471	 0.433610	 -1.252449
O	 -2.744982	 1.854252	 1.167524
H	 -2.014629	 2.546893	 -0.611440
H	 -3.271761	 1.315382	 -0.732649
C	 -3.763199	 2.781078	 1.350408
H	 -3.941655	 2.873750	 2.411988
H	 -3.488107	 3.757077	 0.956144
H	 -4.683388	 2.461819	 0.866787

	symmetry c1
}
set optking {
	frozen_dihedral = ("
		6 3 2 4
	")
}

ee,wfn = optimize('scf', return_wfn=True)
oeprop( wfn, 'DIPOLE', 'QUADRUPOLE', 'MULLIKEN_CHARGES')
f=open( 'psi4out.xyz', 'w' )
f.write( "14  " )
f.write( str(ee) + "\n" )
f.write( MOL.save_string_xyz() )
f.close()
--------------------------------------------------------------------------

    Molecular point group: c1
  Charge       = 0
  Multiplicity = 1
  Basis Set: CC-PVTZ
  Basis Set:
  @DF-RHF Final Energy:  -248.21852787053794
    Total Energy =                       -248.2185278705378551
    Molecular point group: c1
  Basis Set: CC-PVTZ
  Basis Set:
  Basis Set: CC-PVTZ
  Basis Set:
  @DF-RHF Final Energy:  -248.22020204648678
    Total Energy =                       -248.2202020464868610
  Basis Set: CC-PVTZ
  Basis Set:
  Basis Set: CC-PVTZ
  Basis Set:
  @DF-RHF Final Energy:  -248.22040174003604
    Total Energy =                       -248.2204017400356975
  Basis Set: CC-PVTZ
  Basis Set:
  Basis Set: CC-PVTZ
  Basis Set:
  @DF-RHF Final Energy:  -248.22041017219837
    Total Energy =                       -248.2204101721984557
  Basis Set: CC-PVTZ
  Basis Set:
  Charge       = 0
  Multiplicity = 1
  Basis Set: CC-PVTZ
  Basis Set:

    Orbital Energies (a.u.)
    -----------------------

    Doubly Occupied:

       1A    -20.547192     2A    -15.525183     3A    -11.268719
       4A    -11.261867     5A    -11.241500     6A     -1.383553
       7A     -1.176979     8A     -1.001506     9A     -0.906449
      10A     -0.820635    11A     -0.684886    12A     -0.668317
      13A     -0.653879    14A     -0.614125    15A     -0.587886
      16A     -0.572059    17A     -0.519828    18A     -0.500412
      19A     -0.467946    20A     -0.419244    21A     -0.382970

  @DF-RHF Final Energy:  -248.22041081715184

   => Energetics <=

    Nuclear Repulsion Energy =            193.8492838552721764
    One-Electron Energy =                -721.7291173789741379
    Two-Electron Energy =                 279.6594227065500604
    DFT Exchange-Correlation Energy =       0.0000000000000000
    Empirical Dispersion Energy =           0.0000000000000000
    PCM Polarization Energy =               0.0000000000000000
    EFP Energy =                            0.0000000000000000
    Total Energy =                       -248.2204108171519579
    Molecular point group: c1
  Basis Set: CC-PVTZ
  Basis Set:

  -Total Gradient:
     Atom            X                  Y                   Z
    ------   -----------------  -----------------  -----------------
       1        0.000028173377     0.000009269471     0.000016284614
       2        0.001226663293     0.000299838782     0.002210775711
       3        0.000988055908    -0.001073320072    -0.001819669565
       4       -0.001197621498    -0.000024259658    -0.001585378784
       5        0.000040676200    -0.000059567056    -0.000036477967
       6       -0.001089774010     0.000845471744     0.001187241456
       7       -0.000007229790    -0.000009288240    -0.000016029839
       8       -0.000002644163     0.000025033641    -0.000008619210
       9       -0.000004449811    -0.000007966486     0.000035476150
      10        0.000015661452    -0.000008635449    -0.000006665694
      11        0.000022188215     0.000011960200     0.000028742802
      12       -0.000016645652     0.000010141761    -0.000001946906
      13       -0.000005854288    -0.000014640393     0.000000164941
      14        0.000002800768    -0.000004038244    -0.000003897705

  **** Optimization is complete! (in 5 steps) ****
    Final optimized geometry and variables:
    Molecular point group: c1

    Geometry (in Angstrom), charge = 0, multiplicity = 1:

    H           -0.415685936552    -2.095120949755    -0.665070760996
    N            0.520799399500    -1.968572668200    -0.342177167570
    C            1.042437412283    -0.678737225077    -0.763417550730
    H            1.060623563242    -2.713915423527    -0.727364544665
    C            0.023422065586     0.429506549365    -0.602563237535
    H            1.900040375651    -0.431485733237    -0.148560364265
    H            1.364699918956    -0.668215350572    -1.804441695446
    O           -0.280847696792     0.619478719551     0.739320242252
    H            0.429984374808     1.345556067094    -1.029951041325
    H           -0.881095345121     0.187167141529    -1.164106917722
    C           -1.218649454331     1.614028747630     0.979004849822
    H           -1.370923884319     1.674976042747     2.046659005610
    H           -0.876353976128     2.582278560548     0.618438854444
    H           -2.170957538167     1.388804171749     0.502834332162

  Mulliken Charges: (a.u.)
   Center  Symbol    Alpha    Beta     Spin     Total
       1     H     0.43450  0.43450  0.00000  0.13100
       2     N     3.67944  3.67944  0.00000 -0.35889
       3     C     3.01820  3.01820  0.00000 -0.03639
       4     H     0.43193  0.43193  0.00000  0.13613
       5     C     2.96817  2.96817  0.00000  0.06365
       6     H     0.45802  0.45802  0.00000  0.08396
       7     H     0.47025  0.47025  0.00000  0.05949
       8     O     4.16624  4.16624  0.00000 -0.33248
       9     H     0.46936  0.46936  0.00000  0.06129
      10     H     0.47972  0.47972  0.00000  0.04056
      11     C     3.03215  3.03215  0.00000 -0.06431
      12     H     0.44577  0.44577  0.00000  0.10847
      13     H     0.47317  0.47317  0.00000  0.05367
      14     H     0.47308  0.47308  0.00000  0.05384

   Total alpha = 21.00000, Total beta = 21.00000, Total charge =  0.00000

*** Psi4 exiting successfully. Buy a developer a beer!
