  ==> Input File <==

--------------------------------------------------------------------------
set {
	reference rhf
	basis 6-31G*
}

set_num_threads( 4 )
memory 2 gb

molecule MOL {
0 1

H	 4.564771	 0.378488	 0.823872
C	 3.720159	 -0.281107	 0.652658
C	 2.411240	 0.505148	 0.593519
H	 3.900802	 -0.813127	 -0.277153
H	 3.705783	 -1.013612	 1.454829
C	 1.196800	 -0.386263	 0.354945
H	 2.455512	 1.247906	 -0.196886
H	 2.277405	 1.051901	 1.525474
N	 -0.020642	 0.396643	 0.275242
H	 1.318139	 -0.912483	 -0.588099
H	 1.147848	 -1.154707	 1.133710
C	 -1.217365	 -0.386708	 0.039277
H	 -0.131014	 0.927219	 1.118657
C	 -2.452633	 0.504241	 -0.042481
H	 -1.091982	 -0.912881	 -0.903261
H	 -1.370032	 -1.155220	 0.804435
C	 -3.758029	 -0.289423	 -0.010781
H	 -2.394220	 1.093569	 -0.952170
H	 -2.440793	 1.210787	 0.785871
H	 -3.816659	 -0.981993	 -0.845726
H	 -4.617837	 0.370165	 -0.069296
H	 -3.847478	 -0.867502	 0.904682

	symmetry c1
}
set optking {
	frozen_dihedral = ("
		15 12 14 18
	")
}

ee = optimize('scf')
oeprop('DIPOLE', 'QUADRUPOLE', 'MULLIKEN_CHARGES')
f=open( 'psi4out.xyz', 'w' )
f.write( "22  " )
f.write( str(ee) + "\n" )
f.write( MOL.save_string_xyz() )
f.close()
--------------------------------------------------------------------------

    Molecular point group: c1
  Charge       = 0
  Multiplicity = 1
  Basis Set: 6-31G*
  Basis Set:
  @DF-RHF Final Energy:  -290.38257489777487
    Total Energy =                       -290.3825748977743615
    Molecular point group: c1
  Basis Set: 6-31G*
  Basis Set:
  Basis Set: 6-31G*
  Basis Set:
  @DF-RHF Final Energy:  -290.38264729620010
    Total Energy =                       -290.3826472962002754
  Basis Set: 6-31G*
  Basis Set:
  Basis Set: 6-31G*
  Basis Set:
  @DF-RHF Final Energy:  -290.38267749643762
    Total Energy =                       -290.3826774964373953
  Basis Set: 6-31G*
  Basis Set:
  Charge       = 0
  Multiplicity = 1
  Basis Set: 6-31G*
  Basis Set:

    Orbital Energies (a.u.)
    -----------------------

    Doubly Occupied:

       1A    -15.533414     2A    -11.238074     3A    -11.237824
       4A    -11.213604     5A    -11.213480     6A    -11.209677
       7A    -11.209425     8A     -1.205305     9A     -1.059064
      10A     -1.025729    11A     -0.927966    12A     -0.868199
      13A     -0.810874    14A     -0.793654    15A     -0.669281
      16A     -0.627110    17A     -0.614611    18A     -0.610902
      19A     -0.574748    20A     -0.563068    21A     -0.530977
      22A     -0.528248    23A     -0.513272    24A     -0.485098
      25A     -0.483387    26A     -0.474464    27A     -0.466324
      28A     -0.450317    29A     -0.358840

  @DF-RHF Final Energy:  -290.38267806710940

   => Energetics <=

    Nuclear Repulsion Energy =            313.1821830827894928
    One-Electron Energy =               -1012.1358547536599417
    Two-Electron Energy =                 408.5709936037609395
    DFT Exchange-Correlation Energy =       0.0000000000000000
    Empirical Dispersion Energy =           0.0000000000000000
    PCM Polarization Energy =               0.0000000000000000
    EFP Energy =                            0.0000000000000000
    Total Energy =                       -290.3826780671095094
    Molecular point group: c1
  Basis Set: 6-31G*
  Basis Set:

  -Total Gradient:
     Atom            X                  Y                   Z
    ------   -----------------  -----------------  -----------------
       1        0.000000810206    -0.000000445238     0.000002843088
       2       -0.000000461984    -0.000000712497     0.000010993345
       3       -0.000001145678    -0.000008608441     0.000000771302
       4       -0.000001596249     0.000003744257    -0.000000711444
       5        0.000000995441    -0.000002922965    -0.000001612316
       6        0.000002148081     0.000028471286    -0.000005598995
       7       -0.000007081056    -0.000007166865    -0.000004337257
       8        0.000004267864     0.000003103370    -0.000000249483
       9       -0.000017246595    -0.000009301831     0.000043361973
      10        0.000001948806    -0.000002151170    -0.000000478260
      11        0.000012878369    -0.000003232417     0.000000281154
      12       -0.002081338319    -0.002780158417     0.000697876981
      13        0.000018949684     0.000004077772    -0.000003225979
      14        0.001898894658     0.002741809982     0.001412620152
      15        0.001458213968     0.001916143447    -0.000886038968
      16       -0.000022490059     0.000043278571    -0.000005494101
      17       -0.000014621283    -0.000005029393     0.000024252465
      18       -0.001217956561    -0.001874046151    -0.001294059917
      19        0.000001152523    -0.000029729958     0.000003013847
      20        0.000010474419    -0.000004809244     0.000011056068
      21       -0.000007212870    -0.000003927742    -0.000015680403
      22       -0.000039583366    -0.000008386358     0.000010416743

  **** Optimization is complete! (in 4 steps) ****
    Final optimized geometry and variables:
    Molecular point group: c1

    Geometry (in Angstrom), charge = 0, multiplicity = 1:

    H            4.586621028061     0.381472877585     0.521540741959
    C            3.741566389562    -0.278855516049     0.355281226582
    C            2.430608331122     0.505116248726     0.314374119838
    H            3.913519269007    -0.805080724615    -0.579433527515
    H            3.736984866462    -1.016042772625     1.153275319253
    C            1.215489464775    -0.387274242623     0.083132476056
    H            2.465160247656     1.252536036378    -0.472088450028
    H            2.305455295165     1.046173011449     1.250917080480
    N           -0.004153158391     0.393634175420     0.020756752143
    H            1.328453385643    -0.908003968427    -0.863995871137
    H            1.176325314939    -1.160311136396     0.858036705267
    C           -1.203588420686    -0.391318157017    -0.202058317753
    H           -0.104261403982     0.922518844430     0.866436446402
    C           -2.433681818422     0.507085957684    -0.305038938960
    H           -1.070587396813    -0.921723010658    -1.140743871051
    H           -1.356790834719    -1.147498668377     0.574413557691
    C           -3.740945152787    -0.286094077886    -0.313967959407
    H           -2.361267906749     1.092167906231    -1.216325324295
    H           -2.442660923082     1.209544668863     0.525578996712
    H           -3.763416854754    -0.996447603911    -1.135942867056
    H           -4.596911897988     0.371846105358    -0.425329984499
    H           -3.871421917686    -0.845236594286     0.608226692191

  Mulliken Charges: (a.u.)
   Center  Symbol    Alpha    Beta     Spin     Total
       1     H     0.41775  0.41775  0.00000  0.16450
       2     C     3.24325  3.24325  0.00000 -0.48649
       3     C     3.15563  3.15563  0.00000 -0.31126
       4     H     0.42071  0.42071  0.00000  0.15859
       5     H     0.42168  0.42168  0.00000  0.15665
       6     C     3.04620  3.04620  0.00000 -0.09240
       7     H     0.41297  0.41297  0.00000  0.17406
       8     H     0.42673  0.42673  0.00000  0.14655
       9     N     3.85891  3.85891  0.00000 -0.71781
      10     H     0.42190  0.42190  0.00000  0.15621
      11     H     0.43643  0.43643  0.00000  0.12714
      12     C     3.04738  3.04738  0.00000 -0.09476
      13     H     0.33547  0.33547  0.00000  0.32906
      14     C     3.15351  3.15351  0.00000 -0.30702
      15     H     0.42110  0.42110  0.00000  0.15781
      16     H     0.43569  0.43569  0.00000  0.12861
      17     C     3.24380  3.24380  0.00000 -0.48760
      18     H     0.41410  0.41410  0.00000  0.17180
      19     H     0.42576  0.42576  0.00000  0.14848
      20     H     0.42128  0.42128  0.00000  0.15744
      21     H     0.41801  0.41801  0.00000  0.16399
      22     H     0.42176  0.42176  0.00000  0.15648

   Total alpha = 29.00000, Total beta = 29.00000, Total charge =  0.00000
