  ==> Input File <==

--------------------------------------------------------------------------
set {
	reference rhf
	basis 6-31G*
}

set_num_threads( 4 )
memory 2 gb

molecule MOL {
0 1

H	 -0.000158	 1.970498	 0.756846
O	 -0.000074	 1.880206	 -0.189275
C	 -0.000015	 0.544847	 -0.545111
C	 -1.278788	 -0.123820	 -0.051541
C	 1.278802	 -0.123718	 -0.051505
H	 -0.000001	 0.490777	 -1.623619
F	 -2.312698	 0.363926	 -0.703215
F	 -1.261659	 -1.427501	 -0.231768
F	 -1.465779	 0.112226	 1.237224
F	 2.323327	 0.466644	 -0.591854
F	 1.326242	 -1.401483	 -0.363667
F	 1.388946	 -0.015632	 1.262939

	symmetry c1
}
set optking {
	frozen_dihedral = ("
		7 4 3 6
	")
}

ee = optimize('scf')
oeprop('DIPOLE', 'QUADRUPOLE', 'MULLIKEN_CHARGES')
f=open( 'psi4out.xyz', 'w' )
f.write( "12  " )
f.write( str(ee) + "\n" )
f.write( MOL.save_string_xyz() )
f.close()
--------------------------------------------------------------------------

    Molecular point group: c1
  Charge       = 0
  Multiplicity = 1
  Basis Set: 6-31G*
  Basis Set:
  @DF-RHF Final Energy:  -786.27778533822675
    Total Energy =                       -786.2777853382269768
    Molecular point group: c1
  Basis Set: 6-31G*
  Basis Set:
  Basis Set: 6-31G*
  Basis Set:
  @DF-RHF Final Energy:  -786.27788669490963
    Total Energy =                       -786.2778866949093981
  Basis Set: 6-31G*
  Basis Set:
  Basis Set: 6-31G*
  Basis Set:
  @DF-RHF Final Energy:  -786.27793044297505
    Total Energy =                       -786.2779304429753893
  Basis Set: 6-31G*
  Basis Set:
  Basis Set: 6-31G*
  Basis Set:
  @DF-RHF Final Energy:  -786.27793689923851
    Total Energy =                       -786.2779368992387390
  Basis Set: 6-31G*
  Basis Set:
  Charge       = 0
  Multiplicity = 1
  Basis Set: 6-31G*
  Basis Set:

    Orbital Energies (a.u.)
    -----------------------

    Doubly Occupied:

       1A    -26.363895     2A    -26.362626     3A    -26.362154
       4A    -26.361026     5A    -26.358791     6A    -26.357795
       7A    -20.616772     8A    -11.526619     9A    -11.525397
      10A    -11.349269    11A     -1.764859    12A     -1.758830
      13A     -1.662135    14A     -1.658116    15A     -1.657106
      16A     -1.655216    17A     -1.435162    18A     -1.101596
      19A     -0.997091    20A     -0.938440    21A     -0.864061
      22A     -0.862857    23A     -0.851929    24A     -0.844658
      25A     -0.832118    26A     -0.816364    27A     -0.743171
      28A     -0.727189    29A     -0.724557    30A     -0.718007
      31A     -0.688986    32A     -0.686118    33A     -0.683224
      34A     -0.674743    35A     -0.670181    36A     -0.662807
      37A     -0.656888    38A     -0.652805    39A     -0.620542
      40A     -0.551774    41A     -0.505897

  @DF-RHF Final Energy:  -786.27793746918110

   => Energetics <=

    Nuclear Repulsion Energy =            670.4450371404680027
    One-Electron Energy =               -2427.7424109878083982
    Two-Electron Energy =                 971.0194363781586162
    DFT Exchange-Correlation Energy =       0.0000000000000000
    Empirical Dispersion Energy =           0.0000000000000000
    PCM Polarization Energy =               0.0000000000000000
    EFP Energy =                            0.0000000000000000
    Total Energy =                       -786.2779374691817793
    Molecular point group: c1
  Basis Set: 6-31G*
  Basis Set:

  -Total Gradient:
     Atom            X                  Y                   Z
    ------   -----------------  -----------------  -----------------
       1       -0.000011789247    -0.000052208880    -0.000021912221
       2        0.000010965384    -0.000025400834    -0.000048224002
       3        0.000793468295    -0.001572665612    -0.000103636235
       4       -0.000328153632     0.001386905258     0.001028569047
       5        0.000014050541     0.000017789426    -0.000082120017
       6       -0.000601070253     0.001168314918    -0.000052290488
       7        0.000084122209    -0.000818180076    -0.000819687528
       8       -0.000023942095    -0.000003846060     0.000033044551
       9        0.000025336302    -0.000092062638    -0.000006858326
      10        0.000005537494    -0.000023527868     0.000007916595
      11        0.000004103849     0.000044254936     0.000031586567
      12        0.000027371155    -0.000029372571     0.000033612064

  **** Optimization is complete! (in 5 steps) ****
    Final optimized geometry and variables:
    Molecular point group: c1

    Geometry (in Angstrom), charge = 0, multiplicity = 1:

    H           -0.022743268694     1.981617760096     0.725475575053
    O            0.002481665800     1.876767354352    -0.218663275386
    C            0.002023237375     0.535623301253    -0.554180285674
    C           -1.278740211024    -0.118599426325    -0.043283680276
    C            1.279918359544    -0.129761406497    -0.055551454980
    H           -0.005529638430     0.472930421731    -1.632075245296
    F           -2.314939020660     0.371423181755    -0.690437300885
    F           -1.277953848154    -1.424410870834    -0.211090455261
    F           -1.448609295105     0.129273036804     1.245107294916
    F            2.327095091525     0.499247985903    -0.543918409236
    F            1.357745899241    -1.392039409950    -0.420064631701
    F            1.354049557890    -0.075212816636     1.265056590573

  Mulliken Charges: (a.u.)
   Center  Symbol    Alpha    Beta     Spin     Total
       1     H     0.26556  0.26556  0.00000  0.46888
       2     O     4.36312  4.36312  0.00000 -0.72624
       3     C     3.04716  3.04716  0.00000 -0.09431
       4     C     2.44424  2.44424  0.00000  1.11151
       5     C     2.44607  2.44607  0.00000  1.10786
       6     H     0.37485  0.37485  0.00000  0.25030
       7     F     4.67528  4.67528  0.00000 -0.35056
       8     F     4.67379  4.67379  0.00000 -0.34758
       9     F     4.68067  4.68067  0.00000 -0.36134
      10     F     4.67451  4.67451  0.00000 -0.34902
      11     F     4.67385  4.67385  0.00000 -0.34771
      12     F     4.68090  4.68090  0.00000 -0.36179

   Total alpha = 41.00000, Total beta = 41.00000, Total charge = -0.00000
