  ==> Input File <==

--------------------------------------------------------------------------
set {
	reference rhf
	basis 6-31G*
}

set_num_threads( 4 )
memory 2 gb

molecule MOL {
0 1

O	 -2.439739	 -0.935931	 -0.423848
C	 -1.921153	 0.064240	 -0.045697
C	 -2.624470	 1.379923	 0.150949
O	 -0.632575	 0.154573	 0.251549
H	 -2.168117	 2.136577	 -0.476876
H	 -3.669540	 1.273223	 -0.098610
H	 -2.519365	 1.700893	 1.180846
C	 0.160891	 -1.019931	 0.106212
C	 1.589627	 -0.672828	 0.480843
H	 0.089836	 -1.367806	 -0.916050
H	 -0.238459	 -1.792301	 0.749618
C	 2.246377	 0.346236	 -0.452210
H	 2.163194	 -1.597435	 0.473358
H	 1.604769	 -0.303424	 1.502885
C	 1.992897	 1.788696	 -0.016253
H	 3.318258	 0.161883	 -0.486630
H	 1.874835	 0.200634	 -1.461227
H	 2.467507	 2.491464	 -0.693670
H	 2.384561	 1.973815	 0.980044
H	 0.929925	 2.012079	 0.000138

	symmetry c1
}
set optking {
	frozen_dihedral = ("
		16 12 9 8
	")
}

ee = optimize('scf')
oeprop('DIPOLE', 'QUADRUPOLE', 'MULLIKEN_CHARGES')
f=open( 'psi4out.xyz', 'w' )
f.write( "20  " )
f.write( str(ee) + "\n" )
f.write( MOL.save_string_xyz() )
f.close()
--------------------------------------------------------------------------

    Molecular point group: c1
  Charge       = 0
  Multiplicity = 1
  Basis Set: 6-31G*
  Basis Set:
  @DF-RHF Final Energy:  -383.94154469016013
    Total Energy =                       -383.9415446901599580
    Molecular point group: c1
  Basis Set: 6-31G*
  Basis Set:
  Basis Set: 6-31G*
  Basis Set:
  @DF-RHF Final Energy:  -383.94210681441825
    Total Energy =                       -383.9421068144182527
  Basis Set: 6-31G*
  Basis Set:
  Basis Set: 6-31G*
  Basis Set:
  @DF-RHF Final Energy:  -383.93995157322428
    Total Energy =                       -383.9399515732242207
  Basis Set: 6-31G*
  Basis Set:
  Basis Set: 6-31G*
  Basis Set:
  @DF-RHF Final Energy:  -383.94225211474480
    Total Energy =                       -383.9422521147446332
  Basis Set: 6-31G*
  Basis Set:
  Basis Set: 6-31G*
  Basis Set:
  @DF-RHF Final Energy:  -383.94227930223110
    Total Energy =                       -383.9422793022306450
  Basis Set: 6-31G*
  Basis Set:
  Charge       = 0
  Multiplicity = 1
  Basis Set: 6-31G*
  Basis Set:

    Orbital Energies (a.u.)
    -----------------------

    Doubly Occupied:

       1A    -20.602513     2A    -20.544885     3A    -11.375220
       4A    -11.282770     5A    -11.234086     6A    -11.226302
       7A    -11.222053     8A    -11.207985     9A     -1.468695
      10A     -1.362924    11A     -1.083949    12A     -1.027091
      13A     -0.980495    14A     -0.885265    15A     -0.804155
      16A     -0.777416    17A     -0.691547    18A     -0.685852
      19A     -0.667093    20A     -0.618854    21A     -0.600698
      22A     -0.597728    23A     -0.574280    24A     -0.555400
      25A     -0.539622    26A     -0.534114    27A     -0.510581
      28A     -0.480653    29A     -0.475443    30A     -0.467954
      31A     -0.448784    32A     -0.438492

  @DF-RHF Final Energy:  -383.94227950715202

   => Energetics <=

    Nuclear Repulsion Energy =            392.3841323449797187
    One-Electron Energy =               -1300.7070238382957541
    Two-Electron Energy =                 524.3806119861638990
    DFT Exchange-Correlation Energy =       0.0000000000000000
    Empirical Dispersion Energy =           0.0000000000000000
    PCM Polarization Energy =               0.0000000000000000
    EFP Energy =                            0.0000000000000000
    Total Energy =                       -383.9422795071521932
    Molecular point group: c1
  Basis Set: 6-31G*
  Basis Set:

  -Total Gradient:
     Atom            X                  Y                   Z
    ------   -----------------  -----------------  -----------------
       1        0.000023007312     0.000031840369     0.000062661081
       2       -0.000014456982    -0.000060409763     0.000077411846
       3        0.000022403319     0.000008376846    -0.000085797600
       4        0.000001766528    -0.000031183240     0.000089835493
       5       -0.000009762960     0.000032290717     0.000015548044
       6       -0.000002366360     0.000002905278    -0.000001396209
       7        0.000006435414    -0.000034706468    -0.000002450739
       8        0.000414030333    -0.000556694101    -0.000973649768
       9       -0.000489234615     0.000790512983     0.000631016659
      10        0.000055081081    -0.000010367604     0.000095939161
      11       -0.000091008857    -0.000011685718     0.000079652455
      12        0.000231910569     0.000604493335     0.000908836141
      13        0.000001095316    -0.000028876423     0.000036500518
      14        0.000018364791     0.000035522188     0.000007412763
      15        0.000013226577    -0.000055981524     0.000004747076
      16       -0.000138265175    -0.000730370853    -0.000954990900
      17       -0.000035216189     0.000018306180     0.000006174521
      18        0.000006867681     0.000013931199     0.000011029440
      19       -0.000021983966    -0.000013647223     0.000011069833
      20        0.000008106183    -0.000004256174    -0.000019549814

  **** Optimization is complete! (in 6 steps) ****
    Final optimized geometry and variables:
    Molecular point group: c1

    Geometry (in Angstrom), charge = 0, multiplicity = 1:

    O           -2.236905209914    -1.113477317505    -0.401765214866
    C           -1.730817621040    -0.099867521961    -0.043208707693
    C           -2.456956351172     1.202699665902     0.158215672356
    O           -0.438883186508     0.017247837157     0.230680157459
    H           -2.036648043006     1.960858821031    -0.492688070076
    H           -3.506127988782     1.069917964181    -0.059632096354
    H           -2.328948205961     1.539391552173     1.180430975149
    C            0.372231330695    -1.144359480392     0.079543657840
    C            1.800775941247    -0.808827135419     0.468648582018
    H            0.313910685639    -1.480692893621    -0.947264849038
    H           -0.026056071677    -1.928542752984     0.709361519137
    C            2.510210720222     0.208999442724    -0.440524325678
    H            2.345555664539    -1.749723447604     0.442274618072
    H            1.821655995555    -0.470556784441     1.501065424745
    C            2.305243482645     1.671989129096    -0.045064700859
    H            3.574665698739    -0.009056739025    -0.438068993877
    H            2.182255213473     0.060536259397    -1.467248157558
    H            2.853812693368     2.329745050690    -0.712666529680
    H            2.665353741456     1.852922072323     0.963965921618
    H            1.259967949685     1.951574601456    -0.079059709456

  Mulliken Charges: (a.u.)
   Center  Symbol    Alpha    Beta     Spin     Total
       1     O     4.28298  4.28298  0.00000 -0.56596
       2     C     2.61925  2.61925  0.00000  0.76150
       3     C     3.28205  3.28205  0.00000 -0.56411
       4     O     4.30808  4.30808  0.00000 -0.61616
       5     H     0.40072  0.40072  0.00000  0.19857
       6     H     0.39666  0.39666  0.00000  0.20669
       7     H     0.40036  0.40036  0.00000  0.19929
       8     C     3.00162  3.00162  0.00000 -0.00323
       9     C     3.16798  3.16798  0.00000 -0.33595
      10     H     0.41113  0.41113  0.00000  0.17773
      11     H     0.40866  0.40866  0.00000  0.18269
      12     C     3.15524  3.15524  0.00000 -0.31048
      13     H     0.41602  0.41602  0.00000  0.16796
      14     H     0.41366  0.41366  0.00000  0.17269
      15     C     3.23997  3.23997  0.00000 -0.47993
      16     H     0.41885  0.41885  0.00000  0.16229
      17     H     0.42120  0.42120  0.00000  0.15760
      18     H     0.42153  0.42153  0.00000  0.15694
      19     H     0.42304  0.42304  0.00000  0.15391
      20     H     0.41101  0.41101  0.00000  0.17797

   Total alpha = 32.00000, Total beta = 32.00000, Total charge = -0.00000
