                              Psi4 1.0.54 Driver

  ==> Input File <==

--------------------------------------------------------------------------
set {
	reference rhf
	basis cc-pvtz
}

set_num_threads( 4 )
memory 2 gb

molecule MOL {
0 1

H	 3.721907	 -0.933076	 -0.066039
O	 2.824271	 -1.154299	 0.131461
C	 2.076458	 -0.067370	 -0.038225
C	 0.626018	 -0.337582	 0.258241
O	 2.538288	 0.965419	 -0.381593
C	 -0.267326	 0.883135	 0.076490
H	 0.325620	 -1.161483	 -0.378003
H	 0.574537	 -0.713685	 1.275261
C	 -1.726822	 0.642622	 0.463839
H	 -0.210803	 1.217591	 -0.953497
H	 0.129920	 1.693110	 0.675679
C	 -2.480891	 -0.340606	 -0.429852
H	 -2.243098	 1.597649	 0.438609
H	 -1.776542	 0.301208	 1.495542
C	 -3.837509	 0.192821	 -0.878761
H	 -1.875033	 -0.564566	 -1.303816
H	 -2.628186	 -1.282131	 0.089563
H	 -4.350184	 -0.521696	 -1.512253
H	 -3.728967	 1.114837	 -1.439835
H	 -4.477785	 0.398862	 -0.027440

	symmetry c1
}
set optking {
	frozen_dihedral = ("
		16 12 9 6
	")
}

ee,wfn = optimize('scf', return_wfn=True)
oeprop( wfn, 'DIPOLE', 'QUADRUPOLE', 'MULLIKEN_CHARGES')
f=open( 'psi4out.xyz', 'w' )
f.write( "20  " )
f.write( str(ee) + "\n" )
f.write( MOL.save_string_xyz() )
f.close()
--------------------------------------------------------------------------

    Molecular point group: c1
  Charge       = 0
  Multiplicity = 1
  Basis Set: CC-PVTZ
  Basis Set:
  @DF-RHF Final Energy:  -384.09028844324746
    Total Energy =                       -384.0902884432472320
    Molecular point group: c1
  Basis Set: CC-PVTZ
  Basis Set:
  Basis Set: CC-PVTZ
  Basis Set:
  @DF-RHF Final Energy:  -384.09061282887745
    Total Energy =                       -384.0906128288775108
  Basis Set: CC-PVTZ
  Basis Set:
  Basis Set: CC-PVTZ
  Basis Set:
  @DF-RHF Final Energy:  -384.09067015671133
    Total Energy =                       -384.0906701567112123
  Basis Set: CC-PVTZ
  Basis Set:
  Basis Set: CC-PVTZ
  Basis Set:
  @DF-RHF Final Energy:  -384.09055158157963
    Total Energy =                       -384.0905515815796889
  Basis Set: CC-PVTZ
  Basis Set:
  Basis Set: CC-PVTZ
  Basis Set:
  @DF-RHF Final Energy:  -384.09067349924169
    Total Energy =                       -384.0906734992414044
  Basis Set: CC-PVTZ
  Basis Set:
  Basis Set: CC-PVTZ
  Basis Set:
  @DF-RHF Final Energy:  -384.09067250864814
    Total Energy =                       -384.0906725086483675
  Basis Set: CC-PVTZ
  Basis Set:
  Basis Set: CC-PVTZ
  Basis Set:
  @DF-RHF Final Energy:  -384.09067573266333
    Total Energy =                       -384.0906757326629304
  Basis Set: CC-PVTZ
  Basis Set:
  Charge       = 0
  Multiplicity = 1
  Basis Set: CC-PVTZ
  Basis Set:

    Orbital Energies (a.u.)
    -----------------------

    Doubly Occupied:

       1A    -20.603819     2A    -20.540423     3A    -11.373318
       4A    -11.238491     5A    -11.221297     6A    -11.218738
       7A    -11.217972     8A    -11.210879     9A     -1.477386
      10A     -1.368891    11A     -1.096679    12A     -1.040714
      13A     -0.962301    14A     -0.870701    15A     -0.818886
      16A     -0.777091    17A     -0.703607    18A     -0.692209
      19A     -0.668514    20A     -0.633665    21A     -0.603879
      22A     -0.596913    23A     -0.575076    24A     -0.566230
      25A     -0.531104    26A     -0.514875    27A     -0.501261
      28A     -0.484340    29A     -0.470656    30A     -0.463323
      31A     -0.458121    32A     -0.445896

  @DF-RHF Final Energy:  -384.09067579227036

   => Energetics <=

    Nuclear Repulsion Energy =            376.9618586567864327
    One-Electron Energy =               -1270.2105589979605611
    Two-Electron Energy =                 509.1580245489038816
    DFT Exchange-Correlation Energy =       0.0000000000000000
    Empirical Dispersion Energy =           0.0000000000000000
    PCM Polarization Energy =               0.0000000000000000
    EFP Energy =                            0.0000000000000000
    Total Energy =                       -384.0906757922701900
    Molecular point group: c1
  Basis Set: CC-PVTZ
  Basis Set:

  -Total Gradient:
     Atom            X                  Y                   Z
    ------   -----------------  -----------------  -----------------
       1       -0.000001090072    -0.000004741663     0.000003990082
       2        0.000004775452     0.000012357588    -0.000010566760
       3        0.000002382142    -0.000001734163    -0.000004039388
       4       -0.000000094957    -0.000001762721    -0.000025837897
       5       -0.000003200599    -0.000009918728     0.000013384935
       6       -0.000628579087     0.001779592816    -0.001402636720
       7       -0.000001240218     0.000000303142     0.000010352510
       8        0.000000259771     0.000005137075     0.000007349540
       9        0.001201419548    -0.003106756667     0.002376764616
      10       -0.000002369257    -0.000000350359     0.000000213504
      11       -0.000000142647    -0.000001823765    -0.000001745072
      12       -0.001884694920     0.003787361364    -0.002565260397
      13       -0.000003885118     0.000000157263    -0.000000462549
      14        0.000001461289    -0.000001584978    -0.000002736224
      15        0.000000071905    -0.000000808030     0.000004213959
      16        0.001314944961    -0.002451773715     0.001596163291
      17       -0.000002486809    -0.000001860237     0.000000245944
      18        0.000000249224    -0.000001067336     0.000002941439
      19        0.000001521518    -0.000003975046    -0.000001570143
      20        0.000000697873     0.000003248163    -0.000000764669

  **** Optimization is complete! (in 8 steps) ****
    Final optimized geometry and variables:
    Molecular point group: c1

    Geometry (in Angstrom), charge = 0, multiplicity = 1:

    H            3.677511167011    -1.076076301016     0.059199714479
    O            2.781465130126    -1.265918558959     0.293264960074
    C            2.050361411603    -0.175988609283     0.076801375792
    C            0.603529758158    -0.396334879390     0.426223264533
    O            2.521963909837     0.824452882377    -0.341263846460
    C           -0.271037998093     0.831692014918     0.207473793745
    H            0.263572986284    -1.244509117189    -0.157492142360
    H            0.571195175749    -0.719169381226     1.462026382821
    C           -1.738585681666     0.595727700855     0.565062861077
    H           -0.194497789818     1.148770400622    -0.826302124562
    H            0.119643164739     1.647614828446     0.803537192829
    C           -2.475726569326    -0.396902106167    -0.356558974581
    H           -2.241204564682     1.556270796840     0.518827069031
    H           -1.815735635724     0.271534811734     1.598579533593
    C           -3.839080006833     0.103861655770    -0.820154851628
    H           -1.858550441168    -0.628217474759    -1.219296437647
    H           -2.607826015353    -1.343851400528     0.157720520592
    H           -4.336634263405    -0.629828949242    -1.444017686792
    H           -3.743364202759     1.019384323228    -1.394137203832
    H           -4.485239605663     0.312156270313     0.026172462266

  Mulliken Charges: (a.u.)
   Center  Symbol    Alpha    Beta     Spin     Total
       1     H     0.38238  0.38238  0.00000  0.23524
       2     O     4.16038  4.16038  0.00000 -0.32076
       3     C     2.80394  2.80394  0.00000  0.39212
       4     C     3.11037  3.11037  0.00000 -0.22074
       5     O     4.19118  4.19118  0.00000 -0.38236
       6     C     3.09301  3.09301  0.00000 -0.18602
       7     H     0.43635  0.43635  0.00000  0.12730
       8     H     0.43756  0.43756  0.00000  0.12488
       9     C     3.10332  3.10332  0.00000 -0.20664
      10     H     0.44500  0.44500  0.00000  0.11001
      11     H     0.44083  0.44083  0.00000  0.11834
      12     C     3.09153  3.09153  0.00000 -0.18306
      13     H     0.44612  0.44612  0.00000  0.10776
      14     H     0.45023  0.45023  0.00000  0.09955
      15     C     3.14729  3.14729  0.00000 -0.29458
      16     H     0.45349  0.45349  0.00000  0.09301
      17     H     0.44996  0.44996  0.00000  0.10008
      18     H     0.44909  0.44909  0.00000  0.10183
      19     H     0.45433  0.45433  0.00000  0.09133
      20     H     0.45365  0.45365  0.00000  0.09270

   Total alpha = 32.00000, Total beta = 32.00000, Total charge = -0.00000

*** Psi4 exiting successfully. Buy a developer a beer!
