                              Psi4 1.0.54 Driver

  ==> Input File <==

--------------------------------------------------------------------------
set {
	reference rhf
	basis cc-pvtz
}

set_num_threads( 4 )
memory 2 gb

molecule MOL {
0 1

O	 -0.694481	 1.313155	 -0.204815
C	 -0.862519	 0.151932	 -0.046791
C	 -2.171428	 -0.477048	 0.339095
O	 0.085519	 -0.757083	 -0.192238
H	 -2.467997	 -1.191667	 -0.417688
H	 -2.923379	 0.287970	 0.444097
H	 -2.053854	 -1.015120	 1.270901
C	 1.008276	 -0.618164	 -1.266342
C	 2.162990	 0.290301	 -0.898609
H	 0.487455	 -0.251944	 -2.137229
H	 1.355374	 -1.621970	 -1.460370
H	 2.876774	 0.318617	 -1.714183
H	 1.818030	 1.298409	 -0.713939
H	 2.670832	 -0.075251	 -0.014266

	symmetry c1
}
set optking {
	frozen_dihedral = ("
		8 4 2 1
	")
}

ee,wfn = optimize('scf', return_wfn=True)
oeprop( wfn, 'DIPOLE', 'QUADRUPOLE', 'MULLIKEN_CHARGES')
f=open( 'psi4out.xyz', 'w' )
f.write( "14  " )
f.write( str(ee) + "\n" )
f.write( MOL.save_string_xyz() )
f.close()
--------------------------------------------------------------------------

    Molecular point group: c1
  Charge       = 0
  Multiplicity = 1
  Basis Set: CC-PVTZ
  Basis Set:
  @DF-RHF Final Energy:  -305.98246509325418
    Total Energy =                       -305.9824650932541772
    Molecular point group: c1
  Basis Set: CC-PVTZ
  Basis Set:
  Basis Set: CC-PVTZ
  Basis Set:
  @DF-RHF Final Energy:  -305.96396503361461
    Total Energy =                       -305.9639650336144996
  Basis Set: CC-PVTZ
  Basis Set:
  Basis Set: CC-PVTZ
  Basis Set:
  @DF-RHF Final Energy:  -305.98118566733353
    Total Energy =                       -305.9811856673334773
  Basis Set: CC-PVTZ
  Basis Set:
  Basis Set: CC-PVTZ
  Basis Set:
  @DF-RHF Final Energy:  -305.98352114406964
    Total Energy =                       -305.9835211440697549
  Basis Set: CC-PVTZ
  Basis Set:
  @DF-RHF Final Energy:  -305.98374819437544
    Total Energy =                       -305.9837481943753232
  @DF-RHF Final Energy:  -305.98381638429771
    Total Energy =                       -305.9838163842977110
  @DF-RHF Final Energy:  -305.98385395293747
    Total Energy =                       -305.9838539529375794
  @DF-RHF Final Energy:  -305.98386239201852
    Total Energy =                       -305.9838623920184091
  @DF-RHF Final Energy:  -305.98386353564410
    Total Energy =                       -305.9838635356441046
  @DF-RHF Final Energy:  -305.98383750895482
    Total Energy =                       -305.9838375089549345
  @DF-RHF Final Energy:  -305.98386286368759
    Total Energy =                       -305.9838628636878184
  @DF-RHF Final Energy:  -305.98386280800003
    Total Energy =                       -305.9838628079997989
  Basis Set: CC-PVTZ
  Basis Set:
  @DF-RHF Final Energy:  -305.98386335856742
    Total Energy =                       -305.9838633585674756
  Basis Set: CC-PVTZ
  Basis Set:
  Basis Set: CC-PVTZ
  Basis Set:
  @DF-RHF Final Energy:  -305.98386164324347
    Total Energy =                       -305.9838616432433014
  Basis Set: CC-PVTZ
  Basis Set:
  Basis Set: CC-PVTZ
  Basis Set:
  @DF-RHF Final Energy:  -305.98386305869803
    Total Energy =                       -305.9838630586978638
  Basis Set: CC-PVTZ
  Basis Set:
  Charge       = 0
  Multiplicity = 1
  Basis Set: CC-PVTZ
  Basis Set:

    Orbital Energies (a.u.)
    -----------------------

    Doubly Occupied:

       1A    -20.587056     2A    -20.537031     3A    -11.369068
       4A    -11.287379     5A    -11.232532     6A    -11.214998
       7A     -1.466388     8A     -1.366273     9A     -1.053969
      10A     -1.000322    11A     -0.879739    12A     -0.772947
      13A     -0.699675    14A     -0.684699    15A     -0.655384
      16A     -0.614913    17A     -0.584095    18A     -0.572929
      19A     -0.564468    20A     -0.532046    21A     -0.509630
      22A     -0.498975    23A     -0.451325    24A     -0.442464

  @DF-RHF Final Energy:  -305.98386338680808

   => Energetics <=

    Nuclear Repulsion Energy =            247.5978897998967909
    One-Electron Energy =                -908.0069001266301711
    Two-Electron Energy =                 354.4251469399252983
    DFT Exchange-Correlation Energy =       0.0000000000000000
    Empirical Dispersion Energy =           0.0000000000000000
    PCM Polarization Energy =               0.0000000000000000
    EFP Energy =                            0.0000000000000000
    Total Energy =                       -305.9838633868080251
    Molecular point group: c1
  Basis Set: CC-PVTZ
  Basis Set:

  -Total Gradient:
     Atom            X                  Y                   Z
    ------   -----------------  -----------------  -----------------
       1        0.003485691683     0.004621583601     0.007939244590
       2       -0.007267995961    -0.009848627788    -0.012977272712
       3       -0.000042450054    -0.000055867208    -0.000036026122
       4        0.008142728703     0.011421796167     0.007102646385
       5       -0.000005066585    -0.000022664685     0.000002654837
       6       -0.000024900301     0.000022482734     0.000003095612
       7        0.000029290145    -0.000020194466     0.000064590368
       8       -0.004338868495    -0.006117457315    -0.002089121458
       9        0.000004749835    -0.000000278500     0.000001512120
      10       -0.000020229567     0.000002036680    -0.000051581466
      11        0.000015937926    -0.000018086332     0.000017790544
      12        0.000001134402    -0.000008890513    -0.000004322847
      13       -0.000015887880     0.000029105300     0.000001619959
      14        0.000035866149    -0.000004937671     0.000025170193

  **** Optimization is complete! (in 16 steps) ****
    Final optimized geometry and variables:
    Molecular point group: c1

    Geometry (in Angstrom), charge = 0, multiplicity = 1:

    O           -0.906972726920     1.226832644228    -0.143595536556
    C           -0.803551432848     0.176204277925     0.387892608648
    C           -1.838542589396    -0.426392977042     1.294138953371
    O            0.294056751891    -0.570981664290     0.323152249772
    H           -2.214881381140    -1.339433681209     0.848589994521
    H           -2.646648004784     0.270914009403     1.444945334314
    H           -1.383408952449    -0.688833885220     2.240137234363
    C            0.992341174812    -0.650288891147    -0.916138794558
    C            2.220952458637     0.234123899488    -0.921990315185
    H            0.321907836037    -0.378562205989    -1.718812676716
    H            1.264029730744    -1.690392310212    -1.023660494319
    H            2.763705401228     0.102878218093    -1.851749352669
    H            1.941316417598     1.274323511499    -0.827875816236
    H            2.880224343824    -0.025565408488    -0.102642804411

  Mulliken Charges: (a.u.)
   Center  Symbol    Alpha    Beta     Spin     Total
       1     O     4.19008  4.19008  0.00000 -0.38016
       2     C     2.80599  2.80599  0.00000  0.38802
       3     C     3.13569  3.13569  0.00000 -0.27137
       4     O     4.16314  4.16314  0.00000 -0.32628
       5     H     0.44916  0.44916  0.00000  0.10169
       6     H     0.43873  0.43873  0.00000  0.12254
       7     H     0.44353  0.44353  0.00000  0.11294
       8     C     2.98209  2.98209  0.00000  0.03582
       9     C     3.14002  3.14002  0.00000 -0.28004
      10     H     0.45674  0.45674  0.00000  0.08652
      11     H     0.44559  0.44559  0.00000  0.10883
      12     H     0.45442  0.45442  0.00000  0.09115
      13     H     0.44221  0.44221  0.00000  0.11557
      14     H     0.45261  0.45261  0.00000  0.09478

   Total alpha = 24.00000, Total beta = 24.00000, Total charge = -0.00000

*** Psi4 exiting successfully. Buy a developer a beer!
