  ==> Input File <==

--------------------------------------------------------------------------
set {
	reference rhf
	basis 6-31G*
}

set_num_threads( 1 )
memory 2 gb

molecule MOL {
0 1

H	 -3.420663	 1.227371	 -1.044276
O	 -3.452007	 0.283848	 -0.965577
C	 -3.181085	 -0.079926	 0.364119
C	 -1.765924	 0.277073	 0.805136
H	 -3.327791	 -1.152017	 0.410903
H	 -3.905698	 0.375695	 1.036898
C	 -0.677594	 -0.417312	 -0.014550
H	 -1.637766	 1.358238	 0.744969
H	 -1.659588	 0.017670	 1.857098
C	 0.738335	 -0.034840	 0.421385
H	 -0.814977	 -0.178223	 -1.064632
H	 -0.802730	 -1.495410	 0.071702
C	 1.543395	 -1.230394	 0.937731
H	 1.254268	 0.426018	 -0.417568
H	 0.684665	 0.724091	 1.200967
C	 2.938643	 -0.882868	 1.469393
H	 1.636253	 -1.970835	 0.144749
H	 0.980243	 -1.710549	 1.735307
C	 3.912302	 -0.364833	 0.409189
H	 3.363931	 -1.772646	 1.927339
H	 2.846979	 -0.147005	 2.265827
H	 4.014356	 -1.075246	 -0.406922
H	 4.898705	 -0.208624	 0.835153
H	 3.587926	 0.580298	 -0.013507

	symmetry c1
}
set optking {
	frozen_dihedral = ("
		20 16 13 17,
		17 13 10 7,
		11 7 4 3,
		1 2 3 5,
		7 4 3 2
	")
}

ee = energy('scf')
oeprop('DIPOLE', 'QUADRUPOLE', 'MULLIKEN_CHARGES')
f=open( 'psi4out.xyz', 'w' )
f.write( "24  " )
f.write( str(ee) + "\n" )
f.write( MOL.save_string_xyz() )
f.close()
--------------------------------------------------------------------------

    Molecular point group: c1

    Geometry (in Angstrom), charge = 0, multiplicity = 1:

       Center              X                  Y                   Z               Mass
    ------------   -----------------  -----------------  -----------------  -----------------
           H         -3.374509564448     1.514120490249    -1.445766895231     1.007825032070
           O         -3.405853564448     0.570597490249    -1.367067895231    15.994914619560
           C         -3.134931564448     0.206823490249    -0.037371895231    12.000000000000
           C         -1.719770564448     0.563822490249     0.403645104769    12.000000000000
           H         -3.281637564448    -0.865267509751     0.009412104769     1.007825032070
           H         -3.859544564448     0.662444490249     0.635407104769     1.007825032070
           C         -0.631440564448    -0.130562509751    -0.416040895231    12.000000000000
           H         -1.591612564448     1.644987490249     0.343478104769     1.007825032070
           H         -1.613434564448     0.304419490249     1.455607104769     1.007825032070
           C          0.784488435552     0.251909490249     0.019894104769    12.000000000000
           H         -0.768823564448     0.108526490249    -1.466122895231     1.007825032070
           H         -0.756576564448    -1.208660509751    -0.329788895231     1.007825032070
           C          1.589548435552    -0.943644509751     0.536240104769    12.000000000000
           H          1.300421435552     0.712767490249    -0.819058895231     1.007825032070
           H          0.730818435552     1.010840490249     0.799476104769     1.007825032070
           C          2.984796435552    -0.596118509751     1.067902104769    12.000000000000
           H          1.682406435552    -1.684085509751    -0.256741895231     1.007825032070
           H          1.026396435552    -1.423799509751     1.333816104769     1.007825032070
           C          3.958455435552    -0.078083509751     0.007698104769    12.000000000000
           H          3.410084435552    -1.485896509751     1.525848104769     1.007825032070
           H          2.893132435552     0.139744490249     1.864336104769     1.007825032070
           H          4.060509435552    -0.788496509751    -0.808412895231     1.007825032070
           H          4.944858435552     0.078125490249     0.433662104769     1.007825032070
           H          3.634079435552     0.867047490249    -0.414997895231     1.007825032070

  Charge       = 0
  Multiplicity = 1
  Basis Set: 6-31G*
  Basis Set:

    Orbital Energies (a.u.)
    -----------------------

    Doubly Occupied:

       1A    -20.553370     2A    -11.267194     3A    -11.217819
       4A    -11.213965     5A    -11.212682     6A    -11.210628
       7A    -11.209381     8A    -11.207191     9A     -1.359928
      10A     -1.089051    11A     -1.047811    12A     -0.985098
      13A     -0.915053    14A     -0.851028    15A     -0.801368
      16A     -0.776773    17A     -0.679546    18A     -0.649689
      19A     -0.624770    20A     -0.619988    21A     -0.594346
      22A     -0.579743    23A     -0.571767    24A     -0.530576
      25A     -0.524462    26A     -0.511496    27A     -0.490346
      28A     -0.481973    29A     -0.466100    30A     -0.459193
      31A     -0.456568    32A     -0.439610    33A     -0.420374

  @DF-RHF Final Energy:  -349.24188617003176

   => Energetics <=

    Nuclear Repulsion Energy =            385.1351029228928837
    One-Electron Energy =               -1236.7161731791709371
    Two-Electron Energy =                 502.3391840862458935
    DFT Exchange-Correlation Energy =       0.0000000000000000
    Empirical Dispersion Energy =           0.0000000000000000
    PCM Polarization Energy =               0.0000000000000000
    EFP Energy =                            0.0000000000000000
    Total Energy =                       -349.2418861700321600

  Mulliken Charges: (a.u.)
   Center  Symbol    Alpha    Beta     Spin     Total
       1     H     0.28341  0.28341  0.00000  0.43318
       2     O     4.36828  4.36828  0.00000 -0.73655
       3     C     2.99662  2.99662  0.00000  0.00676
       4     C     3.17119  3.17119  0.00000 -0.34238
       5     H     0.41630  0.41630  0.00000  0.16740
       6     H     0.42841  0.42841  0.00000  0.14318
       7     C     3.15516  3.15516  0.00000 -0.31033
       8     H     0.42757  0.42757  0.00000  0.14486
       9     H     0.42232  0.42232  0.00000  0.15536
      10     C     3.15647  3.15647  0.00000 -0.31295
      11     H     0.40981  0.40981  0.00000  0.18038
      12     H     0.42066  0.42066  0.00000  0.15869
      13     C     3.15469  3.15469  0.00000 -0.30938
      14     H     0.41885  0.41885  0.00000  0.16230
      15     H     0.42319  0.42319  0.00000  0.15363
      16     C     3.15277  3.15277  0.00000 -0.30554
      17     H     0.42281  0.42281  0.00000  0.15439
      18     H     0.42320  0.42320  0.00000  0.15361
      19     C     3.24094  3.24094  0.00000 -0.48188
      20     H     0.42143  0.42143  0.00000  0.15713
      21     H     0.42395  0.42395  0.00000  0.15210
      22     H     0.42209  0.42209  0.00000  0.15583
      23     H     0.41962  0.41962  0.00000  0.16076
      24     H     0.42027  0.42027  0.00000  0.15945

   Total alpha = 33.00000, Total beta = 33.00000, Total charge = -0.00000
