                              Psi4 1.0.54 Driver

  ==> Input File <==

--------------------------------------------------------------------------
set {
	reference rhf
	basis cc-pvtz
}

set_num_threads( 4 )
memory 2 gb

molecule MOL {
0 1

O	 3.219313	 0.959291	 -0.614106
C	 2.698710	 0.058177	 -0.050237
C	 1.246364	 -0.005813	 0.348416
O	 3.344101	 -1.038700	 0.312317
C	 0.453207	 1.232821	 -0.049003
H	 0.839270	 -0.907818	 -0.092281
H	 1.216683	 -0.160521	 1.422434
C	 -0.998367	 1.217982	 0.432195
H	 0.481498	 1.345443	 -1.127236
H	 0.951413	 2.105557	 0.354893
C	 -1.882951	 0.151251	 -0.211235
H	 -1.429490	 2.193659	 0.228843
H	 -1.019755	 1.099323	 1.513279
C	 -3.342450	 0.243269	 0.226009
H	 -1.826223	 0.246578	 -1.293162
H	 -1.508033	 -0.839650	 0.027695
C	 -3.797451	 1.668024	 0.529028
H	 -3.492608	 -0.375194	 1.107653
H	 -3.977226	 -0.177033	 -0.550697
C	 -5.255907	 1.751536	 0.966875
H	 -3.164221	 2.089260	 1.305109
H	 -3.650630	 2.286856	 -0.352077
H	 -5.546305	 2.775206	 1.173640
H	 -5.428044	 1.170911	 1.867071
H	 -5.918140	 1.369133	 0.197184
C	 4.720529	 -1.114346	 0.001449
H	 4.874321	 -1.055557	 -1.065852
H	 5.057824	 -2.067950	 0.373977
H	 5.264321	 -0.313596	 0.480350

	symmetry c1
}
set optking {
	frozen_dihedral = ("
		17 14 11 15
	")
}

ee,wfn = optimize('scf', return_wfn=True)
oeprop( wfn, 'DIPOLE', 'QUADRUPOLE', 'MULLIKEN_CHARGES')
f=open( 'psi4out.xyz', 'w' )
f.write( "29  " )
f.write( str(ee) + "\n" )
f.write( MOL.save_string_xyz() )
f.close()
--------------------------------------------------------------------------

    Molecular point group: c1
  Charge       = 0
  Multiplicity = 1
  Basis Set: CC-PVTZ
  Basis Set:
  @DF-RHF Final Energy:  -501.21607239689195
    Total Energy =                       -501.2160723968920593
    Molecular point group: c1
  Basis Set: CC-PVTZ
  Basis Set:
  Basis Set: CC-PVTZ
  Basis Set:
  @DF-RHF Final Energy:  -501.16340442638693
    Total Energy =                       -501.1634044263873875
  Basis Set: CC-PVTZ
  Basis Set:
  Basis Set: CC-PVTZ
  Basis Set:
  @DF-RHF Final Energy:  -501.21550016918695
    Total Energy =                       -501.2155001691874077
  Basis Set: CC-PVTZ
  Basis Set:
  Basis Set: CC-PVTZ
  Basis Set:
  @DF-RHF Final Energy:  -501.21902478616596
    Total Energy =                       -501.2190247861656189
  Basis Set: CC-PVTZ
  Basis Set:
  @DF-RHF Final Energy:  -501.21926824896400
    Total Energy =                       -501.2192682489642266
  @DF-RHF Final Energy:  -501.21918232273799
    Total Energy =                       -501.2191823227386749
  @DF-RHF Final Energy:  -501.21924194343978
    Total Energy =                       -501.2192419434406929
  Basis Set: CC-PVTZ
  Basis Set:
  @DF-RHF Final Energy:  -501.21930792339845
    Total Energy =                       -501.2193079233984463
  Basis Set: CC-PVTZ
  Basis Set:
  Basis Set: CC-PVTZ
  Basis Set:
  @DF-RHF Final Energy:  -501.21930645253974
    Total Energy =                       -501.2193064525390582
  Basis Set: CC-PVTZ
  Basis Set:
  Basis Set: CC-PVTZ
  Basis Set:
  @DF-RHF Final Energy:  -501.21931016321264
    Total Energy =                       -501.2193101632126400
  Basis Set: CC-PVTZ
  Basis Set:
  Charge       = 0
  Multiplicity = 1
  Basis Set: CC-PVTZ
  Basis Set:

    Orbital Energies (a.u.)
    -----------------------

    Doubly Occupied:

       1A    -20.595986     2A    -20.533840     3A    -11.364272
       4A    -11.278245     5A    -11.232897     6A    -11.217137
       7A    -11.215535     8A    -11.214065     9A    -11.213316
      10A    -11.212727    11A    -11.206712    12A     -1.471882
      13A     -1.365479    14A     -1.098600    15A     -1.066373
      16A     -1.018629    17A     -0.977489    18A     -0.930044
      19A     -0.863192    20A     -0.819607    21A     -0.774742
      22A     -0.760749    23A     -0.703158    24A     -0.685249
      25A     -0.676062    26A     -0.643164    27A     -0.629721
      28A     -0.611102    29A     -0.594145    30A     -0.582419
      31A     -0.567463    32A     -0.555063    33A     -0.543929
      34A     -0.525965    35A     -0.523146    36A     -0.498335
      37A     -0.493725    38A     -0.487076    39A     -0.478899
      40A     -0.460743    41A     -0.451071    42A     -0.450523
      43A     -0.442661    44A     -0.440167

  @DF-RHF Final Energy:  -501.21931024916773

   => Energetics <=

    Nuclear Repulsion Energy =            615.1795305513534231
    One-Electron Energy =               -1901.8470638617527584
    Two-Electron Energy =                 785.4482230612316016
    DFT Exchange-Correlation Energy =       0.0000000000000000
    Empirical Dispersion Energy =           0.0000000000000000
    PCM Polarization Energy =               0.0000000000000000
    EFP Energy =                            0.0000000000000000
    Total Energy =                       -501.2193102491678474
    Molecular point group: c1
  Basis Set: CC-PVTZ
  Basis Set:

  -Total Gradient:
     Atom            X                  Y                   Z
    ------   -----------------  -----------------  -----------------
       1       -0.000016492528    -0.000007059665     0.000008112873
       2        0.000003145215     0.000025517351     0.000001166261
       3       -0.000005559828    -0.000008484679    -0.000024253734
       4        0.000005626676    -0.000013493119    -0.000007610602
       5        0.000003880043     0.000009436370     0.000014428469
       6       -0.000000355610     0.000000017178     0.000009684455
       7        0.000004707451     0.000006410320     0.000006811667
       8       -0.000000085927    -0.000000747763     0.000000199342
       9       -0.000001406878     0.000001612841    -0.000002604638
      10        0.000001544294    -0.000005033384    -0.000003781822
      11       -0.000740385961     0.006197252649     0.004273640907
      12        0.000003082599    -0.000007434245    -0.000001030296
      13        0.000002501297     0.000003208284    -0.000004264791
      14       -0.001838390083     0.000427958928    -0.006264269471
      15        0.001124184342    -0.005437998261    -0.002015543356
      16        0.000004717938     0.000002779134    -0.000000607437
      17        0.001445954964    -0.001192982641     0.004008139677
      18       -0.000004905611    -0.000000401129    -0.000000979487
      19       -0.000000001056     0.000004027704     0.000005457296
      20        0.000000723511     0.000009531132    -0.000001163699
      21       -0.000008262936    -0.000004629061    -0.000011518011
      22       -0.000005611714    -0.000003465558     0.000001913540
      23        0.000008905465    -0.000007365717    -0.000003634345
      24        0.000001600071     0.000001608131    -0.000002415424
      25        0.000012543496     0.000005376012     0.000010238463
      26       -0.000007423775    -0.000005868684     0.000005908893
      27        0.000002003383     0.000000186683     0.000001857619
      28        0.000002478360     0.000001845302    -0.000000880213
      29        0.000001282810    -0.000001804111    -0.000003002135

  **** Optimization is complete! (in 11 steps) ****
    Final optimized geometry and variables:
    Molecular point group: c1

    Geometry (in Angstrom), charge = 0, multiplicity = 1:

    O            3.027585903385     1.287280636867    -0.502468094607
    C            2.673106517357     0.206516055842    -0.174960279626
    C            1.253522355069    -0.195437525426     0.134525652425
    O            3.501976811582    -0.815518170034    -0.034813533570
    C            0.254464429660     0.945027966628    -0.016935536045
    H            1.017783886471    -1.033601329260    -0.509657485433
    H            1.246899945283    -0.587746544191     1.146652881447
    C           -1.176025501941     0.579497371869     0.385638627658
    H            0.267769416785     1.300011095924    -1.041612798957
    H            0.589507299528     1.776775671576     0.590406132596
    C           -1.856649707901    -0.419499474480    -0.547339475241
    H           -1.753668151345     1.495576973106     0.416787809835
    H           -1.174959104120     0.187508947435     1.400676410115
    C           -3.281004505200    -0.856984738749    -0.160987452293
    H           -1.856189644242    -0.041193118457    -1.566652003568
    H           -1.255135783763    -1.322016298977    -0.599147330946
    C           -4.173422283706     0.206564152862     0.477347736916
    H           -3.210649211644    -1.686228639143     0.539273552123
    H           -3.771062427017    -1.255643973986    -1.043701696646
    C           -5.584473308807    -0.306808802883     0.746685357975
    H           -3.735151511310     0.542727035727     1.409943381336
    H           -4.229157972918     1.080107529877    -0.167559251273
    H           -6.197509827883     0.456019901770     1.212800288237
    H           -5.567825006444    -1.166980288630     1.408049560887
    H           -6.074386245535    -0.608833434587    -0.172921531140
    C            4.871358859827    -0.580441124282    -0.292531807097
    H            5.017524202778    -0.257109891895    -1.312500492957
    H            5.371518917368    -1.520484957501    -0.124966661767
    H            5.261289349486     0.173414176231     0.375243328727

  Mulliken Charges: (a.u.)
   Center  Symbol    Alpha    Beta     Spin     Total
       1     O     4.19713  4.19713  0.00000 -0.39426
       2     C     2.80512  2.80512  0.00000  0.38977
       3     C     3.10096  3.10096  0.00000 -0.20193
       4     O     4.14722  4.14722  0.00000 -0.29444
       5     C     3.09248  3.09248  0.00000 -0.18497
       6     H     0.43909  0.43909  0.00000  0.12182
       7     H     0.44013  0.44013  0.00000  0.11974
       8     C     3.10866  3.10866  0.00000 -0.21733
       9     H     0.44628  0.44628  0.00000  0.10743
      10     H     0.43934  0.43934  0.00000  0.12132
      11     C     3.09967  3.09967  0.00000 -0.19934
      12     H     0.43998  0.43998  0.00000  0.12004
      13     H     0.45278  0.45278  0.00000  0.09444
      14     C     3.09030  3.09030  0.00000 -0.18060
      15     H     0.45054  0.45054  0.00000  0.09891
      16     H     0.45128  0.45128  0.00000  0.09743
      17     C     3.08974  3.08974  0.00000 -0.17948
      18     H     0.45474  0.45474  0.00000  0.09052
      19     H     0.44956  0.44956  0.00000  0.10088
      20     C     3.15119  3.15119  0.00000 -0.30238
      21     H     0.45054  0.45054  0.00000  0.09893
      22     H     0.45326  0.45326  0.00000  0.09349
      23     H     0.44810  0.44810  0.00000  0.10380
      24     H     0.45552  0.45552  0.00000  0.08897
      25     H     0.45440  0.45440  0.00000  0.09119
      26     C     3.03813  3.03813  0.00000 -0.07626
      27     H     0.45432  0.45432  0.00000  0.09135
      28     H     0.44528  0.44528  0.00000  0.10945
      29     H     0.45425  0.45425  0.00000  0.09150

   Total alpha = 44.00000, Total beta = 44.00000, Total charge =  0.00000

*** Psi4 exiting successfully. Buy a developer a beer!
