  ==> Input File <==

--------------------------------------------------------------------------
set {
	reference rhf
	basis 6-31G*
}

set_num_threads( 4 )
memory 2 gb

molecule MOL {
0 1

H	 0.195380	 1.529425	 2.096760
C	 1.006745	 1.010014	 1.572641
C	 0.692068	 0.589600	 0.160137
O	 2.042936	 0.815404	 2.120878
C	 -0.558097	 -0.297372	 0.091132
H	 1.559790	 0.081950	 -0.244625
H	 0.526195	 1.492825	 -0.425952
C	 -1.850991	 0.512573	 -0.019058
H	 -0.476753	 -0.965681	 -0.762987
H	 -0.604799	 -0.930658	 0.975228
C	 -3.096943	 -0.368295	 -0.099594
H	 -1.800724	 1.150330	 -0.898172
H	 -1.931651	 1.177355	 0.838044
H	 -3.060452	 -1.020287	 -0.967456
H	 -3.996858	 0.233488	 -0.175704
H	 -3.191959	 -0.995686	 0.782074

	symmetry c1
}
set optking {
	frozen_dihedral = ("
		6 3 5 9
	")
}

ee = optimize('scf')
oeprop('DIPOLE', 'QUADRUPOLE', 'MULLIKEN_CHARGES')
f=open( 'psi4out.xyz', 'w' )
f.write( "16  " )
f.write( str(ee) + "\n" )
f.write( MOL.save_string_xyz() )
f.close()
--------------------------------------------------------------------------

    Molecular point group: c1
  Charge       = 0
  Multiplicity = 1
  Basis Set: 6-31G*
  Basis Set:
  @DF-RHF Final Energy:  -270.01674462742403
    Total Energy =                       -270.0167446274241456
    Molecular point group: c1
  Basis Set: 6-31G*
  Basis Set:
  Basis Set: 6-31G*
  Basis Set:
  @DF-RHF Final Energy:  -270.01651204352765
    Total Energy =                       -270.0165120435276549
  Basis Set: 6-31G*
  Basis Set:
  Basis Set: 6-31G*
  Basis Set:
  @DF-RHF Final Energy:  -270.01491707660728
    Total Energy =                       -270.0149170766073894
  Basis Set: 6-31G*
  Basis Set:
  Basis Set: 6-31G*
  Basis Set:
  @DF-RHF Final Energy:  -270.01705091017038
    Total Energy =                       -270.0170509101703828
  Basis Set: 6-31G*
  Basis Set:
  @DF-RHF Final Energy:  -270.01712258332952
    Total Energy =                       -270.0171225833292965
  @DF-RHF Final Energy:  -270.01714529062502
    Total Energy =                       -270.0171452906250806
  @DF-RHF Final Energy:  -270.01716790909506
    Total Energy =                       -270.0171679090950647
  Basis Set: 6-31G*
  Basis Set:
  @DF-RHF Final Energy:  -270.01717292682667
    Total Energy =                       -270.0171729268268450
  Basis Set: 6-31G*
  Basis Set:
  Basis Set: 6-31G*
  Basis Set:
  @DF-RHF Final Energy:  -270.01718106906594
    Total Energy =                       -270.0171810690660550
  Basis Set: 6-31G*
  Basis Set:
  Basis Set: 6-31G*
  Basis Set:
  @DF-RHF Final Energy:  -270.01718374314078
    Total Energy =                       -270.0171837431410609
  Basis Set: 6-31G*
  Basis Set:
  Charge       = 0
  Multiplicity = 1
  Basis Set: 6-31G*
  Basis Set:

    Orbital Energies (a.u.)
    -----------------------

    Doubly Occupied:

       1A    -20.561698     2A    -11.326738     3A    -11.236101
       4A    -11.235202     5A    -11.231523     6A    -11.219927
       7A     -1.401908     8A     -1.096635     9A     -1.017984
      10A     -0.905456    11A     -0.823850    12A     -0.789172
      13A     -0.668756    14A     -0.656561    15A     -0.615508
      16A     -0.609435    17A     -0.582191    18A     -0.557270
      19A     -0.536526    20A     -0.507945    21A     -0.486412
      22A     -0.481994    23A     -0.474361    24A     -0.409254

  @DF-RHF Final Energy:  -270.01718382342733

   => Energetics <=

    Nuclear Repulsion Energy =            230.6561005461970524
    One-Electron Energy =                -822.4817551620926679
    Two-Electron Energy =                 321.8084707924681425
    DFT Exchange-Correlation Energy =       0.0000000000000000
    Empirical Dispersion Energy =           0.0000000000000000
    PCM Polarization Energy =               0.0000000000000000
    EFP Energy =                            0.0000000000000000
    Total Energy =                       -270.0171838234274446
    Molecular point group: c1
  Basis Set: 6-31G*
  Basis Set:

  -Total Gradient:
     Atom            X                  Y                   Z
    ------   -----------------  -----------------  -----------------
       1       -0.000001178656     0.000003608330    -0.000001681165
       2       -0.000000285589    -0.000015078540    -0.000016624733
       3        0.000641317772    -0.001233071208     0.002506337521
       4        0.000008209822     0.000005916756     0.000007997084
       5       -0.001084570482     0.001825666964    -0.001841757317
       6       -0.000356790740     0.000735653616    -0.001770922032
       7       -0.000007814555     0.000005876228     0.000001827563
       8        0.000003587414    -0.000007967935    -0.000005674690
       9        0.000805500309    -0.001337702650     0.001099322171
      10       -0.000003308034     0.000016737450     0.000005259469
      11       -0.000000141101     0.000002401220    -0.000000426845
      12       -0.000003493657     0.000008914524    -0.000000334721
      13       -0.000000785166    -0.000012775441     0.000008777562
      14        0.000008758617    -0.000000512984     0.000007973210
      15       -0.000000361073    -0.000001798338    -0.000006455685
      16       -0.000008644887     0.000004132008     0.000006382605

  **** Optimization is complete! (in 11 steps) ****
    Final optimized geometry and variables:
    Molecular point group: c1

    Geometry (in Angstrom), charge = 0, multiplicity = 1:

    H            0.448583513490     0.906172972823     1.556645210011
    C            1.307946798078     0.595096359249     0.951708855552
    C            0.994947338601     0.154511850299    -0.456118678756
    O            2.401833801681     0.623535048517     1.415379919906
    C           -0.279239125518    -0.702466339839    -0.556773240366
    H            1.862270447707    -0.364716828237    -0.845745253100
    H            0.876539123431     1.055050730370    -1.058416940975
    C           -1.571670377744     0.109701102853    -0.667842586628
    H           -0.188997146274    -1.361541186651    -1.415045934390
    H           -0.340398662515    -1.362539674435     0.307366376221
    C           -2.818964213182    -0.770267350552    -0.731027678410
    H           -1.522378334478     0.734034735888    -1.557117812899
    H           -1.656069811039     0.790630680321     0.176520978268
    H           -2.780024521721    -1.442857637812    -1.583002579915
    H           -3.717824180130    -0.169438649464    -0.824268602764
    H           -2.917325474935    -1.376809871857     0.164562967537

  Mulliken Charges: (a.u.)
   Center  Symbol    Alpha    Beta     Spin     Total
       1     H     0.43097  0.43097  0.00000  0.13806
       2     C     2.82994  2.82994  0.00000  0.34011
       3     C     3.21137  3.21137  0.00000 -0.42274
       4     O     4.23940  4.23940  0.00000 -0.47879
       5     C     3.16705  3.16705  0.00000 -0.33411
       6     H     0.39632  0.39632  0.00000  0.20737
       7     H     0.40526  0.40526  0.00000  0.18949
       8     C     3.15514  3.15514  0.00000 -0.31027
       9     H     0.41132  0.41132  0.00000  0.17736
      10     H     0.41657  0.41657  0.00000  0.16686
      11     C     3.24034  3.24034  0.00000 -0.48069
      12     H     0.41937  0.41937  0.00000  0.16125
      13     H     0.42176  0.42176  0.00000  0.15648
      14     H     0.41944  0.41944  0.00000  0.16111
      15     H     0.41625  0.41625  0.00000  0.16749
      16     H     0.41949  0.41949  0.00000  0.16102

   Total alpha = 24.00000, Total beta = 24.00000, Total charge =  0.00000
