  ==> Input File <==

--------------------------------------------------------------------------
set {
	reference rhf
	basis 6-31G*
}

set_num_threads( 4 )
memory 2 gb

molecule MOL {
0 1

H	 -2.172150	 0.880146	 0.502514
C	 -2.018062	 -0.000025	 -0.114509
O	 -0.774054	 0.001095	 -0.743181
H	 -2.760490	 0.003458	 -0.901350
H	 -2.173624	 -0.884374	 0.496163
C	 -0.492468	 0.968276	 -1.739073
C	 0.937340	 0.642288	 -2.164975
C	 -1.439684	 0.822546	 -2.934370
C	 -0.556073	 2.387357	 -1.165246
H	 0.991209	 -0.370948	 -2.546921
H	 1.606321	 0.717603	 -1.315171
H	 1.279948	 1.322988	 -2.937587
H	 -1.441923	 -0.202846	 -3.288765
H	 -1.119118	 1.464349	 -3.748573
H	 -2.458392	 1.099682	 -2.685402
H	 0.062685	 2.461391	 -0.277153
H	 -0.193317	 3.104325	 -1.894560
H	 -1.567550	 2.677190	 -0.901539

	symmetry c1
}
set optking {
	frozen_dihedral = ("
		6 3 2 5
	")
}

ee = optimize('scf')
oeprop('DIPOLE', 'QUADRUPOLE', 'MULLIKEN_CHARGES')
f=open( 'psi4out.xyz', 'w' )
f.write( "18  " )
f.write( str(ee) + "\n" )
f.write( MOL.save_string_xyz() )
f.close()
--------------------------------------------------------------------------

    Molecular point group: c1
  Charge       = 0
  Multiplicity = 1
  Basis Set: 6-31G*
  Basis Set:
  @DF-RHF Final Energy:  -271.17257556297477
    Total Energy =                       -271.1725755629746573
    Molecular point group: c1
  Basis Set: 6-31G*
  Basis Set:
  Basis Set: 6-31G*
  Basis Set:
  @DF-RHF Final Energy:  -271.17476147330274
    Total Energy =                       -271.1747614733027945
  Basis Set: 6-31G*
  Basis Set:
  Basis Set: 6-31G*
  Basis Set:
  @DF-RHF Final Energy:  -271.17540252242719
    Total Energy =                       -271.1754025224271345
  Basis Set: 6-31G*
  Basis Set:
  Basis Set: 6-31G*
  Basis Set:
  @DF-RHF Final Energy:  -271.17541265567075
    Total Energy =                       -271.1754126556710958
  Basis Set: 6-31G*
  Basis Set:
  Basis Set: 6-31G*
  Basis Set:
  @DF-RHF Final Energy:  -271.17542909197152
    Total Energy =                       -271.1754290919713526
  Basis Set: 6-31G*
  Basis Set:
  Basis Set: 6-31G*
  Basis Set:
  @DF-RHF Final Energy:  -271.17543193433386
    Total Energy =                       -271.1754319343338580
  Basis Set: 6-31G*
  Basis Set:
  Charge       = 0
  Multiplicity = 1
  Basis Set: 6-31G*
  Basis Set:

    Orbital Energies (a.u.)
    -----------------------

    Doubly Occupied:

       1A    -20.546754     2A    -11.281303     3A    -11.260681
       4A    -11.209569     5A    -11.207817     6A    -11.203261
       7A     -1.369998     8A     -1.072984     9A     -0.946114
      10A     -0.939498    11A     -0.912463    12A     -0.752361
      13A     -0.655262    14A     -0.644406    15A     -0.637526
      16A     -0.592526    17A     -0.574194    18A     -0.552710
      19A     -0.534375    20A     -0.523964    21A     -0.514695
      22A     -0.488000    23A     -0.486401    24A     -0.438952
      25A     -0.404132

  @DF-RHF Final Energy:  -271.17543231962492

   => Energetics <=

    Nuclear Repulsion Energy =            272.3181840370413624
    One-Electron Energy =                -907.4873388103110301
    Two-Electron Energy =                 363.9937224536448639
    DFT Exchange-Correlation Energy =       0.0000000000000000
    Empirical Dispersion Energy =           0.0000000000000000
    PCM Polarization Energy =               0.0000000000000000
    EFP Energy =                            0.0000000000000000
    Total Energy =                       -271.1754323196247469
    Molecular point group: c1
  Basis Set: 6-31G*
  Basis Set:

  -Total Gradient:
     Atom            X                  Y                   Z
    ------   -----------------  -----------------  -----------------
       1       -0.000016520116    -0.000019351964     0.000012771076
       2        0.000145085268     0.000159879003     0.000288408785
       3        0.000229632495     0.000256068418     0.000370196014
       4       -0.000022972130    -0.000005641715     0.000011356484
       5       -0.000211383113    -0.000199065080    -0.000384142813
       6       -0.000154931737    -0.000226604217    -0.000265000129
       7        0.000009207078     0.000020668870    -0.000018158267
       8       -0.000029719359    -0.000013497812     0.000025575118
       9        0.000018149690     0.000032678657    -0.000026068491
      10       -0.000006269223    -0.000000744034    -0.000003957511
      11       -0.000004369209    -0.000007954415    -0.000002414949
      12        0.000010987415    -0.000002359573    -0.000000847833
      13        0.000032539396    -0.000002685021    -0.000010347568
      14       -0.000001978105     0.000011308463     0.000028203575
      15       -0.000022934487    -0.000012475601    -0.000001446917
      16        0.000003314070    -0.000008168106    -0.000001939731
      17       -0.000003488736     0.000024849691    -0.000007902488
      18        0.000025650801    -0.000006905564    -0.000014284356

  **** Optimization is complete! (in 7 steps) ****
    Final optimized geometry and variables:
    Molecular point group: c1

    Geometry (in Angstrom), charge = 0, multiplicity = 1:

    H           -1.291079813224     0.066832516545     2.090362637875
    C           -1.271125551734    -0.752656217920     1.377892717070
    O           -0.061155373938    -0.821023797164     0.688829528522
    H           -2.125982338334    -0.656664482202     0.715449148002
    H           -1.370451270812    -1.682436017576     1.922096849527
    C            0.246990361361     0.163447351716    -0.282169336921
    C            1.687823976344    -0.152791840437    -0.676818410132
    C           -0.669515626078     0.026329220468    -1.502316664079
    C            0.162593307723     1.575113343706     0.306121143561
    H            1.755645645877    -1.164630950696    -1.060139944221
    H            2.337823264408    -0.076078222270     0.187500688495
    H            2.043255544705     0.531552195249    -1.440421340866
    H           -0.640585434508    -0.990700975406    -1.878231934214
    H           -0.345952214888     0.693548204797    -2.294763314061
    H           -1.699654402503     0.274394427381    -1.270866919262
    H            0.761021333275     1.644726188933     1.208564183903
    H            0.536857750892     2.302138125310    -0.407138693503
    H           -0.856909374386     1.854335491972     0.550429571686

  Mulliken Charges: (a.u.)
   Center  Symbol    Alpha    Beta     Spin     Total
       1     H     0.42816  0.42816  0.00000  0.14367
       2     C     3.07941  3.07941  0.00000 -0.15883
       3     O     4.31870  4.31870  0.00000 -0.63739
       4     H     0.43071  0.43071  0.00000  0.13858
       5     H     0.41295  0.41295  0.00000  0.17410
       6     C     2.84279  2.84279  0.00000  0.31442
       7     C     3.23302  3.23302  0.00000 -0.46605
       8     C     3.24461  3.24461  0.00000 -0.48922
       9     C     3.24946  3.24946  0.00000 -0.49891
      10     H     0.41373  0.41373  0.00000  0.17255
      11     H     0.41460  0.41460  0.00000  0.17080
      12     H     0.42511  0.42511  0.00000  0.14979
      13     H     0.41328  0.41328  0.00000  0.17343
      14     H     0.42077  0.42077  0.00000  0.15847
      15     H     0.42061  0.42061  0.00000  0.15877
      16     H     0.41351  0.41351  0.00000  0.17298
      17     H     0.41874  0.41874  0.00000  0.16251
      18     H     0.41983  0.41983  0.00000  0.16033

   Total alpha = 25.00000, Total beta = 25.00000, Total charge = -0.00000
