                              Psi4 1.0.54 Driver

  ==> Input File <==

--------------------------------------------------------------------------
set {
	reference rhf
	basis cc-pvtz
}

set_num_threads( 4 )
memory 2 gb

molecule MOL {
0 1

H	 3.275156	 0.170528	 -0.046416
N	 2.434494	 -0.366464	 -0.023670
C	 1.263552	 0.494993	 0.021953
H	 2.479435	 -0.949893	 0.785605
C	 -0.016533	 -0.325589	 -0.026925
H	 1.300929	 1.150915	 -0.841392
H	 1.243886	 1.138132	 0.902845
C	 -1.280353	 0.525521	 0.047747
H	 -0.016686	 -0.912532	 -0.939714
H	 -0.014099	 -1.037598	 0.796369
C	 -2.560681	 -0.301323	 -0.007747
H	 -1.279957	 1.241025	 -0.770189
H	 -1.270445	 1.110526	 0.963468
H	 -2.617064	 -0.872870	 -0.928010
H	 -3.439525	 0.331102	 0.043462
H	 -2.609427	 -1.002736	 0.818585

	symmetry c1
}
set optking {
	frozen_dihedral = ("
		6 3 5 9
	")
}

ee,wfn = optimize('scf', return_wfn=True)
oeprop( wfn, 'DIPOLE', 'QUADRUPOLE', 'MULLIKEN_CHARGES')
f=open( 'psi4out.xyz', 'w' )
f.write( "16  " )
f.write( str(ee) + "\n" )
f.write( MOL.save_string_xyz() )
f.close()
--------------------------------------------------------------------------

    Molecular point group: c1
  Charge       = 0
  Multiplicity = 1
  Basis Set: CC-PVTZ
  Basis Set:
  @DF-RHF Final Energy:  -212.40030414659714
    Total Energy =                       -212.4003041465973638
    Molecular point group: c1
  Basis Set: CC-PVTZ
  Basis Set:
  Basis Set: CC-PVTZ
  Basis Set:
  @DF-RHF Final Energy:  -212.40030689805636
    Total Energy =                       -212.4003068980563853
  Basis Set: CC-PVTZ
  Basis Set:
  Charge       = 0
  Multiplicity = 1
  Basis Set: CC-PVTZ
  Basis Set:

    Orbital Energies (a.u.)
    -----------------------

    Doubly Occupied:

       1A    -15.526479     2A    -11.238098     3A    -11.212912
       4A    -11.207950     5A    -11.205867     6A     -1.178246
       7A     -1.060838     8A     -0.959746     9A     -0.844172
      10A     -0.792293    11A     -0.665990    12A     -0.637785
      13A     -0.607247    14A     -0.576480    15A     -0.564983
      16A     -0.526013    17A     -0.500733    18A     -0.470360
      19A     -0.465572    20A     -0.462370    21A     -0.383994

  @DF-RHF Final Energy:  -212.40030766403106

   => Energetics <=

    Nuclear Repulsion Energy =            186.5722328018127314
    One-Electron Energy =                -655.7688205499878222
    Two-Electron Energy =                 256.7962800841439730
    DFT Exchange-Correlation Energy =       0.0000000000000000
    Empirical Dispersion Energy =           0.0000000000000000
    PCM Polarization Energy =               0.0000000000000000
    EFP Energy =                            0.0000000000000000
    Total Energy =                       -212.4003076640311178
    Molecular point group: c1
  Basis Set: CC-PVTZ
  Basis Set:

  -Total Gradient:
     Atom            X                  Y                   Z
    ------   -----------------  -----------------  -----------------
       1        0.000007859139    -0.000004441652     0.000002347545
       2       -0.000029052046     0.000017649659     0.000005843059
       3       -0.000334351598     0.000501820841     0.000259437463
       4        0.000009747964    -0.000012343441     0.000002822787
       5        0.000339237240    -0.000510594772     0.000236784744
       6        0.000225412489    -0.000346662600    -0.000276588567
       7        0.000003238871     0.000010389993     0.000019906256
       8        0.000019599585    -0.000021124934    -0.000008594479
       9       -0.000233575022     0.000366108883    -0.000252745059
      10       -0.000001571336    -0.000007484969     0.000010288260
      11       -0.000005130986     0.000004253595     0.000002380220
      12       -0.000003656664    -0.000000158602    -0.000002635950
      13       -0.000000592599     0.000001813879    -0.000001349895
      14        0.000001995180     0.000002693894    -0.000001275028
      15       -0.000000599682     0.000000906298     0.000002104120
      16        0.000001439465    -0.000002826072     0.000001274523

  **** Optimization is complete! (in 3 steps) ****
    Final optimized geometry and variables:
    Molecular point group: c1

    Geometry (in Angstrom), charge = 0, multiplicity = 1:

    H            3.274878418995     0.170808167322    -0.068308867288
    N            2.434175115690    -0.365840542149    -0.038934712221
    C            1.263446904711     0.495785468601     0.012405814950
    H            2.484450458725    -0.947773933003     0.771093142090
    C           -0.016266253050    -0.325710503171    -0.034232218012
    H            1.298707099536     1.150650748869    -0.851805967475
    H            1.247188229399     1.137902414256     0.894057982424
    C           -1.280103666089     0.525968730358     0.035891403831
    H           -0.017323019914    -0.913562253295    -0.946409842130
    H           -0.014767972285    -1.034969471320     0.791228139348
    C           -2.560476245275    -0.300517278895    -0.022808535391
    H           -1.277142200984     1.240999814380    -0.782520089757
    H           -1.272689780078     1.111445477710     0.951277340732
    H           -2.615713413011    -0.870488448572    -0.944116576010
    H           -3.439304398223     0.331981664296     0.028314299282
    H           -2.610404400302    -1.003342831486     0.802270736822

  Mulliken Charges: (a.u.)
   Center  Symbol    Alpha    Beta     Spin     Total
       1     H     0.43014  0.43014  0.00000  0.13971
       2     N     3.68953  3.68953  0.00000 -0.37906
       3     C     3.02622  3.02622  0.00000 -0.05245
       4     H     0.43092  0.43092  0.00000  0.13817
       5     C     3.07952  3.07952  0.00000 -0.15905
       6     H     0.45691  0.45691  0.00000  0.08617
       7     H     0.46888  0.46888  0.00000  0.06223
       8     C     3.08859  3.08859  0.00000 -0.17718
       9     H     0.44963  0.44963  0.00000  0.10075
      10     H     0.46067  0.46067  0.00000  0.07867
      11     C     3.14928  3.14928  0.00000 -0.29857
      12     H     0.45484  0.45484  0.00000  0.09032
      13     H     0.45643  0.45643  0.00000  0.08714
      14     H     0.45418  0.45418  0.00000  0.09163
      15     H     0.44879  0.44879  0.00000  0.10243
      16     H     0.45546  0.45546  0.00000  0.08908

   Total alpha = 21.00000, Total beta = 21.00000, Total charge = -0.00000

*** Psi4 exiting successfully. Buy a developer a beer!
