                              Psi4 1.0.54 Driver

  ==> Input File <==

--------------------------------------------------------------------------
set {
	reference rhf
	basis cc-pvtz
}

set_num_threads( 4 )
memory 2 gb

molecule MOL {
0 1

H	 -1.917815	 0.643473	 -2.118373
C	 -1.422371	 -0.253634	 -1.754206
O	 -1.401606	 -0.295183	 -0.366624
H	 -1.968411	 -1.118056	 -2.102780
H	 -0.417033	 -0.284193	 -2.170435
C	 -0.718530	 0.758693	 0.228682
C	 0.718529	 0.758687	 -0.228709
H	 -1.176498	 1.708665	 -0.046615
H	 -0.748705	 0.673525	 1.312779
O	 1.401606	 -0.295166	 0.366636
H	 0.748705	 0.673477	 -1.312803
H	 1.176496	 1.708671	 0.046552
C	 2.714315	 -0.441627	 -0.061017
H	 2.765292	 -0.641548	 -1.128869
H	 3.305661	 0.447341	 0.150952
H	 3.143725	 -1.278506	 0.470147

	symmetry c1
}
set optking {
	frozen_dihedral = ("
		2 3 6 7
	")
}

ee,wfn = optimize('scf', return_wfn=True)
oeprop( wfn, 'DIPOLE', 'QUADRUPOLE', 'MULLIKEN_CHARGES')
f=open( 'psi4out.xyz', 'w' )
f.write( "16  " )
f.write( str(ee) + "\n" )
f.write( MOL.save_string_xyz() )
f.close()
--------------------------------------------------------------------------

    Molecular point group: c1
  Charge       = 0
  Multiplicity = 1
  Basis Set: CC-PVTZ
  Basis Set:
  @DF-RHF Final Energy:  -307.08734819894283
    Total Energy =                       -307.0873481989428342
    Molecular point group: c1
  Basis Set: CC-PVTZ
  Basis Set:
  Basis Set: CC-PVTZ
  Basis Set:
  @DF-RHF Final Energy:  -307.03302294431944
    Total Energy =                       -307.0330229443196117
  Basis Set: CC-PVTZ
  Basis Set:
  Basis Set: CC-PVTZ
  Basis Set:
  @DF-RHF Final Energy:  -307.08594885284504
    Total Energy =                       -307.0859488528452061
  Basis Set: CC-PVTZ
  Basis Set:
  Basis Set: CC-PVTZ
  Basis Set:
  @DF-RHF Final Energy:  -307.09320115539651
    Total Energy =                       -307.0932011553967413
  Basis Set: CC-PVTZ
  Basis Set:
  @DF-RHF Final Energy:  -307.09423231747923
    Total Energy =                       -307.0942323174793955
  Basis Set: CC-PVTZ
  Basis Set:
  @DF-RHF Final Energy:  -307.09449838535244
    Total Energy =                       -307.0944983853524377
  Basis Set: CC-PVTZ
  Basis Set:
  Basis Set: CC-PVTZ
  Basis Set:
  @DF-RHF Final Energy:  -307.09454810728744
    Total Energy =                       -307.0945481072875509
  Basis Set: CC-PVTZ
  Basis Set:
  Basis Set: CC-PVTZ
  Basis Set:
  @DF-RHF Final Energy:  -307.09455515978175
    Total Energy =                       -307.0945551597816348
  Basis Set: CC-PVTZ
  Basis Set:
  Charge       = 0
  Multiplicity = 1
  Basis Set: CC-PVTZ
  Basis Set:

    Orbital Energies (a.u.)
    -----------------------

    Doubly Occupied:

       1A    -20.552404     2A    -20.546033     3A    -11.270674
       4A    -11.267719     5A    -11.265697     6A    -11.260637
       7A     -1.393352     8A     -1.373763     9A     -1.029289
      10A     -0.948130    11A     -0.900456    12A     -0.814055
      13A     -0.692175    14A     -0.682774    15A     -0.661222
      16A     -0.639711    17A     -0.631435    18A     -0.599529
      19A     -0.557639    20A     -0.530885    21A     -0.517720
      22A     -0.492252    23A     -0.456759    24A     -0.423513
      25A     -0.413237

  @DF-RHF Final Energy:  -307.09455544212437

   => Energetics <=

    Nuclear Repulsion Energy =            263.2172877487566893
    One-Electron Energy =                -940.7815687378358689
    Two-Electron Energy =                 370.4697255469549759
    DFT Exchange-Correlation Energy =       0.0000000000000000
    Empirical Dispersion Energy =           0.0000000000000000
    PCM Polarization Energy =               0.0000000000000000
    EFP Energy =                            0.0000000000000000
    Total Energy =                       -307.0945554421242036
    Molecular point group: c1
  Basis Set: CC-PVTZ
  Basis Set:

  -Total Gradient:
     Atom            X                  Y                   Z
    ------   -----------------  -----------------  -----------------
       1       -0.000000913661    -0.000007297419     0.000000554786
       2        0.000902545117    -0.000316772452     0.000332735533
       3       -0.001350312254     0.000559443762    -0.000883914539
       4       -0.000000978906     0.000002179062    -0.000007674635
       5       -0.000010552073    -0.000002747937    -0.000005397161
       6        0.000594087507    -0.000478774782     0.001419159549
       7       -0.000141238039     0.000297184624    -0.000900413574
       8        0.000006809728    -0.000008030073     0.000004668575
       9        0.000008706964     0.000008982643    -0.000000431760
      10        0.000058428400    -0.000028719191     0.000042024618
      11       -0.000012178586     0.000000159660     0.000009465992
      12       -0.000003895898    -0.000025736312    -0.000000683472
      13       -0.000051724068     0.000004675302    -0.000008499569
      14        0.000005581743     0.000001282264     0.000004111685
      15        0.000001836354    -0.000010511548    -0.000001865128
      16       -0.000006202332     0.000004682398    -0.000003840900

  **** Optimization is complete! (in 9 steps) ****
    Final optimized geometry and variables:
    Molecular point group: c1

    Geometry (in Angstrom), charge = 0, multiplicity = 1:

    H           -1.577415893197    -0.449133357850    -2.244562651893
    C           -1.227907409407    -1.156013038971    -1.493680106416
    O           -1.513898196111    -0.719201319238    -0.205984644851
    H           -1.745359729553    -2.093393214777    -1.638136107417
    H           -0.166308664206    -1.324862611836    -1.642010931717
    C           -1.153250896003     0.586975861501     0.107721115860
    C            0.323320409362     0.907106813218    -0.011259984947
    H           -1.697307060927     1.290578908189    -0.523721612199
    H           -1.464348240251     0.744184165099     1.130905760111
    O            1.056365599396     0.096483501682     0.845487649609
    H            0.669011510144     0.786604167314    -1.036283732065
    H            0.454964779659     1.958214692248     0.247033732407
    C            2.426503564229     0.321254746808     0.817867230301
    H            2.840530799700     0.142902733327    -0.172444346090
    H            2.670129957508     1.339881837316     1.112867966531
    H            2.887837921619    -0.362456129304     1.515217138635

  Mulliken Charges: (a.u.)
   Center  Symbol    Alpha    Beta     Spin     Total
       1     H     0.47394  0.47394  0.00000  0.05211
       2     C     3.03573  3.03573  0.00000 -0.07145
       3     O     4.17216  4.17216  0.00000 -0.34432
       4     H     0.44342  0.44342  0.00000  0.11315
       5     H     0.46715  0.46715  0.00000  0.06569
       6     C     2.97564  2.97564  0.00000  0.04872
       7     C     2.98201  2.98201  0.00000  0.03599
       8     H     0.47157  0.47157  0.00000  0.05685
       9     H     0.45003  0.45003  0.00000  0.09995
      10     O     4.16981  4.16981  0.00000 -0.33962
      11     H     0.47303  0.47303  0.00000  0.05394
      12     H     0.46340  0.46340  0.00000  0.07319
      13     C     3.03330  3.03330  0.00000 -0.06659
      14     H     0.47246  0.47246  0.00000  0.05508
      15     H     0.47106  0.47106  0.00000  0.05788
      16     H     0.44529  0.44529  0.00000  0.10942

   Total alpha = 25.00000, Total beta = 25.00000, Total charge = -0.00000

*** Psi4 exiting successfully. Buy a developer a beer!
