  ==> Input File <==

--------------------------------------------------------------------------
set {
	reference rhf
	basis 6-31G*
}

set_num_threads( 4 )
memory 2 gb

molecule MOL {
0 1

H	 2.866480	 -0.465706	 0.876907
C	 2.405773	 -0.024801	 0.000000
N	 0.988830	 -0.304158	 0.000000
H	 2.866480	 -0.465706	 -0.876907
H	 2.629928	 1.045948	 0.000000
C	 0.279147	 0.434866	 -1.027698
C	 0.381680	 -0.085199	 1.299767
H	 0.366520	 1.515979	 -0.879175
H	 0.709903	 0.198994	 -1.995716
C	 -1.190225	 0.046501	 -1.017284
H	 0.887516	 -0.701886	 2.036024
H	 0.476524	 0.958017	 1.617892
C	 -1.090411	 -0.459772	 1.248460
H	 -1.751489	 0.652089	 -1.716758
H	 -1.293324	 -0.998984	 -1.302417
O	 -1.754814	 0.257354	 0.246335
H	 -1.579679	 -0.219356	 2.183250
H	 -1.188814	 -1.529077	 1.069926

	symmetry c1
}
set optking {
	frozen_dihedral = ("
		6 3 2 5
	")
}

ee = optimize('scf')
oeprop('DIPOLE', 'QUADRUPOLE', 'MULLIKEN_CHARGES')
f=open( 'psi4out.xyz', 'w' )
f.write( "18  " )
f.write( str(ee) + "\n" )
f.write( MOL.save_string_xyz() )
f.close()
--------------------------------------------------------------------------

    Molecular point group: c1
  Charge       = 0
  Multiplicity = 1
  Basis Set: 6-31G*
  Basis Set:
  @DF-RHF Final Energy:  -325.02793404942821
    Total Energy =                       -325.0279340494288363
    Molecular point group: c1
  Basis Set: 6-31G*
  Basis Set:
  Basis Set: 6-31G*
  Basis Set:
  @DF-RHF Final Energy:  -325.02801152276976
    Total Energy =                       -325.0280115227699298
  Basis Set: 6-31G*
  Basis Set:
  Basis Set: 6-31G*
  Basis Set:
  @DF-RHF Final Energy:  -325.02801681686259
    Total Energy =                       -325.0280168168626460
  Basis Set: 6-31G*
  Basis Set:
  Charge       = 0
  Multiplicity = 1
  Basis Set: 6-31G*
  Basis Set:

    Orbital Energies (a.u.)
    -----------------------

    Doubly Occupied:

       1A    -20.554005     2A    -15.549832     3A    -11.266307
       4A    -11.266222     5A    -11.244128     6A    -11.244113
       7A    -11.241109     8A     -1.383463     9A     -1.232312
      10A     -1.038348    11A     -0.981219    12A     -0.882637
      13A     -0.869099    14A     -0.775155    15A     -0.683560
      16A     -0.645231    17A     -0.643340    18A     -0.633937
      19A     -0.629070    20A     -0.571812    21A     -0.557508
      22A     -0.540138    23A     -0.527615    24A     -0.501904
      25A     -0.483636    26A     -0.452292    27A     -0.407789
      28A     -0.354576

  @DF-RHF Final Energy:  -325.02801726835082

   => Energetics <=

    Nuclear Repulsion Energy =            341.4986225034584777
    One-Electron Energy =               -1118.7325679375755954
    Two-Electron Energy =                 452.2059281657661813
    DFT Exchange-Correlation Energy =       0.0000000000000000
    Empirical Dispersion Energy =           0.0000000000000000
    PCM Polarization Energy =               0.0000000000000000
    EFP Energy =                            0.0000000000000000
    Total Energy =                       -325.0280172683509363
    Molecular point group: c1
  Basis Set: 6-31G*
  Basis Set:

  -Total Gradient:
     Atom            X                  Y                   Z
    ------   -----------------  -----------------  -----------------
       1       -0.000025215139    -0.000008699575    -0.000006443072
       2       -0.000135912085     0.000612232452     0.004468939199
       3        0.000493594350    -0.002305554609    -0.002845607991
       4        0.000018787166    -0.000000807502    -0.000021422692
       5       -0.000007520937     0.000025869888    -0.003034193745
       6       -0.000331990272     0.001697529662     0.001478299518
       7        0.000009172528    -0.000028470294    -0.000055338803
       8        0.000007561052     0.000020036894    -0.000006239283
       9       -0.000004743287     0.000002871016    -0.000001764350
      10        0.000001083399    -0.000019759285    -0.000002990776
      11        0.000005568719     0.000002006696     0.000002436400
      12       -0.000001349945    -0.000001068126    -0.000002412751
      13       -0.000026176341     0.000011140984     0.000035073677
      14        0.000012955282    -0.000000269461     0.000002779905
      15       -0.000014188239    -0.000009284303    -0.000001320551
      16        0.000002619947    -0.000005161621    -0.000007964501
      17       -0.000009206206    -0.000002443323     0.000006249876
      18        0.000004960009     0.000009830506    -0.000008080063

  **** Optimization is complete! (in 4 steps) ****
    Final optimized geometry and variables:
    Molecular point group: c1

    Geometry (in Angstrom), charge = 0, multiplicity = 1:

    H            2.880352592098    -0.467267500883     0.749946518476
    C            2.404522371901    -0.011555723393    -0.109849928578
    N            0.987755108150    -0.302027212401    -0.105857115886
    H            2.859042267754    -0.428289765798    -1.003053634686
    H            2.618887759117     1.060575823445    -0.104916953417
    C            0.279814241306     0.443194617069    -1.131126461076
    C            0.376593714979    -0.068865715308     1.191606558058
    H            0.370140455400     1.522602078150    -0.974334153789
    H            0.713037616960     0.213506911382    -2.099901219008
    C           -1.190321485139     0.058389211245    -1.127757878787
    H            0.877938199818    -0.680551065572     1.934697587658
    H            0.470725686859     0.976759387627     1.501375564502
    C           -1.095717787917    -0.442767521617     1.139403606899
    H           -1.746868592024     0.665699601073    -1.829558112403
    H           -1.294870921550    -0.986653151648    -1.413567742968
    O           -1.759200421683     0.270289747295     0.133732303029
    H           -1.586221962707    -0.199746990412     2.072935791386
    H           -1.193086283244    -1.512609276234     0.963937941993

  Mulliken Charges: (a.u.)
   Center  Symbol    Alpha    Beta     Spin     Total
       1     H     0.41642  0.41642  0.00000  0.16716
       2     C     3.14078  3.14078  0.00000 -0.28157
       3     N     3.78667  3.78667  0.00000 -0.57335
       4     H     0.41516  0.41516  0.00000  0.16967
       5     H     0.43169  0.43169  0.00000  0.13663
       6     C     3.06970  3.06970  0.00000 -0.13939
       7     C     3.06943  3.06943  0.00000 -0.13885
       8     H     0.42775  0.42775  0.00000  0.14450
       9     H     0.41656  0.41656  0.00000  0.16687
      10     C     2.99730  2.99730  0.00000  0.00539
      11     H     0.41666  0.41666  0.00000  0.16668
      12     H     0.42821  0.42821  0.00000  0.14357
      13     C     2.99757  2.99757  0.00000  0.00485
      14     H     0.41324  0.41324  0.00000  0.17351
      15     H     0.42375  0.42375  0.00000  0.15250
      16     O     4.31201  4.31201  0.00000 -0.62402
      17     H     0.41326  0.41326  0.00000  0.17349
      18     H     0.42383  0.42383  0.00000  0.15235

   Total alpha = 28.00000, Total beta = 28.00000, Total charge = -0.00000
