  ==> Input File <==

--------------------------------------------------------------------------
set {
	reference rhf
	basis cc-pvtz
}

set_num_threads( 4 )
memory 2 gb

molecule MOL {
0 1

O	 -1.313501	 0.131292	 -1.042193
C	 -1.081510	 0.147522	 0.122720
C	 0.327029	 -0.064006	 0.641890
C	 -2.172597	 0.359541	 1.144898
C	 1.349460	 -0.017068	 -0.500215
H	 0.399029	 -1.014606	 1.159950
H	 0.538021	 0.726928	 1.350471
C	 2.779782	 -0.209014	 -0.009215
H	 1.115007	 -0.782959	 -1.233891
H	 1.259071	 0.936707	 -1.006644
H	 3.481860	 -0.160270	 -0.833072
H	 2.903471	 -1.171535	 0.475559
H	 3.052569	 0.559584	 0.705428
H	 -2.131440	 -0.404966	 1.912746
H	 -3.138928	 0.350185	 0.664675
H	 -2.020987	 1.315371	 1.636075

	symmetry c1
}
set optking {
	frozen_dihedral = ("
		4 2 3 5
	")
}

ee = optimize('scf')
oeprop('DIPOLE', 'QUADRUPOLE', 'MULLIKEN_CHARGES')
f=open( 'psi4out.xyz', 'w' )
f.write( "16  " )
f.write( str(ee) + "\n" )
f.write( MOL.save_string_xyz() )
f.close()
--------------------------------------------------------------------------

    Molecular point group: c1
  Charge       = 0
  Multiplicity = 1
  Basis Set: CC-PVTZ
  Basis Set:
  @DF-RHF Final Energy:  -270.12994198598074
    Total Energy =                       -270.1299419859809632
    Molecular point group: c1
  Basis Set: CC-PVTZ
  Basis Set:
  Basis Set: CC-PVTZ
  Basis Set:
  @DF-RHF Final Energy:  -270.13041090469915
    Total Energy =                       -270.1304109046988629
  Basis Set: CC-PVTZ
  Basis Set:
  Basis Set: CC-PVTZ
  Basis Set:
  @DF-RHF Final Energy:  -270.13099110172971
    Total Energy =                       -270.1309911017299328
  Basis Set: CC-PVTZ
  Basis Set:
  Basis Set: CC-PVTZ
  Basis Set:
  @DF-RHF Final Energy:  -270.13112956030716
    Total Energy =                       -270.1311295603068743
  Basis Set: CC-PVTZ
  Basis Set:
  @DF-RHF Final Energy:  -270.13114880072465
    Total Energy =                       -270.1311488007243042
  Basis Set: CC-PVTZ
  Basis Set:
  @DF-RHF Final Energy:  -270.13115727518675
    Total Energy =                       -270.1311572751865242
  Basis Set: CC-PVTZ
  Basis Set:
  Basis Set: CC-PVTZ
  Basis Set:
  @DF-RHF Final Energy:  -270.13115401794619
    Total Energy =                       -270.1311540179463009
  Basis Set: CC-PVTZ
  Basis Set:
  Basis Set: CC-PVTZ
  Basis Set:
  @DF-RHF Final Energy:  -270.13115780641760
    Total Energy =                       -270.1311578064178320
  Basis Set: CC-PVTZ
  Basis Set:
  Charge       = 0
  Multiplicity = 1
  Basis Set: CC-PVTZ
  Basis Set:

    Orbital Energies (a.u.)
    -----------------------

    Doubly Occupied:

       1A    -20.539109     2A    -11.321075     3A    -11.230949
       4A    -11.227130     5A    -11.218290     6A    -11.212191
       7A     -1.399335     8A     -1.078734     9A     -1.016825
      10A     -0.947839    11A     -0.825329    12A     -0.733207
      13A     -0.657252    14A     -0.651750    15A     -0.627660
      16A     -0.599630    17A     -0.567690    18A     -0.560931
      19A     -0.546688    20A     -0.502415    21A     -0.494648
      22A     -0.484319    23A     -0.477389    24A     -0.403319

  @DF-RHF Final Energy:  -270.13115798665251

   => Energetics <=

    Nuclear Repulsion Energy =            237.2373081331278115
    One-Electron Energy =                -836.0895207672464267
    Two-Electron Energy =                 328.7210546474665307
    DFT Exchange-Correlation Energy =       0.0000000000000000
    Empirical Dispersion Energy =           0.0000000000000000
    PCM Polarization Energy =               0.0000000000000000
    EFP Energy =                            0.0000000000000000
    Total Energy =                       -270.1311579866520560
    Molecular point group: c1
  Basis Set: CC-PVTZ
  Basis Set:

  -Total Gradient:
     Atom            X                  Y                   Z
    ------   -----------------  -----------------  -----------------
       1       -0.000005700200    -0.000006879322    -0.000007282936
       2       -0.000072093328    -0.000362507604     0.000050396013
       3       -0.000007808874    -0.000283843071    -0.000063897904
       4        0.000047583436     0.000387252784    -0.000032495861
       5        0.000028374960     0.000307450459     0.000041602426
       6       -0.000001931746    -0.000008686274     0.000003078022
       7        0.000001535395    -0.000012555988    -0.000000366050
       8        0.000003423469     0.000008485236    -0.000001814417
       9        0.000000458813     0.000004466465     0.000003055223
      10       -0.000000111055     0.000001803728    -0.000003570975
      11       -0.000002258022     0.000001193758     0.000000612528
      12       -0.000000652848    -0.000000322227    -0.000000559150
      13        0.000003025071     0.000000452032     0.000002494626
      14        0.000000941828    -0.000016388396    -0.000002614638
      15        0.000003009989    -0.000006847376     0.000000353404
      16        0.000002203109    -0.000013074203     0.000011009686

  **** Optimization is complete! (in 9 steps) ****
    Final optimized geometry and variables:
    Molecular point group: c1

    Geometry (in Angstrom), charge = 0, multiplicity = 1:

    O           -1.364790006078     0.072155503466    -1.104172647702
    C           -1.080413559181     0.083135458046     0.048616647623
    C            0.343106369837    -0.103287943925     0.533093491794
    C           -2.129011467411     0.290062395564     1.117594981206
    C            1.393404707316    -0.068522613631    -0.568424144595
    H            0.375349437859    -1.053704538547     1.062694207887
    H            0.547104886884     0.653892064673     1.286063009065
    C            2.805718092709    -0.274218042299    -0.031285319405
    H            1.162276161101    -0.828509225830    -1.303959102734
    H            1.331827137120     0.880627586720    -1.088396341064
    H            3.533267510604    -0.242687102852    -0.833491851567
    H            2.903232791945    -1.234637194494     0.464460581649
    H            3.072644506614     0.495100357427     0.686104393531
    H           -2.039877058609    -0.458644929056     1.896405523000
    H           -3.114167661632     0.251480480497     0.678747923483
    H           -1.980920514554     1.259105517950     1.582695749381

  Mulliken Charges: (a.u.)
   Center  Symbol    Alpha    Beta     Spin     Total
       1     O     4.17098  4.17098  0.00000 -0.34196
       2     C     2.86244  2.86244  0.00000  0.27513
       3     C     3.10650  3.10650  0.00000 -0.21300
       4     C     3.15139  3.15139  0.00000 -0.30278
       5     C     3.07966  3.07966  0.00000 -0.15931
       6     H     0.44535  0.44535  0.00000  0.10929
       7     H     0.44688  0.44688  0.00000  0.10624
       8     C     3.15005  3.15005  0.00000 -0.30010
       9     H     0.44408  0.44408  0.00000  0.11183
      10     H     0.44857  0.44857  0.00000  0.10286
      11     H     0.44569  0.44569  0.00000  0.10862
      12     H     0.45605  0.45605  0.00000  0.08790
      13     H     0.45672  0.45672  0.00000  0.08656
      14     H     0.45107  0.45107  0.00000  0.09786
      15     H     0.43562  0.43562  0.00000  0.12877
      16     H     0.44895  0.44895  0.00000  0.10210

   Total alpha = 24.00000, Total beta = 24.00000, Total charge = -0.00000
