  ==> Input File <==

--------------------------------------------------------------------------
set {
	reference rhf
	basis 6-31G*
}

set_num_threads( 1 )
memory 2 gb

molecule MOL {
0 1

O	 -0.291628	 1.323815	 -0.000732
C	 -0.449655	 0.146360	 0.000961
C	 -1.783294	 -0.549321	 -0.000296
O	 0.550821	 -0.724572	 0.000672
H	 -1.863538	 -1.185371	 -0.874187
H	 -2.574672	 0.185258	 -0.002793
H	 -1.866414	 -1.182381	 0.875436
C	 0.398651	 -1.876540	 -0.809324
H	 -0.460788	 -2.450807	 -0.494781
H	 1.301806	 -2.451441	 -0.676850
H	 0.280203	 -1.598054	 -1.846512

	symmetry c1
}
set optking {
	frozen_dihedral = ("
		2 4 8 9
	")
}

ee = energy('scf')
oeprop('DIPOLE', 'QUADRUPOLE', 'MULLIKEN_CHARGES')
f=open( 'psi4out.xyz', 'w' )
f.write( "11  " )
f.write( str(ee) + "\n" )
f.write( MOL.save_string_xyz() )
f.close()
--------------------------------------------------------------------------

    Molecular point group: c1

    Geometry (in Angstrom), charge = 0, multiplicity = 1:

       Center              X                  Y                   Z               Mass
    ------------   -----------------  -----------------  -----------------  -----------------
           O          0.020240905793     1.682014137502     0.171455174272    15.994914619560
           C         -0.137786094207     0.504559137502     0.173148174272    12.000000000000
           C         -1.471425094207    -0.191121862498     0.171891174272    12.000000000000
           O          0.862689905793    -0.366372862498     0.172859174272    15.994914619560
           H         -1.551669094207    -0.827171862498    -0.701999825728     1.007825032070
           H         -2.262803094207     0.543457137502     0.169394174272     1.007825032070
           H         -1.554545094207    -0.824181862498     1.047623174272     1.007825032070
           C          0.710519905793    -1.518340862498    -0.637136825728    12.000000000000
           H         -0.148919094207    -2.092607862498    -0.322593825728     1.007825032070
           H          1.613674905793    -2.093241862498    -0.504662825728     1.007825032070
           H          0.592071905793    -1.239854862498    -1.674324825728     1.007825032070

  Charge       = 0
  Multiplicity = 1
  Basis Set: 6-31G*
  Basis Set:

    Orbital Energies (a.u.)
    -----------------------

    Doubly Occupied:

       1A    -20.601858     2A    -20.550497     3A    -11.378858
       4A    -11.299604     5A    -11.239653     6A     -1.468540
       7A     -1.371483     8A     -1.024699     9A     -0.987322
      10A     -0.784744    11A     -0.698689    12A     -0.690681
      13A     -0.682506    14A     -0.618706    15A     -0.590051
      16A     -0.570679    17A     -0.552685    18A     -0.506760
      19A     -0.458436    20A     -0.438186

  @DF-RHF Final Energy:  -266.81145100108063

   => Energetics <=

    Nuclear Repulsion Energy =            184.5999552114170683
    One-Electron Energy =                -729.7934916802464613
    Two-Electron Energy =                 278.3820854677481407
    DFT Exchange-Correlation Energy =       0.0000000000000000
    Empirical Dispersion Energy =           0.0000000000000000
    PCM Polarization Energy =               0.0000000000000000
    EFP Energy =                            0.0000000000000000
    Total Energy =                       -266.8114510010812523

  Mulliken Charges: (a.u.)
   Center  Symbol    Alpha    Beta     Spin     Total
       1     O     4.26167  4.26167  0.00000 -0.52334
       2     C     2.61554  2.61554  0.00000  0.76891
       3     C     3.31172  3.31172  0.00000 -0.62343
       4     O     4.29409  4.29409  0.00000 -0.58817
       5     H     0.40337  0.40337  0.00000  0.19326
       6     H     0.39133  0.39133  0.00000  0.21735
       7     H     0.39794  0.39794  0.00000  0.20412
       8     C     3.10304  3.10304  0.00000 -0.20609
       9     H     0.41333  0.41333  0.00000  0.17334
      10     H     0.39708  0.39708  0.00000  0.20583
      11     H     0.41089  0.41089  0.00000  0.17822

   Total alpha = 20.00000, Total beta = 20.00000, Total charge =  0.00000
