  ==> Input File <==

--------------------------------------------------------------------------
set {
	reference rhf
	basis 6-31G*
}

set_num_threads( 4 )
memory 2 gb

molecule MOL {
0 1

H	 -2.139760	 1.163099	 -0.804808
C	 -1.394089	 1.287815	 -0.026500
N	 -0.528168	 0.128977	 -0.000000
H	 -1.915885	 1.374569	 0.919671
H	 -0.869285	 2.227906	 -0.216433
C	 0.248044	 -0.037491	 -1.209632
H	 0.083664	 0.181945	 0.789863
H	 0.998722	 0.743888	 -1.266824
H	 -0.398417	 0.061950	 -2.074060
H	 0.763621	 -0.999315	 -1.275517

	symmetry c1
}
set optking {
	frozen_dihedral = ("
		2 3 6 8
	")
}

ee = optimize('scf')
oeprop('DIPOLE', 'QUADRUPOLE', 'MULLIKEN_CHARGES')
f=open( 'psi4out.xyz', 'w' )
f.write( "10  " )
f.write( str(ee) + "\n" )
f.write( MOL.save_string_xyz() )
f.close()
--------------------------------------------------------------------------

    Molecular point group: c1
  Charge       = 0
  Multiplicity = 1
  Basis Set: 6-31G*
  Basis Set:
  @DF-RHF Final Energy:  -134.23670673294100
    Total Energy =                       -134.2367067329410020
    Molecular point group: c1
  Basis Set: 6-31G*
  Basis Set:
  Basis Set: 6-31G*
  Basis Set:
  @DF-RHF Final Energy:  -134.23797789201478
    Total Energy =                       -134.2379778920147828
  Basis Set: 6-31G*
  Basis Set:
  Basis Set: 6-31G*
  Basis Set:
  @DF-RHF Final Energy:  -134.23816214198644
    Total Energy =                       -134.2381621419864928
  Basis Set: 6-31G*
  Basis Set:
  Basis Set: 6-31G*
  Basis Set:
  @DF-RHF Final Energy:  -134.23816513038994
    Total Energy =                       -134.2381651303899162
  Basis Set: 6-31G*
  Basis Set:
  Charge       = 0
  Multiplicity = 1
  Basis Set: 6-31G*
  Basis Set:

    Orbital Energies (a.u.)
    -----------------------

    Doubly Occupied:

       1A    -15.537173     2A    -11.235991     3A    -11.235888
       4A     -1.198462     5A     -0.947881     6A     -0.854312
       7A     -0.662415     8A     -0.609907     9A     -0.590993
      10A     -0.540630    11A     -0.512348    12A     -0.506759
      13A     -0.359123

  @DF-RHF Final Energy:  -134.23816552001972

   => Energetics <=

    Nuclear Repulsion Energy =             84.6062789958849208
    One-Electron Energy =                -348.1051239738783352
    Two-Electron Energy =                 129.2606794579737084
    DFT Exchange-Correlation Energy =       0.0000000000000000
    Empirical Dispersion Energy =           0.0000000000000000
    PCM Polarization Energy =               0.0000000000000000
    EFP Energy =                            0.0000000000000000
    Total Energy =                       -134.2381655200197201
    Molecular point group: c1
  Basis Set: 6-31G*
  Basis Set:

  -Total Gradient:
     Atom            X                  Y                   Z
    ------   -----------------  -----------------  -----------------
       1        0.000015297563    -0.000018816591     0.000001072544
       2       -0.001486508328    -0.001057880022    -0.000822612917
       3        0.002561667862     0.001069376801     0.001579445685
       4        0.000008935227    -0.000015918895     0.000000906015
       5        0.000007080766    -0.000022189482     0.000002806806
       6       -0.002813166104     0.001617308218    -0.002118737965
       7       -0.000001228954     0.000015760265     0.000000733890
       8        0.001702090073    -0.001580038791     0.001327184357
       9        0.000002013960     0.000002731651     0.000027339907
      10        0.000003817935    -0.000010333154     0.000001861680

  **** Optimization is complete! (in 5 steps) ****
    Final optimized geometry and variables:
    Molecular point group: c1

    Geometry (in Angstrom), charge = 0, multiplicity = 1:

    H           -1.594250144025     0.688326025548    -0.383448812169
    C           -0.853417535957     0.803115726208     0.400599616012
    N            0.018450437630    -0.351076196263     0.408961628569
    H           -1.380488003382     0.866505350506     1.345754272490
    H           -0.336458161036     1.752151091311     0.234197646604
    C            0.804312770364    -0.502480314742    -0.796541375710
    H            0.616693263261    -0.329333599028     1.210159593002
    H            1.585950413764     0.251993482855    -0.915282976654
    H            0.152208949914    -0.456139440388    -1.661320140288
    H            1.284668869924    -1.475141609629    -0.797904995196

  Mulliken Charges: (a.u.)
   Center  Symbol    Alpha    Beta     Spin     Total
       1     H     0.41808  0.41808  0.00000  0.16384
       2     C     3.14412  3.14412  0.00000 -0.28823
       3     N     3.84001  3.84001  0.00000 -0.68002
       4     H     0.41712  0.41712  0.00000  0.16576
       5     H     0.43501  0.43501  0.00000  0.12998
       6     C     3.14456  3.14456  0.00000 -0.28911
       7     H     0.33218  0.33218  0.00000  0.33564
       8     H     0.43402  0.43402  0.00000  0.13195
       9     H     0.41870  0.41870  0.00000  0.16259
      10     H     0.41620  0.41620  0.00000  0.16759

   Total alpha = 13.00000, Total beta = 13.00000, Total charge =  0.00000
