  ==> Input File <==

--------------------------------------------------------------------------
set {
	reference rhf
	basis 6-31G*
}

set_num_threads( 1 )
memory 2 gb

molecule MOL {
0 1

H	 1.907351	 -1.008961	 1.081101
C	 1.951159	 -0.223429	 0.317018
C	 0.692068	 0.589600	 0.160137
O	 2.943148	 -0.062451	 -0.317153
C	 -0.558097	 -0.297372	 0.091132
H	 0.791645	 1.202255	 -0.728243
H	 0.616171	 1.253469	 1.020572
C	 -1.850991	 0.512573	 -0.019058
H	 -0.476753	 -0.965681	 -0.762987
H	 -0.604799	 -0.930658	 0.975228
C	 -3.096943	 -0.368295	 -0.099594
H	 -1.800724	 1.150330	 -0.898172
H	 -1.931651	 1.177355	 0.838044
H	 -3.060452	 -1.020287	 -0.967456
H	 -3.996858	 0.233488	 -0.175704
H	 -3.191959	 -0.995686	 0.782074

	symmetry c1
}
set optking {
	frozen_dihedral = ("
		9 5 8 12,
		6 3 5 9
	")
}

ee = energy('scf')
oeprop('DIPOLE', 'QUADRUPOLE', 'MULLIKEN_CHARGES')
f=open( 'psi4out.xyz', 'w' )
f.write( "16  " )
f.write( str(ee) + "\n" )
f.write( MOL.save_string_xyz() )
f.close()
--------------------------------------------------------------------------

    Molecular point group: c1

    Geometry (in Angstrom), charge = 0, multiplicity = 1:

       Center              X                  Y                   Z               Mass
    ------------   -----------------  -----------------  -----------------  -----------------
           H          1.897106282385    -1.028181832057     1.063716327808     1.007825032070
           C          1.940914282385    -0.242649832057     0.299633327808    12.000000000000
           C          0.681823282385     0.570379167943     0.142752327808    12.000000000000
           O          2.932903282385    -0.081671832057    -0.334537672192    15.994914619560
           C         -0.568341717615    -0.316592832057     0.073747327808    12.000000000000
           H          0.781400282385     1.183034167943    -0.745627672192     1.007825032070
           H          0.605926282385     1.234248167943     1.003187327808     1.007825032070
           C         -1.861235717615     0.493352167943    -0.036442672192    12.000000000000
           H         -0.486997717615    -0.984901832057    -0.780371672192     1.007825032070
           H         -0.615043717615    -0.949878832057     0.957843327808     1.007825032070
           C         -3.107187717615    -0.387515832057    -0.116978672192    12.000000000000
           H         -1.810968717615     1.131109167943    -0.915556672192     1.007825032070
           H         -1.941895717615     1.158134167943     0.820659327808     1.007825032070
           H         -3.070696717615    -1.039507832057    -0.984840672192     1.007825032070
           H         -4.007102717615     0.214267167943    -0.193088672192     1.007825032070
           H         -3.202203717615    -1.014906832057     0.764689327808     1.007825032070

  Charge       = 0
  Multiplicity = 1
  Basis Set: 6-31G*
  Basis Set:

    Orbital Energies (a.u.)
    -----------------------

    Doubly Occupied:

       1A    -20.562329     2A    -11.326684     3A    -11.236376
       4A    -11.235434     5A    -11.229460     6A    -11.218606
       7A     -1.402224     8A     -1.096819     9A     -1.019109
      10A     -0.905599    11A     -0.811973    12A     -0.794714
      13A     -0.676254    14A     -0.648654    15A     -0.630834
      16A     -0.602744    17A     -0.584027    18A     -0.548845
      19A     -0.529678    20A     -0.506399    21A     -0.487923
      22A     -0.483053    23A     -0.478548    24A     -0.409257

  @DF-RHF Final Energy:  -270.01982714556721

   => Energetics <=

    Nuclear Repulsion Energy =            228.6394396885812910
    One-Electron Energy =                -818.4674160086349275
    Two-Electron Energy =                 319.8081491744864024
    DFT Exchange-Correlation Energy =       0.0000000000000000
    Empirical Dispersion Energy =           0.0000000000000000
    PCM Polarization Energy =               0.0000000000000000
    EFP Energy =                            0.0000000000000000
    Total Energy =                       -270.0198271455672057

  Mulliken Charges: (a.u.)
   Center  Symbol    Alpha    Beta     Spin     Total
       1     H     0.43196  0.43196  0.00000  0.13608
       2     C     2.82913  2.82913  0.00000  0.34174
       3     C     3.20886  3.20886  0.00000 -0.41771
       4     O     4.23801  4.23801  0.00000 -0.47603
       5     C     3.16477  3.16477  0.00000 -0.32953
       6     H     0.39890  0.39890  0.00000  0.20219
       7     H     0.40733  0.40733  0.00000  0.18535
       8     C     3.15152  3.15152  0.00000 -0.30303
       9     H     0.41402  0.41402  0.00000  0.17196
      10     H     0.41943  0.41943  0.00000  0.16115
      11     C     3.24040  3.24040  0.00000 -0.48079
      12     H     0.41849  0.41849  0.00000  0.16302
      13     H     0.42081  0.42081  0.00000  0.15837
      14     H     0.41944  0.41944  0.00000  0.16113
      15     H     0.41639  0.41639  0.00000  0.16722
      16     H     0.42056  0.42056  0.00000  0.15888

   Total alpha = 24.00000, Total beta = 24.00000, Total charge =  0.00000
