                              Psi4 1.0.54 Driver

  ==> Input File <==

--------------------------------------------------------------------------
set {
	reference rhf
	basis cc-pvtz
}

set_num_threads( 4 )
memory 2 gb

molecule MOL {
0 1

H	 -2.696130	 2.180394	 -1.453695
C	 -2.925553	 1.106090	 -1.464705
C	 -1.908797	 0.248227	 -2.167677
O	 -3.915818	 0.707573	 -0.956900
C	 -0.481119	 0.492977	 -1.670174
H	 -2.197658	 -0.788910	 -2.057035
H	 -1.967201	 0.500637	 -3.224172
C	 -0.247837	 0.040196	 -0.230469
H	 0.205348	 -0.029076	 -2.327869
H	 -0.243650	 1.549875	 -1.763811
C	 1.181757	 0.280428	 0.247371
H	 -0.483582	 -1.017558	 -0.148685
H	 -0.938564	 0.553640	 0.433382
C	 2.151032	 -0.811012	 -0.202643
H	 1.515939	 1.247397	 -0.115449
H	 1.191514	 0.341223	 1.333422
C	 3.580021	 -0.656538	 0.320835
H	 2.170545	 -0.847575	 -1.289412
H	 1.766632	 -1.772905	 0.124928
C	 4.327657	 0.562694	 -0.213579
H	 4.138806	 -1.549270	 0.057813
H	 3.561991	 -0.620783	 1.406976
H	 4.355973	 0.557257	 -1.298551
H	 3.867136	 1.491650	 0.100501
H	 5.351524	 0.571613	 0.142204

	symmetry c1
}
set optking {
	frozen_dihedral = ("
		12 8 11 14
	")
}

ee,wfn = optimize('scf', return_wfn=True)
oeprop( wfn, 'DIPOLE', 'QUADRUPOLE', 'MULLIKEN_CHARGES')
f=open( 'psi4out.xyz', 'w' )
f.write( "25  " )
f.write( str(ee) + "\n" )
f.write( MOL.save_string_xyz() )
f.close()
--------------------------------------------------------------------------

    Molecular point group: c1
  Charge       = 0
  Multiplicity = 1
  Basis Set: CC-PVTZ
  Basis Set:
  @DF-RHF Final Energy:  -387.25771757094168
    Total Energy =                       -387.2577175709415087
    Molecular point group: c1
  Basis Set: CC-PVTZ
  Basis Set:
  Basis Set: CC-PVTZ
  Basis Set:
  @DF-RHF Final Energy:  -387.25792670059263
    Total Energy =                       -387.2579267005921793
  Basis Set: CC-PVTZ
  Basis Set:
  Basis Set: CC-PVTZ
  Basis Set:
  @DF-RHF Final Energy:  -387.25787863220461
    Total Energy =                       -387.2578786322044380
  Basis Set: CC-PVTZ
  Basis Set:
  Basis Set: CC-PVTZ
  Basis Set:
  @DF-RHF Final Energy:  -387.25793630949272
    Total Energy =                       -387.2579363094929477
  Basis Set: CC-PVTZ
  Basis Set:
  @DF-RHF Final Energy:  -387.25794999432816
    Total Energy =                       -387.2579499943278734
  Basis Set: CC-PVTZ
  Basis Set:
  @DF-RHF Final Energy:  -387.25795466458044
    Total Energy =                       -387.2579546645803248
  Basis Set: CC-PVTZ
  Basis Set:
  Basis Set: CC-PVTZ
  Basis Set:
  @DF-RHF Final Energy:  -387.25792823928828
    Total Energy =                       -387.2579282392880486
  Basis Set: CC-PVTZ
  Basis Set:
  Basis Set: CC-PVTZ
  Basis Set:
  @DF-RHF Final Energy:  -387.25795748391982
    Total Energy =                       -387.2579574839194265
  Basis Set: CC-PVTZ
  Basis Set:
  Charge       = 0
  Multiplicity = 1
  Basis Set: CC-PVTZ
  Basis Set:

    Orbital Energies (a.u.)
    -----------------------

    Doubly Occupied:

       1A    -20.551220     2A    -11.320827     3A    -11.233578
       4A    -11.232400     5A    -11.222036     6A    -11.218030
       7A    -11.217328     8A    -11.216449     9A    -11.209899
      10A     -1.406238    11A     -1.105351    12A     -1.070584
      13A     -1.014129    14A     -0.942440    15A     -0.880466
      16A     -0.823010    17A     -0.789734    18A     -0.779120
      19A     -0.668782    20A     -0.654798    21A     -0.636175
      22A     -0.624313    23A     -0.609987    24A     -0.600258
      25A     -0.577329    26A     -0.552402    27A     -0.532871
      28A     -0.525648    29A     -0.520654    30A     -0.503198
      31A     -0.485609    32A     -0.478865    33A     -0.461593
      34A     -0.454688    35A     -0.448228    36A     -0.411420

  @DF-RHF Final Energy:  -387.25795791477333

   => Energetics <=

    Nuclear Repulsion Energy =            442.9672828756835088
    One-Electron Energy =               -1402.4911739335957463
    Two-Electron Energy =                 572.2659331431393639
    DFT Exchange-Correlation Energy =       0.0000000000000000
    Empirical Dispersion Energy =           0.0000000000000000
    PCM Polarization Energy =               0.0000000000000000
    EFP Energy =                            0.0000000000000000
    Total Energy =                       -387.2579579147728737
    Molecular point group: c1
  Basis Set: CC-PVTZ
  Basis Set:

  -Total Gradient:
     Atom            X                  Y                   Z
    ------   -----------------  -----------------  -----------------
       1        0.000001266041    -0.000000170574    -0.000004202606
       2        0.000002264157     0.000002852595     0.000010128940
       3       -0.000022310672     0.000010884654    -0.000013817211
       4        0.000007159791    -0.000006306315    -0.000001134128
       5       -0.000004933125    -0.000026776522     0.000008059778
       6        0.000004812722     0.000001360313    -0.000004042776
       7       -0.000006131899     0.000008571897     0.000002412456
       8       -0.001025248037     0.000041622993     0.003047319993
       9       -0.000003570144    -0.000004888737     0.000004493747
      10        0.000015656804    -0.000003207492     0.000003653880
      11        0.000600010482     0.001100805626    -0.002327583744
      12        0.000724646998    -0.000290537878    -0.002036147016
      13       -0.000024329885     0.000000569518    -0.000012351547
      14       -0.000309960428    -0.000825555461     0.001332105306
      15       -0.000001082567    -0.000003488246    -0.000001539210
      16        0.000004039294    -0.000001249983     0.000000990523
      17        0.000005273804     0.000001316529    -0.000008113708
      18       -0.000000753261     0.000004930626     0.000001889953
      19        0.000012833621    -0.000004909852    -0.000000889714
      20        0.000014788734    -0.000000155214     0.000006123612
      21        0.000006403336    -0.000004681687     0.000005989191
      22       -0.000004845195     0.000005842471    -0.000004942816
      23       -0.000001501105     0.000002997149    -0.000006988467
      24        0.000006177699    -0.000008620486     0.000001996845
      25       -0.000000667172    -0.000001205922    -0.000003411283

  **** Optimization is complete! (in 9 steps) ****
    Final optimized geometry and variables:
    Molecular point group: c1

    Geometry (in Angstrom), charge = 0, multiplicity = 1:

    H           -2.920609098759     1.952226229491    -0.689374555172
    C           -3.139994235260     0.876245007626    -0.722134039182
    C           -2.121484810514     0.043815634497    -1.452731664040
    O           -4.122232126018     0.457166995136    -0.215279437478
    C           -0.690869073821     0.294963792420    -0.966798855039
    H           -2.397719579803    -0.998476865523    -1.359529578153
    H           -2.195094563043     0.316115865601    -2.503362939213
    C           -0.444966085861    -0.170799772828     0.469456563183
    H           -0.009880340409    -0.210144166710    -1.641461402420
    H           -0.465110954262     1.355482557349    -1.047050867012
    C            0.995810435873     0.042356218630     0.946679353099
    H           -0.696346232427    -1.225583650409     0.536675726983
    H           -1.124434306097     0.351696483727     1.135312865600
    C            1.967939001881    -1.045823368826     0.488546833919
    H            1.337686328672     1.019974536208     0.622485600717
    H            1.003816498470     0.064640512481     2.032686612019
    C            3.398966107521    -0.878271643315     1.003048569971
    H            1.988457768857    -1.096757272549    -0.597108364469
    H            1.589401602529    -2.005062605150     0.829788197808
    C            4.145230204888     0.326266151271     0.434397650890
    H            3.956930355932    -1.777565642187     0.761276666906
    H            3.384237408460    -0.814347854988     2.087844285973
    H            4.172006970435     0.291067459137    -0.650118836747
    H            3.685214801193     1.263404407802     0.723640371294
    H            5.169673025680     0.345100154000     0.788041692697

  Mulliken Charges: (a.u.)
   Center  Symbol    Alpha    Beta     Spin     Total
       1     H     0.46407  0.46407  0.00000  0.07185
       2     C     2.90509  2.90509  0.00000  0.18983
       3     C     3.08801  3.08801  0.00000 -0.17601
       4     O     4.16637  4.16637  0.00000 -0.33274
       5     C     3.11545  3.11545  0.00000 -0.23089
       6     H     0.44253  0.44253  0.00000  0.11494
       7     H     0.44078  0.44078  0.00000  0.11844
       8     C     3.10037  3.10037  0.00000 -0.20074
       9     H     0.44199  0.44199  0.00000  0.11602
      10     H     0.45040  0.45040  0.00000  0.09920
      11     C     3.10215  3.10215  0.00000 -0.20429
      12     H     0.44982  0.44982  0.00000  0.10036
      13     H     0.44016  0.44016  0.00000  0.11967
      14     C     3.09375  3.09375  0.00000 -0.18750
      15     H     0.45217  0.45217  0.00000  0.09566
      16     H     0.44545  0.44545  0.00000  0.10909
      17     C     3.09010  3.09010  0.00000 -0.18020
      18     H     0.45456  0.45456  0.00000  0.09088
      19     H     0.44785  0.44785  0.00000  0.10429
      20     C     3.15266  3.15266  0.00000 -0.30532
      21     H     0.44779  0.44779  0.00000  0.10441
      22     H     0.45385  0.45385  0.00000  0.09229
      23     H     0.45509  0.45509  0.00000  0.08983
      24     H     0.45395  0.45395  0.00000  0.09210
      25     H     0.44559  0.44559  0.00000  0.10881

   Total alpha = 36.00000, Total beta = 36.00000, Total charge =  0.00000

*** Psi4 exiting successfully. Buy a developer a beer!
