                              Psi4 1.0.54 Driver

  ==> Input File <==

--------------------------------------------------------------------------
set {
	reference rhf
	basis cc-pvtz
}

set_num_threads( 4 )
memory 2 gb

molecule MOL {
0 1

H	 -0.000105	 1.988529	 0.748933
O	 -0.000098	 1.879786	 -0.188206
C	 -0.000014	 0.545691	 -0.532416
C	 -1.286000	 -0.125171	 -0.046657
C	 1.286016	 -0.125031	 -0.046584
H	 0.000021	 0.481103	 -1.610604
F	 -1.059778	 -1.399792	 0.155892
F	 -1.722317	 0.388903	 1.075425
F	 -2.244825	 -0.027428	 -0.942467
F	 2.317750	 0.468717	 -0.594166
F	 1.336617	 -1.393765	 -0.365123
F	 1.414467	 -0.024806	 1.259108

	symmetry c1
}
set optking {
	frozen_dihedral = ("
		7 4 3 6
	")
}

ee,wfn = optimize('scf', return_wfn=True)
oeprop( wfn, 'DIPOLE', 'QUADRUPOLE', 'MULLIKEN_CHARGES')
f=open( 'psi4out.xyz', 'w' )
f.write( "12  " )
f.write( str(ee) + "\n" )
f.write( MOL.save_string_xyz() )
f.close()
--------------------------------------------------------------------------

    Molecular point group: c1
  Charge       = 0
  Multiplicity = 1
  Basis Set: CC-PVTZ
  Basis Set:
  @DF-RHF Final Energy:  -786.58491765564042
    Total Energy =                       -786.5849176556400835
    Molecular point group: c1
  Basis Set: CC-PVTZ
  Basis Set:
  Basis Set: CC-PVTZ
  Basis Set:
  @DF-RHF Final Energy:  -786.58658261911307
    Total Energy =                       -786.5865826191123915
  Basis Set: CC-PVTZ
  Basis Set:
  Basis Set: CC-PVTZ
  Basis Set:
  @DF-RHF Final Energy:  -786.58717737637983
    Total Energy =                       -786.5871773763797137
  Basis Set: CC-PVTZ
  Basis Set:
  Basis Set: CC-PVTZ
  Basis Set:
  @DF-RHF Final Energy:  -786.58728435921444
    Total Energy =                       -786.5872843592142090
  Basis Set: CC-PVTZ
  Basis Set:
  Basis Set: CC-PVTZ
  Basis Set:
  @DF-RHF Final Energy:  -786.58729804380891
    Total Energy =                       -786.5872980438083459
  Basis Set: CC-PVTZ
  Basis Set:
  Basis Set: CC-PVTZ
  Basis Set:
  @DF-RHF Final Energy:  -786.58730489367281
    Total Energy =                       -786.5873048936734904
  Basis Set: CC-PVTZ
  Basis Set:
  Charge       = 0
  Multiplicity = 1
  Basis Set: CC-PVTZ
  Basis Set:

    Orbital Energies (a.u.)
    -----------------------

    Doubly Occupied:

       1A    -26.358699     2A    -26.358318     3A    -26.357576
       4A    -26.357486     5A    -26.355453     6A    -26.352672
       7A    -20.608112     8A    -11.522344     9A    -11.518116
      10A    -11.351429    11A     -1.772786    12A     -1.766120
      13A     -1.666996    14A     -1.665622    15A     -1.663091
      16A     -1.660295    17A     -1.438146    18A     -1.101646
      19A     -1.001895    20A     -0.944528    21A     -0.872504
      22A     -0.868532    23A     -0.858438    24A     -0.853102
      25A     -0.841201    26A     -0.822582    27A     -0.744868
      28A     -0.737179    29A     -0.732329    30A     -0.728560
      31A     -0.694980    32A     -0.692906    33A     -0.688742
      34A     -0.682256    35A     -0.677143    36A     -0.668159
      37A     -0.664892    38A     -0.654657    39A     -0.624520
      40A     -0.554142    41A     -0.509329

  @DF-RHF Final Energy:  -786.58730547819471

   => Energetics <=

    Nuclear Repulsion Energy =            670.8486771743126837
    One-Electron Energy =               -2428.8872586203374340
    Two-Electron Energy =                 971.4512759678302700
    DFT Exchange-Correlation Energy =       0.0000000000000000
    Empirical Dispersion Energy =           0.0000000000000000
    PCM Polarization Energy =               0.0000000000000000
    EFP Energy =                            0.0000000000000000
    Total Energy =                       -786.5873054781943665
    Molecular point group: c1
  Basis Set: CC-PVTZ
  Basis Set:

  -Total Gradient:
     Atom            X                  Y                   Z
    ------   -----------------  -----------------  -----------------
       1       -0.000006031370     0.000017357762     0.000026208515
       2        0.000005324548    -0.000045984282     0.000028705399
       3        0.002852843147    -0.004702782038     0.001298080653
       4       -0.001755136096    -0.000050951489    -0.005102668555
       5        0.000033095819    -0.000051041812    -0.000033374603
       6       -0.002133041992     0.004078351949    -0.000114609312
       7        0.001014740660     0.000622507831     0.003740686438
       8       -0.000018406995     0.000093207368     0.000064838320
       9        0.000078216366     0.000003722422     0.000038949922
      10       -0.000062470498     0.000016165758     0.000016718624
      11       -0.000011028478     0.000002868526    -0.000003654244
      12        0.000001894894     0.000016578005     0.000040118846

  **** Optimization is complete! (in 7 steps) ****
    Final optimized geometry and variables:
    Molecular point group: c1

    Geometry (in Angstrom), charge = 0, multiplicity = 1:

    H           -0.080429377294     1.993071485516     0.767521115122
    O            0.027382503945     1.893016835708    -0.163757693129
    C            0.021478367642     0.563556852129    -0.528645391836
    C           -1.284334036038    -0.109588244924    -0.067863027472
    C            1.286267815932    -0.137905886285    -0.036429342964
    H            0.027629065090     0.547455178947    -1.607854132833
    F           -1.161511071746    -1.401636359991     0.104572690784
    F           -1.681487248496     0.397832892004     1.080965293453
    F           -2.233686445619     0.101115022427    -0.944908484083
    F            2.340307449224     0.550390877854    -0.394888957103
    F            1.404437010844    -1.341082689478    -0.540118404272
    F            1.296899829028    -0.234771348336     1.276608482777

  Mulliken Charges: (a.u.)
   Center  Symbol    Alpha    Beta     Spin     Total
       1     H     0.38044  0.38044  0.00000  0.23913
       2     O     4.18905  4.18905  0.00000 -0.37810
       3     C     3.01539  3.01539  0.00000 -0.03078
       4     C     2.67706  2.67706  0.00000  0.64587
       5     C     2.68094  2.68094  0.00000  0.63812
       6     H     0.42556  0.42556  0.00000  0.14889
       7     F     4.60106  4.60106  0.00000 -0.20212
       8     F     4.61181  4.61181  0.00000 -0.22362
       9     F     4.60239  4.60239  0.00000 -0.20478
      10     F     4.60070  4.60070  0.00000 -0.20141
      11     F     4.60424  4.60424  0.00000 -0.20849
      12     F     4.61135  4.61135  0.00000 -0.22271

   Total alpha = 41.00000, Total beta = 41.00000, Total charge = -0.00000

*** Psi4 exiting successfully. Buy a developer a beer!
