  ==> Input File <==

--------------------------------------------------------------------------
set {
	reference rhf
	basis 6-31G*
}

set_num_threads( 1 )
memory 2 gb

molecule MOL {
0 1

O	 1.399150	 0.826956	 2.593529
C	 1.652138	 -0.020391	 1.799136
C	 1.245376	 -0.013843	 0.345420
O	 2.344760	 -1.112323	 2.098449
C	 0.455112	 1.231400	 -0.050772
H	 2.152689	 -0.123018	 -0.239434
H	 0.667175	 -0.917056	 0.167692
C	 -0.998893	 1.219485	 0.433193
H	 0.482531	 1.345121	 -1.130325
H	 0.957290	 2.103070	 0.354729
C	 -1.883438	 0.145884	 -0.207175
H	 -1.431207	 2.195402	 0.224832
H	 -1.019646	 1.105716	 1.516076
C	 -3.347647	 0.245583	 0.225435
H	 -1.822183	 0.231698	 -1.291012
H	 -1.510341	 -0.844814	 0.042401
C	 -4.239992	 -0.825570	 -0.404234
H	 -3.732888	 1.230466	 -0.033079
H	 -3.408585	 0.170602	 1.310038
C	 -5.701275	 -0.716658	 0.029921
H	 -4.179496	 -0.752714	 -1.488058
H	 -3.859041	 -1.810759	 -0.143352
H	 -6.308102	 -1.488908	 -0.432678
H	 -6.122175	 0.245478	 -0.248167
H	 -5.799072	 -0.820114	 1.106957
C	 2.788010	 -1.245351	 3.436627
H	 3.442710	 -0.428146	 3.703176
H	 3.322421	 -2.181635	 3.478844
H	 1.947562	 -1.262979	 4.115503

	symmetry c1
}
set optking {
	frozen_dihedral = ("
		21 17 14 11,
		17 14 11 15,
		15 11 8 5,
		11 8 5 9,
		2 4 26 27,
		1 2 4 26,
		6 3 2 1
	")
}

ee = energy('scf')
oeprop('DIPOLE', 'QUADRUPOLE', 'MULLIKEN_CHARGES')
f=open( 'psi4out.xyz', 'w' )
f.write( "29  " )
f.write( str(ee) + "\n" )
f.write( MOL.save_string_xyz() )
f.close()
--------------------------------------------------------------------------

    Molecular point group: c1

    Geometry (in Angstrom), charge = 0, multiplicity = 1:

       Center              X                  Y                   Z               Mass
    ------------   -----------------  -----------------  -----------------  -----------------
           O          1.948754418636     0.867025473796     1.623200353420    15.994914619560
           C          2.201742418636     0.019678473796     0.828807353420    12.000000000000
           C          1.794980418636     0.026226473796    -0.624908646580    12.000000000000
           O          2.894364418636    -1.072253526204     1.128120353420    15.994914619560
           C          1.004716418636     1.271469473796    -1.021100646580    12.000000000000
           H          2.702293418636    -0.082948526204    -1.209762646580     1.007825032070
           H          1.216779418636    -0.876986526204    -0.802636646580     1.007825032070
           C         -0.449288581364     1.259554473796    -0.537135646580    12.000000000000
           H          1.032135418636     1.385190473796    -2.100653646580     1.007825032070
           H          1.506894418636     2.143139473796    -0.615599646580     1.007825032070
           C         -1.333833581364     0.185953473796    -1.177503646580    12.000000000000
           H         -0.881602581364     2.235471473796    -0.745496646580     1.007825032070
           H         -0.470041581364     1.145785473796     0.545747353420     1.007825032070
           C         -2.798042581364     0.285652473796    -0.744893646580    12.000000000000
           H         -1.272578581364     0.271767473796    -2.261340646580     1.007825032070
           H         -0.960736581364    -0.804744526204    -0.927927646580     1.007825032070
           C         -3.690387581364    -0.785500526204    -1.374562646580    12.000000000000
           H         -3.183283581364     1.270535473796    -1.003407646580     1.007825032070
           H         -2.858980581364     0.210671473796     0.339709353420     1.007825032070
           C         -5.151670581364    -0.676588526204    -0.940407646580    12.000000000000
           H         -3.629891581364    -0.712644526204    -2.458386646580     1.007825032070
           H         -3.309436581364    -1.770689526204    -1.113680646580     1.007825032070
           H         -5.758497581364    -1.448838526204    -1.403006646580     1.007825032070
           H         -5.572570581364     0.285547473796    -1.218495646580     1.007825032070
           H         -5.249467581364    -0.780044526204     0.136628353420     1.007825032070
           C          3.337614418636    -1.205281526204     2.466298353420    12.000000000000
           H          3.992314418636    -0.388076526204     2.732847353420     1.007825032070
           H          3.872025418636    -2.141565526204     2.508515353420     1.007825032070
           H          2.497166418636    -1.222909526204     3.145174353420     1.007825032070

  Charge       = 0
  Multiplicity = 1
  Basis Set: 6-31G*
  Basis Set:

    Orbital Energies (a.u.)
    -----------------------

    Doubly Occupied:

       1A    -20.604330     2A    -20.546411     3A    -11.372764
       4A    -11.281349     5A    -11.234295     6A    -11.218754
       7A    -11.213835     8A    -11.212839     9A    -11.211660
      10A    -11.210058    11A    -11.207277    12A     -1.470151
      13A     -1.363876    14A     -1.095790    15A     -1.065365
      16A     -1.016920    17A     -0.976759    18A     -0.926024
      19A     -0.860976    20A     -0.799555    21A     -0.788560
      22A     -0.762987    23A     -0.698336    24A     -0.682555
      25A     -0.671021    26A     -0.651016    27A     -0.620998
      28A     -0.615123    29A     -0.587763    30A     -0.579625
      31A     -0.563608    32A     -0.547433    33A     -0.536760
      34A     -0.526367    35A     -0.518884    36A     -0.501758
      37A     -0.500379    38A     -0.476805    39A     -0.469039
      40A     -0.460719    41A     -0.456815    42A     -0.454644
      43A     -0.435809    44A     -0.434622

  @DF-RHF Final Energy:  -501.04277091559163

   => Energetics <=

    Nuclear Repulsion Energy =            625.1523984868753132
    One-Electron Energy =               -1921.5293173021525490
    Two-Electron Energy =                 795.3341478996865135
    DFT Exchange-Correlation Energy =       0.0000000000000000
    Empirical Dispersion Energy =           0.0000000000000000
    PCM Polarization Energy =               0.0000000000000000
    EFP Energy =                            0.0000000000000000
    Total Energy =                       -501.0427709155908360

  Mulliken Charges: (a.u.)
   Center  Symbol    Alpha    Beta     Spin     Total
       1     O     4.28597  4.28597  0.00000 -0.57195
       2     C     2.60686  2.60686  0.00000  0.78628
       3     C     3.21081  3.21081  0.00000 -0.42162
       4     O     4.30671  4.30671  0.00000 -0.61343
       5     C     3.15760  3.15760  0.00000 -0.31519
       6     H     0.39775  0.39775  0.00000  0.20450
       7     H     0.39838  0.39838  0.00000  0.20324
       8     C     3.16003  3.16003  0.00000 -0.32006
       9     H     0.41915  0.41915  0.00000  0.16169
      10     H     0.40614  0.40614  0.00000  0.18772
      11     C     3.15475  3.15475  0.00000 -0.30949
      12     H     0.42063  0.42063  0.00000  0.15873
      13     H     0.40812  0.40812  0.00000  0.18377
      14     C     3.14997  3.14997  0.00000 -0.29995
      15     H     0.42506  0.42506  0.00000  0.14988
      16     H     0.42595  0.42595  0.00000  0.14810
      17     C     3.15128  3.15128  0.00000 -0.30255
      18     H     0.42349  0.42349  0.00000  0.15303
      19     H     0.42282  0.42282  0.00000  0.15436
      20     C     3.23926  3.23926  0.00000 -0.47853
      21     H     0.42347  0.42347  0.00000  0.15305
      22     H     0.42381  0.42381  0.00000  0.15238
      23     H     0.41974  0.41974  0.00000  0.16052
      24     H     0.42169  0.42169  0.00000  0.15662
      25     H     0.42159  0.42159  0.00000  0.15681
      26     C     3.09235  3.09235  0.00000 -0.18471
      27     H     0.40896  0.40896  0.00000  0.18209
      28     H     0.40836  0.40836  0.00000  0.18327
      29     H     0.40928  0.40928  0.00000  0.18145

   Total alpha = 44.00000, Total beta = 44.00000, Total charge = -0.00000
