  ==> Input File <==

--------------------------------------------------------------------------
set {
	reference rhf
	basis cc-pvtz
}

set_num_threads( 4 )
memory 2 gb

molecule MOL {
0 1

H	 -1.835082	 1.385983	 0.000069
C	 -1.300516	 0.441153	 -0.000028
O	 -0.006604	 0.654344	 -0.000106
O	 -1.828920	 -0.612308	 0.000113
C	 0.469420	 1.839791	 -0.630930
C	 1.973909	 1.858889	 -0.501127
H	 0.016587	 2.696234	 -0.151967
H	 0.158144	 1.833829	 -1.665839
H	 2.271040	 1.860748	 0.539873
H	 2.368868	 2.750951	 -0.972387
H	 2.413312	 0.993989	 -0.981588

	symmetry c1
}
set optking {
	frozen_dihedral = ("
		5 3 2 4
	")
}

ee = optimize('scf')
oeprop('DIPOLE', 'QUADRUPOLE', 'MULLIKEN_CHARGES')
f=open( 'psi4out.xyz', 'w' )
f.write( "11  " )
f.write( str(ee) + "\n" )
f.write( MOL.save_string_xyz() )
f.close()
--------------------------------------------------------------------------

    Molecular point group: c1
  Charge       = 0
  Multiplicity = 1
  Basis Set: CC-PVTZ
  Basis Set:
  @DF-RHF Final Energy:  -266.92017924885988
    Total Energy =                       -266.9201792488599949
    Molecular point group: c1
  Basis Set: CC-PVTZ
  Basis Set:
  Basis Set: CC-PVTZ
  Basis Set:
  @DF-RHF Final Energy:  -266.92112664461411
    Total Energy =                       -266.9211266446141053
  Basis Set: CC-PVTZ
  Basis Set:
  Basis Set: CC-PVTZ
  Basis Set:
  @DF-RHF Final Energy:  -266.92110736028656
    Total Energy =                       -266.9211073602864417
  Basis Set: CC-PVTZ
  Basis Set:
  Basis Set: CC-PVTZ
  Basis Set:
  @DF-RHF Final Energy:  -266.92144385223344
    Total Energy =                       -266.9214438522332671
  Basis Set: CC-PVTZ
  Basis Set:
  Basis Set: CC-PVTZ
  Basis Set:
  @DF-RHF Final Energy:  -266.92146216623246
    Total Energy =                       -266.9214621662324589
  Basis Set: CC-PVTZ
  Basis Set:
  Basis Set: CC-PVTZ
  Basis Set:
  @DF-RHF Final Energy:  -266.92146343029123
    Total Energy =                       -266.9214634302912827
  Basis Set: CC-PVTZ
  Basis Set:
  Charge       = 0
  Multiplicity = 1
  Basis Set: CC-PVTZ
  Basis Set:

    Orbital Energies (a.u.)
    -----------------------

    Doubly Occupied:

       1A    -20.602119     2A    -20.547589     3A    -11.372168
       4A    -11.304329     5A    -11.231510     6A     -1.475570
       7A     -1.384096     8A     -1.055606     9A     -0.889995
      10A     -0.846348    11A     -0.742138    12A     -0.695246
      13A     -0.667210    14A     -0.617639    15A     -0.572149
      16A     -0.558339    17A     -0.537810    18A     -0.517539
      19A     -0.463283    20A     -0.453792

  @DF-RHF Final Energy:  -266.92146381524537

   => Energetics <=

    Nuclear Repulsion Energy =            176.6915682366625049
    One-Electron Energy =                -714.1571203740245437
    Two-Electron Energy =                 270.5440883221168633
    DFT Exchange-Correlation Energy =       0.0000000000000000
    Empirical Dispersion Energy =           0.0000000000000000
    PCM Polarization Energy =               0.0000000000000000
    EFP Energy =                            0.0000000000000000
    Total Energy =                       -266.9214638152451471
    Molecular point group: c1
  Basis Set: CC-PVTZ
  Basis Set:

  -Total Gradient:
     Atom            X                  Y                   Z
    ------   -----------------  -----------------  -----------------
       1       -0.000001876813    -0.000009470322    -0.000000584886
       2        0.000792626359    -0.001595935776     0.005133771451
       3        0.000207251011     0.002401114745     0.002792625149
       4       -0.000672652815     0.000605437195    -0.004562149298
       5       -0.000314049637    -0.001388224338    -0.003386891881
       6       -0.000013620058    -0.000010509024     0.000013061839
       7        0.000010245890    -0.000011460569     0.000005974200
       8        0.000006480984     0.000014694518    -0.000000476306
       9        0.000002712464     0.000000495978     0.000006294106
      10       -0.000016521148    -0.000005193003     0.000000124618
      11       -0.000000596238    -0.000000949408    -0.000001748991

  **** Optimization is complete! (in 7 steps) ****
    Final optimized geometry and variables:
    Molecular point group: c1

    Geometry (in Angstrom), charge = 0, multiplicity = 1:

    H           -1.670439251028     0.575235787210     0.486138544708
    C           -1.159950553081    -0.370513848254     0.297152959260
    O            0.142753718605    -0.241662824941     0.116637190027
    O           -1.721671220436    -1.398373207360     0.253303134550
    C            0.621188754402     0.968912855863    -0.440837583607
    C            2.114428923689     1.038113059746    -0.223791707880
    H            0.124615111910     1.810674827835     0.030955931662
    H            0.383911081873     0.984210849990    -1.497793912819
    H            2.347083201875     1.030648788896     0.833226766226
    H            2.507668745489     1.948906660576    -0.659219859762
    H            2.604529136124     0.193216238141    -0.689051147007

  Mulliken Charges: (a.u.)
   Center  Symbol    Alpha    Beta     Spin     Total
       1     H     0.47605  0.47605  0.00000  0.04790
       2     C     2.84362  2.84362  0.00000  0.31277
       3     O     4.12976  4.12976  0.00000 -0.25953
       4     O     4.17218  4.17218  0.00000 -0.34436
       5     C     2.97682  2.97682  0.00000  0.04636
       6     C     3.13254  3.13254  0.00000 -0.26507
       7     H     0.46318  0.46318  0.00000  0.07364
       8     H     0.45651  0.45651  0.00000  0.08698
       9     H     0.44890  0.44890  0.00000  0.10219
      10     H     0.45542  0.45542  0.00000  0.08916
      11     H     0.44501  0.44501  0.00000  0.10997

   Total alpha = 20.00000, Total beta = 20.00000, Total charge = -0.00000
