                              Psi4 1.0.54 Driver

  ==> Input File <==

--------------------------------------------------------------------------
set {
	reference rhf
	basis cc-pvtz
}

set_num_threads( 4 )
memory 2 gb

molecule MOL {
0 1

H	 -2.817963	 0.279626	 -0.697834
O	 -2.313989	 -0.142475	 -0.025864
C	 -0.943808	 -0.065018	 -0.330000
H	 -0.812293	 -0.225641	 -1.398673
C	 -0.231030	 -1.182113	 0.407592
C	 -0.353797	 1.300461	 0.050970
H	 -0.312800	 -0.992012	 1.473041
H	 -0.738841	 -2.119564	 0.220514
C	 1.246176	 -1.268044	 -0.015480
H	 -0.539537	 2.008579	 -0.751815
H	 -0.889989	 1.662858	 0.920677
C	 1.153605	 1.231851	 0.356834
H	 1.823096	 -1.684665	 0.802361
H	 1.352335	 -1.958223	 -0.845114
C	 1.826409	 0.100723	 -0.416008
H	 1.622968	 2.181508	 0.128734
H	 1.301983	 1.066493	 1.419367
H	 2.897299	 0.112407	 -0.249665
H	 1.683458	 0.265621	 -1.480024

	symmetry c1
}
set optking {
	frozen_dihedral = ("
		1 2 3 4
	")
}

ee,wfn = optimize('scf', return_wfn=True)
oeprop( wfn, 'DIPOLE', 'QUADRUPOLE', 'MULLIKEN_CHARGES')
f=open( 'psi4out.xyz', 'w' )
f.write( "19  " )
f.write( str(ee) + "\n" )
f.write( MOL.save_string_xyz() )
f.close()
--------------------------------------------------------------------------

    Molecular point group: c1
  Charge       = 0
  Multiplicity = 1
  Basis Set: CC-PVTZ
  Basis Set:
  @DF-RHF Final Energy:  -309.16298135284217
    Total Energy =                       -309.1629813528422801
    Molecular point group: c1
  Basis Set: CC-PVTZ
  Basis Set:
  Basis Set: CC-PVTZ
  Basis Set:
  @DF-RHF Final Energy:  -309.16301250388409
    Total Energy =                       -309.1630125038841470
  Basis Set: CC-PVTZ
  Basis Set:
  Basis Set: CC-PVTZ
  Basis Set:
  @DF-RHF Final Energy:  -309.16302510080845
    Total Energy =                       -309.1630251008083974
  Basis Set: CC-PVTZ
  Basis Set:
  Charge       = 0
  Multiplicity = 1
  Basis Set: CC-PVTZ
  Basis Set:

    Orbital Energies (a.u.)
    -----------------------

    Doubly Occupied:

       1A    -20.543086     2A    -11.267832     3A    -11.213587
       4A    -11.213241     5A    -11.212725     6A    -11.208801
       7A    -11.206667     8A     -1.362838     9A     -1.109306
      10A     -1.001927    11A     -0.989250    12A     -0.842712
      13A     -0.835490    14A     -0.732168    15A     -0.707840
      16A     -0.659900    17A     -0.628668    18A     -0.590480
      19A     -0.572942    20A     -0.546631    21A     -0.534946
      22A     -0.517704    23A     -0.497990    24A     -0.489332
      25A     -0.462437    26A     -0.449728    27A     -0.430126
      28A     -0.411102

  @DF-RHF Final Energy:  -309.16302532533189

   => Energetics <=

    Nuclear Repulsion Energy =            331.7861260236235239
    One-Electron Energy =               -1077.4193937818577069
    Two-Electron Energy =                 436.4702424329027508
    DFT Exchange-Correlation Energy =       0.0000000000000000
    Empirical Dispersion Energy =           0.0000000000000000
    PCM Polarization Energy =               0.0000000000000000
    EFP Energy =                            0.0000000000000000
    Total Energy =                       -309.1630253253314322
    Molecular point group: c1
  Basis Set: CC-PVTZ
  Basis Set:

  -Total Gradient:
     Atom            X                  Y                   Z
    ------   -----------------  -----------------  -----------------
       1       -0.000099094386    -0.001234476854    -0.000708679293
       2        0.000128858566     0.001820754510     0.000810500274
       3        0.000063063973    -0.001773334877     0.000080264273
       4       -0.000110385074     0.001208305973    -0.000180317521
       5        0.000013045878     0.000007801286     0.000017991815
       6       -0.000026581712    -0.000001657691    -0.000005484204
       7       -0.000007706520     0.000002070045     0.000002716187
       8       -0.000004700729     0.000005727817    -0.000001947825
       9        0.000000397923     0.000011832078    -0.000006710980
      10       -0.000015903349    -0.000003722494    -0.000004044856
      11       -0.000005418624    -0.000004050122    -0.000010275082
      12        0.000009153729    -0.000025786154     0.000018759588
      13        0.000008294584     0.000006243323    -0.000008740160
      14        0.000011079334     0.000010537605    -0.000008702767
      15        0.000017710830     0.000004706733     0.000004742561
      16        0.000006776498    -0.000011712509    -0.000006176501
      17        0.000007368049     0.000000841016     0.000005795050
      18        0.000003395005    -0.000007895012     0.000001529008
      19        0.000000646017    -0.000016184670    -0.000001219570

  **** Optimization is complete! (in 4 steps) ****
    Final optimized geometry and variables:
    Molecular point group: c1

    Geometry (in Angstrom), charge = 0, multiplicity = 1:

    H           -2.823182458487     0.303554494460    -0.672227971704
    O           -2.316101427066    -0.129047777927    -0.010594884451
    C           -0.946175346065    -0.065186293907    -0.326939987037
    H           -0.824829743459    -0.218113550614    -1.397313464117
    C           -0.228549245174    -1.184468402608     0.403410110878
    C           -0.352602242359     1.300273700808     0.052127421079
    H           -0.310449222726    -0.999678068908     1.469877439529
    H           -0.734381211764    -2.122146536227     0.212482254239
    C            1.249222532505    -1.266227687686    -0.019297943569
    H           -0.537595421019     2.007196661092    -0.751541041615
    H           -0.892320227953     1.663504077806     0.918424006807
    C            1.154105641438     1.231253538275     0.359805368117
    H            1.826786458832    -1.683288711058     0.797870338064
    H            1.356575420561    -1.955126106180    -0.850003564869
    C            1.827569132981     0.103791487081    -0.417304838406
    H            1.623485288203     2.182071384623     0.136254294978
    H            1.302200883237     1.061307026113     1.421780003672
    H            2.898888347860     0.115368656351    -0.253492008812
    H            1.682081827462     0.271324493562    -1.480737067768

  Mulliken Charges: (a.u.)
   Center  Symbol    Alpha    Beta     Spin     Total
       1     H     0.39573  0.39573  0.00000  0.20853
       2     O     4.20099  4.20099  0.00000 -0.40198
       3     C     2.92543  2.92543  0.00000  0.14913
       4     H     0.46546  0.46546  0.00000  0.06908
       5     C     3.09749  3.09749  0.00000 -0.19497
       6     C     3.11644  3.11644  0.00000 -0.23288
       7     H     0.45315  0.45315  0.00000  0.09371
       8     H     0.44154  0.44154  0.00000  0.11691
       9     C     3.11319  3.11319  0.00000 -0.22638
      10     H     0.45396  0.45396  0.00000  0.09208
      11     H     0.44486  0.44486  0.00000  0.11028
      12     C     3.10058  3.10058  0.00000 -0.20115
      13     H     0.44725  0.44725  0.00000  0.10550
      14     H     0.44778  0.44778  0.00000  0.10443
      15     C     3.10278  3.10278  0.00000 -0.20555
      16     H     0.44283  0.44283  0.00000  0.11434
      17     H     0.45277  0.45277  0.00000  0.09446
      18     H     0.44294  0.44294  0.00000  0.11411
      19     H     0.45481  0.45481  0.00000  0.09037

   Total alpha = 28.00000, Total beta = 28.00000, Total charge =  0.00000

*** Psi4 exiting successfully. Buy a developer a beer!
