                              Psi4 1.0.54 Driver

  ==> Input File <==

--------------------------------------------------------------------------
set {
	reference rhf
	basis cc-pvtz
}

set_num_threads( 4 )
memory 2 gb

molecule MOL {
0 1

O	 1.847685	 1.294399	 -0.000190
C	 1.704209	 0.119472	 -0.000093
C	 0.380337	 -0.600947	 -0.000234
O	 2.715427	 -0.733672	 0.000025
C	 -0.824290	 0.329213	 -0.000115
H	 0.371455	 -1.255476	 -0.865660
H	 0.371410	 -1.255787	 0.864952
C	 -2.146151	 -0.432825	 -0.000068
H	 -0.773936	 0.979158	 -0.866319
H	 -0.773838	 0.979034	 0.866186
C	 -3.366283	 0.483552	 0.000557
H	 -2.189286	 -1.084450	 -0.869996
H	 -2.188867	 -1.085083	 0.869399
C	 -3.257199	 1.625635	 1.005126
H	 -4.254511	 -0.103340	 0.216811
H	 -3.507495	 0.892131	 -0.996078
H	 -3.149549	 1.248555	 2.016786
H	 -4.138591	 2.255908	 0.979861
H	 -2.396855	 2.252133	 0.794076
C	 4.020999	 -0.192556	 0.000019
H	 4.182809	 0.412891	 -0.879449
H	 4.692590	 -1.035653	 0.000152
H	 4.182726	 0.413087	 0.879368

	symmetry c1
}
set optking {
	frozen_dihedral = ("
		15 11 8 12
	")
}

ee,wfn = optimize('scf', return_wfn=True)
oeprop( wfn, 'DIPOLE', 'QUADRUPOLE', 'MULLIKEN_CHARGES')
f=open( 'psi4out.xyz', 'w' )
f.write( "23  " )
f.write( str(ee) + "\n" )
f.write( MOL.save_string_xyz() )
f.close()
--------------------------------------------------------------------------

    Molecular point group: c1
  Charge       = 0
  Multiplicity = 1
  Basis Set: CC-PVTZ
  Basis Set:
  @DF-RHF Final Energy:  -423.12651674768853
    Total Energy =                       -423.1265167476890383
    Molecular point group: c1
  Basis Set: CC-PVTZ
  Basis Set:
  Basis Set: CC-PVTZ
  Basis Set:
  @DF-RHF Final Energy:  -423.10024759944844
    Total Energy =                       -423.1002475994476981
  Basis Set: CC-PVTZ
  Basis Set:
  Basis Set: CC-PVTZ
  Basis Set:
  @DF-RHF Final Energy:  -423.12737611193359
    Total Energy =                       -423.1273761119336996
  Basis Set: CC-PVTZ
  Basis Set:
  Basis Set: CC-PVTZ
  Basis Set:
  @DF-RHF Final Energy:  -423.12810365814289
    Total Energy =                       -423.1281036581436865
  Basis Set: CC-PVTZ
  Basis Set:
  Basis Set: CC-PVTZ
  Basis Set:
  @DF-RHF Final Energy:  -423.12815443397159
    Total Energy =                       -423.1281544339711900
  Basis Set: CC-PVTZ
  Basis Set:
  Basis Set: CC-PVTZ
  Basis Set:
  @DF-RHF Final Energy:  -423.12816460992849
    Total Energy =                       -423.1281646099291720
  Basis Set: CC-PVTZ
  Basis Set:
  Basis Set: CC-PVTZ
  Basis Set:
  @DF-RHF Final Energy:  -423.12813623229522
    Total Energy =                       -423.1281362322953328
  Basis Set: CC-PVTZ
  Basis Set:
  Charge       = 0
  Multiplicity = 1
  Basis Set: CC-PVTZ
  Basis Set:

    Orbital Energies (a.u.)
    -----------------------

    Doubly Occupied:

       1A    -20.596227     2A    -20.534060     3A    -11.364461
       4A    -11.278410     5A    -11.233579     6A    -11.216624
       7A    -11.216031     8A    -11.215012     9A    -11.205532
      10A     -1.472106    11A     -1.365674    12A     -1.094087
      13A     -1.042601    14A     -0.985742    15A     -0.931543
      16A     -0.857936    17A     -0.781734    18A     -0.768048
      19A     -0.698851    20A     -0.686540    21A     -0.676039
      22A     -0.647492    23A     -0.613617    24A     -0.598569
      25A     -0.591271    26A     -0.561221    27A     -0.535481
      28A     -0.526412    29A     -0.520286    30A     -0.517148
      31A     -0.491700    32A     -0.465651    33A     -0.463503
      34A     -0.460037    35A     -0.457610    36A     -0.438232

  @DF-RHF Final Energy:  -423.12817382480040

   => Energetics <=

    Nuclear Repulsion Energy =            458.6562745580530986
    One-Electron Energy =               -1485.3507524082681357
    Two-Electron Energy =                 603.5663040254141833
    DFT Exchange-Correlation Energy =       0.0000000000000000
    Empirical Dispersion Energy =           0.0000000000000000
    PCM Polarization Energy =               0.0000000000000000
    EFP Energy =                            0.0000000000000000
    Total Energy =                       -423.1281738248007969
    Molecular point group: c1
  Basis Set: CC-PVTZ
  Basis Set:

  -Total Gradient:
     Atom            X                  Y                   Z
    ------   -----------------  -----------------  -----------------
       1        0.000022591028     0.000016876550    -0.000006137192
       2       -0.000069772465    -0.000022436434     0.000018780412
       3        0.000023833488     0.000020316247    -0.000020913084
       4        0.000068689031     0.000000301173    -0.000001926616
       5       -0.000031251926    -0.000050055715     0.000009118795
       6       -0.000004619611     0.000000629255     0.000001282513
       7       -0.000004465406     0.000006122026     0.000002108174
       8       -0.001789164511    -0.003914797877     0.002827664401
       9        0.000012659486     0.000009413723     0.000006962999
      10        0.000001388586     0.000009000635     0.000000182927
      11        0.000432681300     0.000285051275    -0.005101688300
      12        0.001465106935     0.003285086335    -0.001625704029
      13       -0.000004732809     0.000003982356     0.000005901825
      14       -0.000013039231    -0.000037036342    -0.000046174939
      15       -0.000090230933     0.000363736322     0.003929564531
      16       -0.000003531113     0.000005116474    -0.000005681078
      17        0.000005683812     0.000005604534     0.000000771776
      18        0.000001288448     0.000009657777     0.000002730017
      19        0.000000926863     0.000010258394     0.000007953945
      20       -0.000052681172    -0.000012410768    -0.000013813149
      21        0.000012099239     0.000000174159     0.000004103060
      22        0.000004271177     0.000006521645     0.000004382599
      23        0.000012269784    -0.000001111751     0.000000530414

  **** Optimization is complete! (in 8 steps) ****
    Final optimized geometry and variables:
    Molecular point group: c1

    Geometry (in Angstrom), charge = 0, multiplicity = 1:

    O            1.428209450050     1.425181361702     0.182547721469
    C            1.548856887873     0.262031524380    -0.001125079593
    C            0.418247992815    -0.717854456610    -0.183141985195
    O            2.724121460557    -0.341690552650    -0.071809351173
    C           -0.962292898258    -0.079596559075    -0.120486867823
    H            0.578460338533    -1.220263226963    -1.131330254702
    H            0.531615575620    -1.482564324510     0.578583124145
    C           -2.074811458910    -1.113430147250    -0.294691801194
    H           -1.039538462025     0.679385014426    -0.891808742413
    H           -1.065694474463     0.438338518602     0.823731263842
    C           -3.487340439930    -0.526333965888    -0.384076073213
    H           -1.876804012456    -1.657446127310    -1.214472503494
    H           -2.029454008305    -1.832280575149     0.519118733260
    C           -3.843513116127     0.467783256164     0.720619760921
    H           -4.196572861414    -1.346063144606    -0.325118842811
    H           -3.623983499835    -0.052470484379    -1.351119542131
    H           -3.687318428943     0.033950357641     1.703481676130
    H           -4.886704518385     0.753748866142     0.650466603803
    H           -3.252770269594     1.373238328488     0.661226554377
    C            3.876538504314     0.461325790049     0.083087143507
    H            3.919507587911     1.219188037214    -0.685053957139
    H            4.718456003404    -0.205964546807    -0.005205559097
    H            3.880534205034     0.940214189589     1.051028388698

  Mulliken Charges: (a.u.)
   Center  Symbol    Alpha    Beta     Spin     Total
       1     O     4.19722  4.19722  0.00000 -0.39443
       2     C     2.80599  2.80599  0.00000  0.38802
       3     C     3.10273  3.10273  0.00000 -0.20545
       4     O     4.14634  4.14634  0.00000 -0.29268
       5     C     3.08694  3.08694  0.00000 -0.17388
       6     H     0.43913  0.43913  0.00000  0.12174
       7     H     0.44012  0.44012  0.00000  0.11976
       8     C     3.09881  3.09881  0.00000 -0.19762
       9     H     0.44600  0.44600  0.00000  0.10801
      10     H     0.44357  0.44357  0.00000  0.11287
      11     C     3.08903  3.08903  0.00000 -0.17806
      12     H     0.45163  0.45163  0.00000  0.09673
      13     H     0.45262  0.45262  0.00000  0.09477
      14     C     3.15668  3.15668  0.00000 -0.31337
      15     H     0.44961  0.44961  0.00000  0.10079
      16     H     0.45217  0.45217  0.00000  0.09566
      17     H     0.45461  0.45461  0.00000  0.09078
      18     H     0.44573  0.44573  0.00000  0.10855
      19     H     0.44920  0.44920  0.00000  0.10160
      20     C     3.03774  3.03774  0.00000 -0.07549
      21     H     0.45441  0.45441  0.00000  0.09119
      22     H     0.44538  0.44538  0.00000  0.10923
      23     H     0.45436  0.45436  0.00000  0.09127

   Total alpha = 36.00000, Total beta = 36.00000, Total charge =  0.00000

*** Psi4 exiting successfully. Buy a developer a beer!
