                              Psi4 1.0.54 Driver

  ==> Input File <==

--------------------------------------------------------------------------
set {
	reference rhf
	basis cc-pvtz
}

set_num_threads( 4 )
memory 2 gb

molecule MOL {
0 1

H	 -0.368932	 0.067705	 -2.090439
C	 -0.209919	 -0.484932	 -1.189418
C	 -0.208597	 -1.865032	 -1.181964
C	 0.000000	 0.179985	 0.000046
H	 -0.370006	 -2.400757	 -2.096546
C	 0.000003	 -2.552036	 -0.000011
N	 0.000000	 1.644631	 0.000076
C	 0.209918	 -0.484981	 1.189483
H	 0.000000	 -3.625035	 -0.000032
C	 0.208599	 -1.865081	 1.181972
O	 1.050559	 2.194174	 -0.000073
O	 -1.050559	 2.194174	 -0.000074
H	 0.368940	 0.067620	 2.090525
H	 0.370004	 -2.400843	 2.096533

	symmetry c1
}
set optking {
	frozen_dihedral = ("
		2 4 7 11
	")
}

ee,wfn = optimize('scf', return_wfn=True)
oeprop( wfn, 'DIPOLE', 'QUADRUPOLE', 'MULLIKEN_CHARGES')
f=open( 'psi4out.xyz', 'w' )
f.write( "14  " )
f.write( str(ee) + "\n" )
f.write( MOL.save_string_xyz() )
f.close()
--------------------------------------------------------------------------

    Molecular point group: c1
  Charge       = 0
  Multiplicity = 1
  Basis Set: CC-PVTZ
  Basis Set:
  @DF-RHF Final Energy:  -434.32010414228881
    Total Energy =                       -434.3201041422887556
    Molecular point group: c1
  Basis Set: CC-PVTZ
  Basis Set:
  Basis Set: CC-PVTZ
  Basis Set:
  @DF-RHF Final Energy:  -434.31626512080430
    Total Energy =                       -434.3162651208042462
  Basis Set: CC-PVTZ
  Basis Set:
  Basis Set: CC-PVTZ
  Basis Set:
  @DF-RHF Final Energy:  -434.31954302965079
    Total Energy =                       -434.3195430296509585
  Basis Set: CC-PVTZ
  Basis Set:
  Basis Set: CC-PVTZ
  Basis Set:
  @DF-RHF Final Energy:  -434.32036434612297
    Total Energy =                       -434.3203643461226875
  Basis Set: CC-PVTZ
  Basis Set:
  Basis Set: CC-PVTZ
  Basis Set:
  @DF-RHF Final Energy:  -434.32037802385543
    Total Energy =                       -434.3203780238552554
  Basis Set: CC-PVTZ
  Basis Set:
  Charge       = 0
  Multiplicity = 1
  Basis Set: CC-PVTZ
  Basis Set:

    Orbital Energies (a.u.)
    -----------------------

    Doubly Occupied:

       1A    -20.598504     2A    -20.598419     3A    -15.848344
       4A    -11.308165     5A    -11.267361     6A    -11.267305
       7A    -11.260880     8A    -11.260560     9A    -11.258012
      10A     -1.645830    11A     -1.428970    12A     -1.206519
      13A     -1.096695    14A     -1.056880    15A     -0.959256
      16A     -0.874941    17A     -0.831518    18A     -0.786433
      19A     -0.740749    20A     -0.738662    21A     -0.718230
      22A     -0.652003    23A     -0.650498    24A     -0.625877
      25A     -0.561731    26A     -0.552994    27A     -0.533700
      28A     -0.500806    29A     -0.485692    30A     -0.459455
      31A     -0.371614    32A     -0.370580

  @DF-RHF Final Energy:  -434.32038855435076

   => Energetics <=

    Nuclear Repulsion Energy =            417.3191441569615563
    One-Electron Energy =               -1418.2447049381423767
    Two-Electron Energy =                 566.6051722268296089
    DFT Exchange-Correlation Energy =       0.0000000000000000
    Empirical Dispersion Energy =           0.0000000000000000
    PCM Polarization Energy =               0.0000000000000000
    EFP Energy =                            0.0000000000000000
    Total Energy =                       -434.3203885543512115
    Molecular point group: c1
  Basis Set: CC-PVTZ
  Basis Set:

  -Total Gradient:
     Atom            X                  Y                   Z
    ------   -----------------  -----------------  -----------------
       1        0.000005563063     0.000003015181     0.000009637765
       2        0.002204858772    -0.000113388309    -0.000328450457
       3        0.000020866524     0.000013247201    -0.000012077286
       4       -0.003181709432     0.000193483968    -0.000532856495
       5        0.000006122104    -0.000002653960    -0.000002466249
       6       -0.000002720610    -0.000003246768    -0.000009625629
       7        0.000971878136    -0.000073495211     0.003473242602
       8       -0.000054229849    -0.000078402212     0.000042005382
       9       -0.000010094677     0.000001594825    -0.000000842329
      10        0.000024970925     0.000027249320     0.000016082856
      11       -0.000017423079    -0.000010777407    -0.002634994594
      12        0.000025410787     0.000038481628    -0.000004157094
      13        0.000001601392     0.000006291719    -0.000015104973
      14        0.000004905943    -0.000001399968    -0.000000393500

  **** Optimization is complete! (in 6 steps) ****
    Final optimized geometry and variables:
    Molecular point group: c1

    Geometry (in Angstrom), charge = 0, multiplicity = 1:

    H           -0.348039922740     0.075771266899    -2.093681965161
    C           -0.200341805580    -0.476601390293    -1.187039332022
    C           -0.193944551675    -1.857981627672    -1.181105731245
    C           -0.016515770493     0.178031107427     0.006730225108
    H           -0.332932333070    -2.392337661505    -2.100370497976
    C           -0.009983135245    -2.547340724368     0.002943066873
    N            0.009055223583     1.643666764349     0.001477331990
    C            0.184482309822    -0.479110487128     1.196244141360
    H           -0.009793887275    -3.619933975354     0.001721855617
    C            0.176717545547    -1.860541621361     1.187984134269
    O            1.072319830696     2.163907490564     0.032657990455
    O           -1.033866026929     2.202029880238    -0.054234493526
    H            0.342099877103     0.071322223447     2.102415920383
    H            0.322033287380    -2.396817373529     2.105144595706

  Mulliken Charges: (a.u.)
   Center  Symbol    Alpha    Beta     Spin     Total
       1     H     0.41418  0.41418  0.00000  0.17164
       2     C     3.08464  3.08464  0.00000 -0.16927
       3     C     3.06418  3.06418  0.00000 -0.12837
       4     C     2.92415  2.92415  0.00000  0.15171
       5     H     0.41735  0.41735  0.00000  0.16530
       6     C     3.07817  3.07817  0.00000 -0.15635
       7     N     3.29231  3.29231  0.00000  0.41538
       8     C     3.08484  3.08484  0.00000 -0.16968
       9     H     0.41801  0.41801  0.00000  0.16398
      10     C     3.06400  3.06400  0.00000 -0.12800
      11     O     4.16283  4.16283  0.00000 -0.32566
      12     O     4.16340  4.16340  0.00000 -0.32680
      13     H     0.41459  0.41459  0.00000  0.17082
      14     H     0.41736  0.41736  0.00000  0.16529

   Total alpha = 32.00000, Total beta = 32.00000, Total charge =  0.00000

*** Psi4 exiting successfully. Buy a developer a beer!
