  ==> Input File <==

--------------------------------------------------------------------------
set {
	reference rhf
	basis cc-pvtz
}

set_num_threads( 4 )
memory 2 gb

molecule MOL {
0 1

H	 1.502586	 1.314026	 -0.107625
C	 0.848385	 0.440008	 0.000011
C	 -0.623497	 0.751021	 0.000090
O	 1.314196	 -0.641359	 0.104463
C	 -1.523725	 -0.474323	 -0.000013
H	 -0.813143	 1.382932	 -0.864897
H	 -0.813071	 1.382716	 0.865253
H	 -1.342980	 -1.087348	 -0.873016
H	 -2.565269	 -0.177464	 0.000070
H	 -1.342898	 -1.087564	 0.872820

	symmetry c1
}
set optking {
	frozen_dihedral = ("
		4 2 3 6
	")
}

ee = optimize('scf')
oeprop('DIPOLE', 'QUADRUPOLE', 'MULLIKEN_CHARGES')
f=open( 'psi4out.xyz', 'w' )
f.write( "10  " )
f.write( str(ee) + "\n" )
f.write( MOL.save_string_xyz() )
f.close()
--------------------------------------------------------------------------

    Molecular point group: c1
  Charge       = 0
  Multiplicity = 1
  Basis Set: CC-PVTZ
  Basis Set:
  @DF-RHF Final Energy:  -192.02475487261515
    Total Energy =                       -192.0247548726151194
    Molecular point group: c1
  Basis Set: CC-PVTZ
  Basis Set:
  Basis Set: CC-PVTZ
  Basis Set:
  @DF-RHF Final Energy:  -192.02449839723045
    Total Energy =                       -192.0244983972304453
  Basis Set: CC-PVTZ
  Basis Set:
  Basis Set: CC-PVTZ
  Basis Set:
  @DF-RHF Final Energy:  -192.02477745146177
    Total Energy =                       -192.0247774514619152
  Basis Set: CC-PVTZ
  Basis Set:
  Charge       = 0
  Multiplicity = 1
  Basis Set: CC-PVTZ
  Basis Set:

    Orbital Energies (a.u.)
    -----------------------

    Doubly Occupied:

       1A    -20.553657     2A    -11.323383     3A    -11.239788
       4A    -11.218168     5A     -1.409179     6A     -1.061929
       7A     -0.911828     8A     -0.774132     9A     -0.685983
      10A     -0.636826    11A     -0.633614    12A     -0.544171
      13A     -0.535608    14A     -0.520409    15A     -0.495362
      16A     -0.417005

  @DF-RHF Final Energy:  -192.02478019857361

   => Energetics <=

    Nuclear Repulsion Energy =            119.3666812390086704
    One-Electron Energy =                -496.8608373256238906
    Two-Electron Energy =                 185.4693758880415544
    DFT Exchange-Correlation Energy =       0.0000000000000000
    Empirical Dispersion Energy =           0.0000000000000000
    PCM Polarization Energy =               0.0000000000000000
    EFP Energy =                            0.0000000000000000
    Total Energy =                       -192.0247801985736942
    Molecular point group: c1
  Basis Set: CC-PVTZ
  Basis Set:

  -Total Gradient:
     Atom            X                  Y                   Z
    ------   -----------------  -----------------  -----------------
       1        0.000002548004     0.000002959271     0.000014117931
       2        0.000015156663     0.000010603001    -0.000985782136
       3       -0.000133538883    -0.000611497504    -0.000094557608
       4        0.000001436321     0.000072152289     0.000724824955
       5       -0.000001888984    -0.000018005937    -0.000039753310
       6        0.000098577692     0.000513852902     0.000391901392
       7        0.000013349951     0.000016312571     0.000003274738
       8       -0.000010913598    -0.000026049258    -0.000008892563
       9       -0.000000177954     0.000004859536     0.000002389022
      10        0.000015450790     0.000034813129    -0.000007522421

  **** Optimization is complete! (in 4 steps) ****
    Final optimized geometry and variables:
    Molecular point group: c1

    Geometry (in Angstrom), charge = 0, multiplicity = 1:

    H            1.503122219496     1.314715815721    -0.112316145664
    C            0.848299974042     0.438850466230    -0.026214377001
    C           -0.623772668209     0.749122790915    -0.032149947678
    O            1.313799343994    -0.642899000513     0.075869220761
    C           -1.524237902435    -0.475792561523    -0.023154406840
    H           -0.817312170244     1.384660973621    -0.892860868167
    H           -0.808544450943     1.380370204149     0.835200990962
    H           -1.349017164805    -1.091951722055    -0.895457127950
    H           -2.565653549423    -0.178626078809    -0.018518280886
    H           -1.338112461828    -1.085709048773     0.850481412007

  Mulliken Charges: (a.u.)
   Center  Symbol    Alpha    Beta     Spin     Total
       1     H     0.45355  0.45355  0.00000  0.09290
       2     C     2.91609  2.91609  0.00000  0.16782
       3     C     3.08379  3.08379  0.00000 -0.16757
       4     O     4.16476  4.16476  0.00000 -0.32952
       5     C     3.14055  3.14055  0.00000 -0.28110
       6     H     0.44847  0.44847  0.00000  0.10306
       7     H     0.44842  0.44842  0.00000  0.10316
       8     H     0.44843  0.44843  0.00000  0.10315
       9     H     0.44944  0.44944  0.00000  0.10112
      10     H     0.44650  0.44650  0.00000  0.10699

   Total alpha = 16.00000, Total beta = 16.00000, Total charge = -0.00000
