  ==> Input File <==

--------------------------------------------------------------------------
set {
	reference rhf
	basis 6-31G*
}

set_num_threads( 4 )
memory 2 gb

molecule MOL {
0 1

H	 0.465232	 -3.079045	 -1.792393
O	 0.582939	 -2.464278	 -1.074762
C	 -0.424494	 -1.592694	 -1.107166
C	 -0.318135	 -0.576402	 0.000164
O	 -1.281645	 -1.647206	 -1.927726
C	 -1.454360	 0.441875	 -0.000474
H	 -0.278694	 -1.122640	 0.938818
H	 0.648115	 -0.089019	 -0.098941
C	 -2.826123	 -0.230780	 0.000056
H	 -1.357605	 1.085198	 -0.868380
H	 -1.357504	 1.086451	 0.866496
H	 -2.959731	 -0.858053	 -0.876869
H	 -3.619374	 0.509403	 -0.000080
H	 -2.959371	 -0.857318	 0.877556

	symmetry c1
}
set optking {
	frozen_dihedral = ("
		7 4 6 10
	")
}

ee = optimize('scf')
oeprop('DIPOLE', 'QUADRUPOLE', 'MULLIKEN_CHARGES')
f=open( 'psi4out.xyz', 'w' )
f.write( "14  " )
f.write( str(ee) + "\n" )
f.write( MOL.save_string_xyz() )
f.close()
--------------------------------------------------------------------------

    Molecular point group: c1
  Charge       = 0
  Multiplicity = 1
  Basis Set: 6-31G*
  Basis Set:
  @DF-RHF Final Energy:  -305.87525942594186
    Total Energy =                       -305.8752594259418629
    Molecular point group: c1
  Basis Set: 6-31G*
  Basis Set:
  Basis Set: 6-31G*
  Basis Set:
  @DF-RHF Final Energy:  -305.87873279576706
    Total Energy =                       -305.8787327957671209
  Basis Set: 6-31G*
  Basis Set:
  Basis Set: 6-31G*
  Basis Set:
  @DF-RHF Final Energy:  -305.87906500318365
    Total Energy =                       -305.8790650031837686
  Basis Set: 6-31G*
  Basis Set:
  Basis Set: 6-31G*
  Basis Set:
  @DF-RHF Final Energy:  -305.87772983860850
    Total Energy =                       -305.8777298386086159
  Basis Set: 6-31G*
  Basis Set:
  @DF-RHF Final Energy:  -305.87948361004595
    Total Energy =                       -305.8794836100456109
  Basis Set: 6-31G*
  Basis Set:
  @DF-RHF Final Energy:  -305.87956146230488
    Total Energy =                       -305.8795614623047641
  Basis Set: 6-31G*
  Basis Set:
  Basis Set: 6-31G*
  Basis Set:
  @DF-RHF Final Energy:  -305.87958490552830
    Total Energy =                       -305.8795849055281906
  Basis Set: 6-31G*
  Basis Set:
  Basis Set: 6-31G*
  Basis Set:
  @DF-RHF Final Energy:  -305.87958620441549
    Total Energy =                       -305.8795862044156024
  Basis Set: 6-31G*
  Basis Set:
  Charge       = 0
  Multiplicity = 1
  Basis Set: 6-31G*
  Basis Set:

    Orbital Energies (a.u.)
    -----------------------

    Doubly Occupied:

       1A    -20.614261     2A    -20.552004     3A    -11.382676
       4A    -11.241529     5A    -11.227517     6A    -11.209926
       7A     -1.476069     8A     -1.366586     9A     -1.081189
      10A     -0.976137    11A     -0.862574    12A     -0.787097
      13A     -0.702628    14A     -0.690485    15A     -0.659125
      16A     -0.613261    17A     -0.593850    18A     -0.567021
      19A     -0.555627    20A     -0.498347    21A     -0.489732
      22A     -0.484744    23A     -0.476625    24A     -0.442068

  @DF-RHF Final Energy:  -305.87958636195140

   => Energetics <=

    Nuclear Repulsion Energy =            244.8137492437785738
    One-Electron Energy =                -902.2845169731772330
    Two-Electron Energy =                 351.5911813674473478
    DFT Exchange-Correlation Energy =       0.0000000000000000
    Empirical Dispersion Energy =           0.0000000000000000
    PCM Polarization Energy =               0.0000000000000000
    EFP Energy =                            0.0000000000000000
    Total Energy =                       -305.8795863619512829
    Molecular point group: c1
  Basis Set: 6-31G*
  Basis Set:

  -Total Gradient:
     Atom            X                  Y                   Z
    ------   -----------------  -----------------  -----------------
       1        0.000000065925    -0.000003905106    -0.000002788042
       2        0.000003120229    -0.000003742702     0.000000464243
       3        0.000002492680     0.000004792226     0.000005303424
       4       -0.002141332815    -0.002521738677    -0.001114246261
       5       -0.000008804936    -0.000002555483    -0.000001935371
       6       -0.001756230778    -0.002038437310    -0.001817200148
       7        0.002050227596     0.002394245644     0.001211558403
       8       -0.000006217744     0.000002781386    -0.000001643329
       9        0.000004842981     0.000007084975     0.000022363893
      10        0.001852436347     0.002179459672     0.001722521827
      11       -0.000000393881    -0.000000763405     0.000001157126
      12       -0.000004806773    -0.000016050934    -0.000019652906
      13        0.000005479498    -0.000001564596    -0.000004463083
      14       -0.000000878330     0.000000394314    -0.000001439772

  **** Optimization is complete! (in 9 steps) ****
    Final optimized geometry and variables:
    Molecular point group: c1

    Geometry (in Angstrom), charge = 0, multiplicity = 1:

    H            1.343897794701    -2.129818933830    -0.965167306258
    O            1.357755733649    -1.566876176336    -0.197077794783
    C            0.568924878898    -0.521285604712    -0.437108191293
    C            0.577461623654     0.463140257538     0.703496529127
    O           -0.022534177853    -0.398460149556    -1.460711671224
    C           -0.587073437139     1.454181143970     0.705340535529
    H            0.648075099211    -0.071718924055     1.644182532350
    H            1.517777551261     1.004148576062     0.612529804214
    C           -1.968098159931     0.807856047444     0.803065657843
    H           -0.520361429281     2.089559215633    -0.170971053015
    H           -0.442563623052     2.110660752882     1.559715835836
    H           -2.181757525472     0.196299409973    -0.064373129564
    H           -2.738944490868     1.568481524380     0.873178045288
    H           -2.042895640812     0.182339453521     1.689052693029

  Mulliken Charges: (a.u.)
   Center  Symbol    Alpha    Beta     Spin     Total
       1     H     0.26785  0.26785  0.00000  0.46429
       2     O     4.34989  4.34989  0.00000 -0.69979
       3     C     2.62236  2.62236  0.00000  0.75527
       4     C     3.21237  3.21237  0.00000 -0.42474
       5     O     4.28096  4.28096  0.00000 -0.56192
       6     C     3.15145  3.15145  0.00000 -0.30289
       7     H     0.39897  0.39897  0.00000  0.20207
       8     H     0.39631  0.39631  0.00000  0.20738
       9     C     3.24849  3.24849  0.00000 -0.49698
      10     H     0.40893  0.40893  0.00000  0.18213
      11     H     0.41793  0.41793  0.00000  0.16414
      12     H     0.40331  0.40331  0.00000  0.19337
      13     H     0.41729  0.41729  0.00000  0.16542
      14     H     0.42387  0.42387  0.00000  0.15225

   Total alpha = 24.00000, Total beta = 24.00000, Total charge = -0.00000
