  ==> Input File <==

--------------------------------------------------------------------------
set {
	reference rhf
	basis cc-pvtz
}

set_num_threads( 4 )
memory 2 gb

molecule MOL {
0 1

H	 1.672899	 1.829170	 -1.438621
O	 0.781053	 1.678746	 -1.186375
C	 0.700177	 0.619554	 -0.266242
C	 -0.713111	 0.588314	 0.266177
H	 1.393841	 0.771839	 0.555077
H	 0.930846	 -0.328774	 -0.744617
O	 -1.421673	 -0.521378	 -0.196983
H	 -1.244794	 1.469161	 -0.069059
H	 -0.685100	 0.604721	 1.352683
H	 -0.933408	 -1.297830	 0.014544

	symmetry c1
}
set optking {
	frozen_dihedral = ("
		5 3 4 7
	")
}

ee = optimize('scf')
oeprop('DIPOLE', 'QUADRUPOLE', 'MULLIKEN_CHARGES')
f=open( 'psi4out.xyz', 'w' )
f.write( "10  " )
f.write( str(ee) + "\n" )
f.write( MOL.save_string_xyz() )
f.close()
--------------------------------------------------------------------------

    Molecular point group: c1
  Charge       = 0
  Multiplicity = 1
  Basis Set: CC-PVTZ
  Basis Set:
  @DF-RHF Final Energy:  -229.01742024824480
    Total Energy =                       -229.0174202482448322
    Molecular point group: c1
  Basis Set: CC-PVTZ
  Basis Set:
  Basis Set: CC-PVTZ
  Basis Set:
  @DF-RHF Final Energy:  -229.01848034466337
    Total Energy =                       -229.0184803446632600
  Basis Set: CC-PVTZ
  Basis Set:
  Basis Set: CC-PVTZ
  Basis Set:
  @DF-RHF Final Energy:  -229.01890831997051
    Total Energy =                       -229.0189083199706488
  Basis Set: CC-PVTZ
  Basis Set:
  Basis Set: CC-PVTZ
  Basis Set:
  @DF-RHF Final Energy:  -229.01898862176142
    Total Energy =                       -229.0189886217614514
  Basis Set: CC-PVTZ
  Basis Set:
  Basis Set: CC-PVTZ
  Basis Set:
  @DF-RHF Final Energy:  -229.01902388521845
    Total Energy =                       -229.0190238852185303
  Basis Set: CC-PVTZ
  Basis Set:
  Basis Set: CC-PVTZ
  Basis Set:
  @DF-RHF Final Energy:  -229.01902704554843
    Total Energy =                       -229.0190270455483414
  Basis Set: CC-PVTZ
  Basis Set:
  Charge       = 0
  Multiplicity = 1
  Basis Set: CC-PVTZ
  Basis Set:

    Orbital Energies (a.u.)
    -----------------------

    Doubly Occupied:

       1A    -20.552224     2A    -20.549118     3A    -11.271667
       4A    -11.267976     5A     -1.376269     6A     -1.361506
       7A     -0.997896     8A     -0.848151     9A     -0.717403
      10A     -0.696047    11A     -0.643291    12A     -0.596354
      13A     -0.583954    14A     -0.534056    15A     -0.489349
      16A     -0.446151    17A     -0.438929

  @DF-RHF Final Energy:  -229.01902764609355

   => Energetics <=

    Nuclear Repulsion Energy =            131.6569990791769555
    One-Electron Energy =                -574.6113659166535399
    Two-Electron Energy =                 213.9353391913830365
    DFT Exchange-Correlation Energy =       0.0000000000000000
    Empirical Dispersion Energy =           0.0000000000000000
    PCM Polarization Energy =               0.0000000000000000
    EFP Energy =                            0.0000000000000000
    Total Energy =                       -229.0190276460935479
    Molecular point group: c1
  Basis Set: CC-PVTZ
  Basis Set:

  -Total Gradient:
     Atom            X                  Y                   Z
    ------   -----------------  -----------------  -----------------
       1       -0.000000772620     0.000002380274    -0.000006076807
       2        0.000005475104    -0.000036594720     0.000027027430
       3       -0.000079642838     0.002338396779     0.000251904259
       4       -0.000682436767     0.000744560206    -0.001727371633
       5        0.000217688027    -0.002114319708     0.000160278247
       6        0.000003722325    -0.000004790977     0.000002181954
       7        0.000528869900    -0.000936902075     0.001289848822
       8       -0.000000063533    -0.000000392929    -0.000001643438
       9        0.000003602989     0.000005596849     0.000005705793
      10        0.000003557413     0.000002066301    -0.000001854626

  **** Optimization is complete! (in 7 steps) ****
    Final optimized geometry and variables:
    Molecular point group: c1

    Geometry (in Angstrom), charge = 0, multiplicity = 1:

    H            1.812680668538     1.198617007069    -1.146964646085
    O            0.947649475010     1.148088651608    -0.783961655242
    C            0.859639674023     0.071429844783     0.108422796881
    C           -0.575484964797    -0.036198004322     0.625366670915
    H            1.551098609710     0.201969082076     0.937153310191
    H            1.116315260976    -0.860295345973    -0.387953449745
    O           -1.275976971879    -1.136051452814     0.111768704554
    H           -1.112878640158     0.847591762658     0.317481388635
    H           -0.579090688563    -0.067508845128     1.710935761931
    H           -0.960711016218    -1.930912229327     0.500432077936

  Mulliken Charges: (a.u.)
   Center  Symbol    Alpha    Beta     Spin     Total
       1     H     0.39417  0.39417  0.00000  0.21167
       2     O     4.19612  4.19612  0.00000 -0.39223
       3     C     2.96360  2.96360  0.00000  0.07279
       4     C     2.97421  2.97421  0.00000  0.05158
       5     H     0.47827  0.47827  0.00000  0.04347
       6     H     0.47746  0.47746  0.00000  0.04509
       7     O     4.19908  4.19908  0.00000 -0.39816
       8     H     0.44996  0.44996  0.00000  0.10009
       9     H     0.47105  0.47105  0.00000  0.05790
      10     H     0.39610  0.39610  0.00000  0.20780

   Total alpha = 17.00000, Total beta = 17.00000, Total charge = -0.00000
