                              Psi4 1.0.54 Driver

  ==> Input File <==

--------------------------------------------------------------------------
set {
	reference rhf
	basis cc-pvtz
}

set_num_threads( 4 )
memory 2 gb

molecule MOL {
0 1

O	 3.219313	 0.959291	 -0.614106
C	 2.698710	 0.058177	 -0.050237
C	 1.246364	 -0.005813	 0.348416
O	 3.344101	 -1.038700	 0.312317
C	 0.453207	 1.232821	 -0.049003
H	 0.839270	 -0.907818	 -0.092281
H	 1.216683	 -0.160521	 1.422434
C	 -0.998367	 1.217982	 0.432195
H	 0.481498	 1.345443	 -1.127236
H	 0.951413	 2.105557	 0.354893
C	 -1.882951	 0.151251	 -0.211235
H	 -1.429490	 2.193659	 0.228843
H	 -1.019755	 1.099323	 1.513279
C	 -3.342450	 0.243269	 0.226009
H	 -1.826223	 0.246578	 -1.293162
H	 -1.508033	 -0.839650	 0.027695
C	 -4.227765	 -0.842532	 -0.378993
H	 -3.737545	 1.219246	 -0.045484
H	 -3.396726	 0.185402	 1.310707
C	 -5.684544	 -0.742861	 0.061050
H	 -4.174721	 -0.785842	 -1.462825
H	 -3.835825	 -1.818671	 -0.106243
H	 -6.284691	 -1.527282	 -0.385594
H	 -6.116516	 0.209288	 -0.228643
H	 -5.774766	 -0.830692	 1.138711
C	 4.720529	 -1.114346	 0.001449
H	 4.874321	 -1.055557	 -1.065852
H	 5.057824	 -2.067950	 0.373977
H	 5.264321	 -0.313596	 0.480350

	symmetry c1
}
set optking {
	frozen_dihedral = ("
		17 14 11 15
	")
}

ee,wfn = optimize('scf', return_wfn=True)
oeprop( wfn, 'DIPOLE', 'QUADRUPOLE', 'MULLIKEN_CHARGES')
f=open( 'psi4out.xyz', 'w' )
f.write( "29  " )
f.write( str(ee) + "\n" )
f.write( MOL.save_string_xyz() )
f.close()
--------------------------------------------------------------------------

    Molecular point group: c1
  Charge       = 0
  Multiplicity = 1
  Basis Set: CC-PVTZ
  Basis Set:
  @DF-RHF Final Energy:  -501.22494909851150
    Total Energy =                       -501.2249490985112743
    Molecular point group: c1
  Basis Set: CC-PVTZ
  Basis Set:
  Charge       = 0
  Multiplicity = 1
  Basis Set: CC-PVTZ
  Basis Set:

    Orbital Energies (a.u.)
    -----------------------

    Doubly Occupied:

       1A    -20.595989     2A    -20.533838     3A    -11.364262
       4A    -11.278252     5A    -11.232965     6A    -11.217044
       7A    -11.215505     8A    -11.213983     9A    -11.213712
      10A    -11.212313    11A    -11.207173    12A     -1.471877
      13A     -1.365453    14A     -1.099361    15A     -1.068016
      16A     -1.020610    17A     -0.978147    18A     -0.929179
      19A     -0.862162    20A     -0.799717    21A     -0.790978
      22A     -0.765650    23A     -0.702925    24A     -0.685443
      25A     -0.676083    26A     -0.651901    27A     -0.629530
      28A     -0.605956    29A     -0.595756    30A     -0.582102
      31A     -0.568126    32A     -0.549747    33A     -0.533018
      34A     -0.531652    35A     -0.517408    36A     -0.512579
      37A     -0.496823    38A     -0.478292    39A     -0.470533
      40A     -0.462908    41A     -0.460633    42A     -0.458167
      43A     -0.443808    44A     -0.437416

  @DF-RHF Final Energy:  -501.22494888748463

   => Energetics <=

    Nuclear Repulsion Energy =            611.1433408016611111
    One-Electron Energy =               -1893.7625862609170326
    Two-Electron Energy =                 781.3942965717714060
    DFT Exchange-Correlation Energy =       0.0000000000000000
    Empirical Dispersion Energy =           0.0000000000000000
    PCM Polarization Energy =               0.0000000000000000
    EFP Energy =                            0.0000000000000000
    Total Energy =                       -501.2249488874846293
    Molecular point group: c1
  Basis Set: CC-PVTZ
  Basis Set:

  -Total Gradient:
     Atom            X                  Y                   Z
    ------   -----------------  -----------------  -----------------
       1        0.000001875817    -0.000051956598    -0.000153764968
       2        0.000066872339     0.000174442807     0.000400241612
       3       -0.000030470276    -0.000062209516    -0.000114941260
       4       -0.000031459162    -0.000047611661    -0.000116093020
       5       -0.000019152163    -0.000007816555    -0.000052818395
       6        0.000000013867     0.000007787263     0.000018275880
       7        0.000027327183    -0.000001279621     0.000001593052
       8       -0.000055359097    -0.000025949610    -0.000085886125
       9        0.000005952618    -0.000000167868    -0.000015867994
      10       -0.000003196604     0.000006244356    -0.000005041870
      11        0.000030909132    -0.000442489983     0.000200909331
      12       -0.000009628998     0.000029390720     0.000027645061
      13       -0.000006969101    -0.000050027357    -0.000017898484
      14       -0.000077801507     0.000327487531    -0.000311086620
      15        0.000057769209     0.000326787529     0.000023480366
      16        0.000005449861    -0.000056556297     0.000006481173
      17        0.000104327723    -0.000116290633     0.000229341558
      18       -0.000064015542     0.000060022122     0.000030202500
      19        0.000026767768    -0.000031920349    -0.000026754315
      20       -0.000044011420    -0.000026681496    -0.000037425574
      21        0.000037033370     0.000016649178    -0.000081942438
      22        0.000030415723    -0.000100338084     0.000034751343
      23       -0.000000665185     0.000001960277    -0.000006673856
      24       -0.000060375111     0.000094439482    -0.000026677350
      25       -0.000011129277    -0.000017570915     0.000086098458
      26        0.000004225928    -0.000005983166     0.000002289443
      27        0.000004555339     0.000001346547    -0.000010798183
      28        0.000008467989    -0.000007216018     0.000000022159
      29        0.000002269583     0.000005507918     0.000002338514

  **** Optimization is complete! (in 2 steps) ****
    Final optimized geometry and variables:
    Molecular point group: c1

    Geometry (in Angstrom), charge = 0, multiplicity = 1:

    O            3.214976707084     0.965180834297    -0.625586858371
    C            2.699477360520     0.064328314713    -0.056586248918
    C            1.248574206419    -0.003684372222     0.346878214818
    O            3.349594683321    -1.030016578470     0.305213065854
    C            0.449904725596     1.231376679971    -0.050764652639
    H            0.843109795959    -0.908060804510    -0.090493624572
    H            1.222836595208    -0.156123257134     1.421334655468
    C           -0.999975356865     1.212855641469     0.435435652392
    H            0.474181729299     1.341607418592    -1.129357715500
    H            0.946541762088     2.106737064510     0.349417444419
    C           -1.883994499064     0.143526330052    -0.204422082879
    H           -1.434318474065     2.187418945057     0.233271757791
    H           -1.017409033054     1.094437306607     1.516592857883
    C           -3.345437849073     0.243925566714     0.224697789655
    H           -1.821716419807     0.233477727575    -1.286533696559
    H           -1.512677591993    -0.846738153660     0.042801213376
    C           -4.232281279022    -0.840931803244    -0.379763670848
    H           -3.734745671244     1.220891780660    -0.051684719200
    H           -3.405380690068     0.189605200147     1.309312654063
    C           -5.693319779938    -0.725552694731     0.042624172445
    H           -4.166506369396    -0.795465960782    -1.463605572758
    H           -3.850935882359    -1.817330543653    -0.092828827787
    H           -6.294418422345    -1.509821582512    -0.403016614187
    H           -6.114693825585     0.227025081917    -0.261491848198
    H           -5.796453198156    -0.801923590255     1.120141734245
    C            4.724881653741    -1.102307477870    -0.011590914284
    H            4.873778977624    -1.044967247183    -1.079680802843
    H            5.066654962712    -2.054265509706     0.361119541494
    H            5.268493198017    -0.299120623146     0.463451653405

  Mulliken Charges: (a.u.)
   Center  Symbol    Alpha    Beta     Spin     Total
       1     O     4.19700  4.19700  0.00000 -0.39401
       2     C     2.80488  2.80488  0.00000  0.39025
       3     C     3.10163  3.10163  0.00000 -0.20326
       4     O     4.14722  4.14722  0.00000 -0.29445
       5     C     3.09264  3.09264  0.00000 -0.18528
       6     H     0.43903  0.43903  0.00000  0.12193
       7     H     0.43994  0.43994  0.00000  0.12012
       8     C     3.10387  3.10387  0.00000 -0.20774
       9     H     0.44622  0.44622  0.00000  0.10755
      10     H     0.43958  0.43958  0.00000  0.12083
      11     C     3.09288  3.09288  0.00000 -0.18576
      12     H     0.44542  0.44542  0.00000  0.10916
      13     H     0.45375  0.45375  0.00000  0.09251
      14     C     3.08599  3.08599  0.00000 -0.17198
      15     H     0.45301  0.45301  0.00000  0.09398
      16     H     0.45410  0.45410  0.00000  0.09180
      17     C     3.08337  3.08337  0.00000 -0.16675
      18     H     0.45371  0.45371  0.00000  0.09258
      19     H     0.45508  0.45508  0.00000  0.08983
      20     C     3.15052  3.15052  0.00000 -0.30104
      21     H     0.45455  0.45455  0.00000  0.09091
      22     H     0.45506  0.45506  0.00000  0.08989
      23     H     0.44834  0.44834  0.00000  0.10331
      24     H     0.45497  0.45497  0.00000  0.09006
      25     H     0.45526  0.45526  0.00000  0.08948
      26     C     3.03812  3.03812  0.00000 -0.07623
      27     H     0.45434  0.45434  0.00000  0.09133
      28     H     0.44528  0.44528  0.00000  0.10944
      29     H     0.45424  0.45424  0.00000  0.09152

   Total alpha = 44.00000, Total beta = 44.00000, Total charge = -0.00000

*** Psi4 exiting successfully. Buy a developer a beer!
