  ==> Input File <==

--------------------------------------------------------------------------
set {
	reference rhf
	basis 6-31G*
}

set_num_threads( 1 )
memory 2 gb

molecule MOL {
0 1

O	 -2.476295	 -0.965155	 -0.256495
C	 -1.921153	 0.064240	 -0.045697
C	 -2.572637	 1.420077	 -0.085956
O	 -0.632575	 0.154573	 0.251549
H	 -2.080862	 2.040863	 -0.826044
H	 -3.618979	 1.312446	 -0.329716
H	 -2.463523	 1.907386	 0.876011
C	 0.160891	 -1.019931	 0.106212
C	 1.589627	 -0.672828	 0.480843
H	 0.089836	 -1.367806	 -0.916050
H	 -0.238459	 -1.792301	 0.749618
C	 2.246377	 0.346236	 -0.452210
H	 2.163194	 -1.597435	 0.473358
H	 1.604769	 -0.303424	 1.502885
C	 3.691736	 0.652107	 -0.061850
H	 2.219579	 -0.032311	 -1.472055
H	 1.666466	 1.263317	 -0.447249
H	 4.134505	 1.377213	 -0.737283
H	 4.305508	 -0.243868	 -0.089969
H	 3.748266	 1.059562	 0.943567

	symmetry c1
}
set optking {
	frozen_dihedral = ("
		16 12 9 8,
		2 4 8 10,
		12 9 8 10
	")
}

ee = energy('scf')
oeprop('DIPOLE', 'QUADRUPOLE', 'MULLIKEN_CHARGES')
f=open( 'psi4out.xyz', 'w' )
f.write( "20  " )
f.write( str(ee) + "\n" )
f.write( MOL.save_string_xyz() )
f.close()
--------------------------------------------------------------------------

    Molecular point group: c1

    Geometry (in Angstrom), charge = 0, multiplicity = 1:

       Center              X                  Y                   Z               Mass
    ------------   -----------------  -----------------  -----------------  -----------------
           O         -2.478297922845    -0.966581722188    -0.247380290181    15.994914619560
           C         -1.923155922845     0.062813277812    -0.036582290181    12.000000000000
           C         -2.574639922845     1.418650277812    -0.076841290181    12.000000000000
           O         -0.634577922845     0.153146277812     0.260663709819    15.994914619560
           H         -2.082864922845     2.039436277812    -0.816929290181     1.007825032070
           H         -3.620981922845     1.311019277812    -0.320601290181     1.007825032070
           H         -2.465525922845     1.905959277812     0.885125709819     1.007825032070
           C          0.158888077155    -1.021357722188     0.115326709819    12.000000000000
           C          1.587624077155    -0.674254722188     0.489957709819    12.000000000000
           H          0.087833077155    -1.369232722188    -0.906935290181     1.007825032070
           H         -0.240461922845    -1.793727722188     0.758732709819     1.007825032070
           C          2.244374077155     0.344809277812    -0.443095290181    12.000000000000
           H          2.161191077155    -1.598861722188     0.482472709819     1.007825032070
           H          1.602766077155    -0.304850722188     1.511999709819     1.007825032070
           C          3.689733077155     0.650680277812    -0.052735290181    12.000000000000
           H          2.217576077155    -0.033737722188    -1.462940290181     1.007825032070
           H          1.664463077155     1.261890277812    -0.438134290181     1.007825032070
           H          4.132502077155     1.375786277812    -0.728168290181     1.007825032070
           H          4.303505077155    -0.245294722188    -0.080854290181     1.007825032070
           H          3.746263077155     1.058135277812     0.952681709819     1.007825032070

  Charge       = 0
  Multiplicity = 1
  Basis Set: 6-31G*
  Basis Set:

    Orbital Energies (a.u.)
    -----------------------

    Doubly Occupied:

       1A    -20.601228     2A    -20.544388     3A    -11.374633
       4A    -11.282647     5A    -11.233485     6A    -11.225650
       7A    -11.220892     8A    -11.213642     9A     -1.467844
      10A     -1.362330    11A     -1.086174    12A     -1.028299
      13A     -0.981627    14A     -0.880357    15A     -0.811584
      16A     -0.775449    17A     -0.690247    18A     -0.683392
      19A     -0.665906    20A     -0.632037    21A     -0.601399
      22A     -0.592886    23A     -0.571820    24A     -0.553879
      25A     -0.544632    26A     -0.527526    27A     -0.513753
      28A     -0.483269    29A     -0.475218    30A     -0.472803
      31A     -0.448798    32A     -0.438436

  @DF-RHF Final Energy:  -383.94504461926675

   => Energetics <=

    Nuclear Repulsion Energy =            385.2397408086463315
    One-Electron Energy =               -1286.3971156208353932
    Two-Electron Energy =                 517.2123301929218542
    DFT Exchange-Correlation Energy =       0.0000000000000000
    Empirical Dispersion Energy =           0.0000000000000000
    PCM Polarization Energy =               0.0000000000000000
    EFP Energy =                            0.0000000000000000
    Total Energy =                       -383.9450446192672644

  Mulliken Charges: (a.u.)
   Center  Symbol    Alpha    Beta     Spin     Total
       1     O     4.28271  4.28271  0.00000 -0.56543
       2     C     2.61910  2.61910  0.00000  0.76181
       3     C     3.28181  3.28181  0.00000 -0.56363
       4     O     4.30880  4.30880  0.00000 -0.61760
       5     H     0.40117  0.40117  0.00000  0.19767
       6     H     0.39694  0.39694  0.00000  0.20612
       7     H     0.40029  0.40029  0.00000  0.19943
       8     C     3.00285  3.00285  0.00000 -0.00570
       9     C     3.16480  3.16480  0.00000 -0.32960
      10     H     0.41286  0.41286  0.00000  0.17427
      11     H     0.40611  0.40611  0.00000  0.18778
      12     C     3.15512  3.15512  0.00000 -0.31024
      13     H     0.41823  0.41823  0.00000  0.16354
      14     H     0.41399  0.41399  0.00000  0.17202
      15     C     3.24037  3.24037  0.00000 -0.48074
      16     H     0.42323  0.42323  0.00000  0.15354
      17     H     0.41195  0.41195  0.00000  0.17610
      18     H     0.41762  0.41762  0.00000  0.16476
      19     H     0.42162  0.42162  0.00000  0.15676
      20     H     0.42043  0.42043  0.00000  0.15915

   Total alpha = 32.00000, Total beta = 32.00000, Total charge =  0.00000
