                              Psi4 1.0.54 Driver

  ==> Input File <==

--------------------------------------------------------------------------
set {
	reference rhf
	basis cc-pvtz
}

set_num_threads( 4 )
memory 2 gb

molecule MOL {
0 1

H	 -3.268214	 -0.875720	 0.463107
C	 -2.806015	 0.000007	 0.024886
N	 -1.391133	 0.000016	 0.301321
H	 -3.029448	 0.000055	 -1.045738
H	 -3.268126	 0.875758	 0.463150
C	 -1.103616	 -0.232412	 1.700209
C	 -0.739302	 1.204690	 -0.164950
H	 -1.523737	 0.557146	 2.330245
H	 -1.559561	 -1.168176	 2.001116
C	 0.393479	 -0.307331	 1.934954
H	 -0.929276	 1.318070	 -1.225679
H	 -1.134585	 2.092214	 0.337942
C	 0.757793	 1.129771	 0.069794
H	 0.583452	 -0.420712	 2.995682
H	 0.788762	 -1.194855	 1.432061
N	 1.045310	 0.897343	 1.468682
H	 1.213738	 2.065535	 -0.231112
H	 1.177914	 0.340212	 -0.560241
C	 2.460192	 0.897352	 1.745117
H	 2.629002	 0.782874	 2.808584
H	 2.896765	 1.839339	 1.437504
H	 2.993481	 0.093463	 1.229827

	symmetry c1
}
set optking {
	frozen_dihedral = ("
		6 3 2 4
	")
}

ee,wfn = optimize('scf', return_wfn=True)
oeprop( wfn, 'DIPOLE', 'QUADRUPOLE', 'MULLIKEN_CHARGES')
f=open( 'psi4out.xyz', 'w' )
f.write( "22  " )
f.write( str(ee) + "\n" )
f.write( MOL.save_string_xyz() )
f.close()
--------------------------------------------------------------------------

    Molecular point group: c1
  Charge       = 0
  Multiplicity = 1
  Basis Set: CC-PVTZ
  Basis Set:
  @DF-RHF Final Energy:  -344.34981191764331
    Total Energy =                       -344.3498119176431373
    Molecular point group: c1
  Basis Set: CC-PVTZ
  Basis Set:
  Basis Set: CC-PVTZ
  Basis Set:
  @DF-RHF Final Energy:  -344.35048585122206
    Total Energy =                       -344.3504858512222881
  Basis Set: CC-PVTZ
  Basis Set:
  Basis Set: CC-PVTZ
  Basis Set:
  @DF-RHF Final Energy:  -344.35056582123502
    Total Energy =                       -344.3505658212349090
  Basis Set: CC-PVTZ
  Basis Set:
  Charge       = 0
  Multiplicity = 1
  Basis Set: CC-PVTZ
  Basis Set:

    Orbital Energies (a.u.)
    -----------------------

    Doubly Occupied:

       1A    -15.537682     2A    -15.537233     3A    -11.237610
       4A    -11.237569     5A    -11.236955     6A    -11.236922
       7A    -11.234311     8A    -11.234258     9A     -1.257506
      10A     -1.206516    11A     -1.026074    12A     -0.993082
      13A     -0.912289    14A     -0.868355    15A     -0.836287
      16A     -0.755221    17A     -0.667007    18A     -0.638529
      19A     -0.632317    20A     -0.627439    21A     -0.623438
      22A     -0.582574    23A     -0.549619    24A     -0.547118
      25A     -0.542705    26A     -0.517957    27A     -0.496515
      28A     -0.491122    29A     -0.466712    30A     -0.457509
      31A     -0.352627    32A     -0.347172

  @DF-RHF Final Energy:  -344.35056661489432

   => Energetics <=

    Nuclear Repulsion Energy =            421.9940197824151937
    One-Electron Energy =               -1302.9127056283707589
    Two-Electron Energy =                 536.5681192310615870
    DFT Exchange-Correlation Energy =       0.0000000000000000
    Empirical Dispersion Energy =           0.0000000000000000
    PCM Polarization Energy =               0.0000000000000000
    EFP Energy =                            0.0000000000000000
    Total Energy =                       -344.3505666148939781
    Molecular point group: c1
  Basis Set: CC-PVTZ
  Basis Set:

  -Total Gradient:
     Atom            X                  Y                   Z
    ------   -----------------  -----------------  -----------------
       1        0.000041333901    -0.000009687913     0.000008500382
       2       -0.000038934896     0.001404671411    -0.000028888194
       3       -0.000012702636     0.001030263561     0.000220565962
       4        0.000055767824    -0.001416568543     0.000000333412
       5        0.000020647154     0.000004157154     0.000007232243
       6       -0.000013511312    -0.001036200347    -0.000067166004
       7       -0.000013323583     0.000056774056    -0.000015109931
       8        0.000000982464    -0.000003259607    -0.000026021517
       9       -0.000010655556    -0.000008773048    -0.000013792000
      10       -0.000020224638     0.000005481390    -0.000101159308
      11       -0.000002317942    -0.000001885550    -0.000006344238
      12        0.000008979644    -0.000020280050    -0.000000810490
      13       -0.000025793808    -0.000015546818     0.000015611899
      14       -0.000030466753     0.000003959274    -0.000012174218
      15        0.000012903038    -0.000014527881     0.000001925212
      16        0.000014427288     0.000015502069     0.000008094286
      17        0.000000703021     0.000000765914     0.000004598823
      18       -0.000000883980    -0.000000558539     0.000003316961
      19        0.000009215470     0.000006942751    -0.000002165600
      20        0.000001004260     0.000000133948     0.000000340015
      21        0.000004116493    -0.000000409686     0.000002551149
      22       -0.000001265459    -0.000000953546     0.000000561155

  **** Optimization is complete! (in 4 steps) ****
    Final optimized geometry and variables:
    Molecular point group: c1

    Geometry (in Angstrom), charge = 0, multiplicity = 1:

    H           -3.077375400089    -1.369630089105    -0.453909556364
    C           -2.634145695718    -0.465039898498    -0.851195884458
    N           -1.220230355125    -0.451556711666    -0.572267827433
    H           -2.800867601971    -0.462995921253    -1.921493246037
    H           -3.163490610953     0.387850855382    -0.417644874106
    C           -0.923576313203    -0.685071483853     0.823995780654
    C           -0.575126834666     0.751801921551    -1.048464545620
    H           -1.343407044297     0.100059475903     1.460084591053
    H           -1.371330734082    -1.624550676246     1.125185875276
    C            0.575765860002    -0.751648282119     1.047841243087
    H           -0.772315855659     0.859375196832    -2.108734675094
    H           -0.970787474296     1.640537043060    -0.547876118133
    C            0.923517403168     0.683628459001    -0.821627536716
    H            0.773819162360    -0.863728738149     2.107287135645
    H            0.971805935682    -1.637609119515     0.542529200525
    N            1.218716033178     0.455690480833     0.576304432289
    H            1.374232823790     1.620514269679    -1.127168907634
    H            1.343763407960    -0.105817363293    -1.451848832300
    C            2.634659625172     0.464257545684     0.846341681920
    H            2.808909957669     0.353073792853     1.909335469044
    H            3.064709472744     1.407973344006     0.534670964729
    H            3.170347877212    -0.337820274674     0.330518411296

  Mulliken Charges: (a.u.)
   Center  Symbol    Alpha    Beta     Spin     Total
       1     H     0.45282  0.45282  0.00000  0.09436
       2     C     3.09837  3.09837  0.00000 -0.19673
       3     N     3.61308  3.61308  0.00000 -0.22616
       4     H     0.45147  0.45147  0.00000  0.09706
       5     H     0.46961  0.46961  0.00000  0.06078
       6     C     3.03472  3.03472  0.00000 -0.06945
       7     C     3.03554  3.03554  0.00000 -0.07108
       8     H     0.46869  0.46869  0.00000  0.06262
       9     H     0.45374  0.45374  0.00000  0.09252
      10     C     3.03563  3.03563  0.00000 -0.07126
      11     H     0.45393  0.45393  0.00000  0.09214
      12     H     0.46775  0.46775  0.00000  0.06450
      13     C     3.03540  3.03540  0.00000 -0.07079
      14     H     0.45384  0.45384  0.00000  0.09232
      15     H     0.46812  0.46812  0.00000  0.06376
      16     N     3.61310  3.61310  0.00000 -0.22621
      17     H     0.45379  0.45379  0.00000  0.09241
      18     H     0.46806  0.46806  0.00000  0.06387
      19     C     3.09839  3.09839  0.00000 -0.19679
      20     H     0.45193  0.45193  0.00000  0.09613
      21     H     0.45194  0.45194  0.00000  0.09613
      22     H     0.47007  0.47007  0.00000  0.05985

   Total alpha = 32.00000, Total beta = 32.00000, Total charge = -0.00000

*** Psi4 exiting successfully. Buy a developer a beer!
