  ==> Input File <==

--------------------------------------------------------------------------
set {
	reference rhf
	basis 6-31G*
}

set_num_threads( 4 )
memory 2 gb

molecule MOL {
0 1

H	 -3.892951	 0.981613	 -0.358725
C	 -3.196921	 0.361773	 0.172313
C	 -2.076860	 -0.007332	 -0.404944
H	 -3.439953	 0.057760	 1.173024
O	 -1.180634	 -0.819263	 0.215062
H	 -1.811520	 0.292194	 -1.403480
C	 0.051604	 -1.018856	 -0.387932
C	 1.043764	 0.054862	 -0.001873
H	 -0.017620	 -1.041351	 -1.469781
H	 0.437898	 -1.966374	 -0.042284
F	 1.030623	 1.015779	 -0.914162
F	 0.744098	 0.603754	 1.163780
F	 2.272502	 -0.412263	 0.078051

	symmetry c1
}
set optking {
	frozen_dihedral = ("
		11 8 7 9
	")
}

ee = optimize('scf')
oeprop('DIPOLE', 'QUADRUPOLE', 'MULLIKEN_CHARGES')
f=open( 'psi4out.xyz', 'w' )
f.write( "13  " )
f.write( str(ee) + "\n" )
f.write( MOL.save_string_xyz() )
f.close()
--------------------------------------------------------------------------

    Molecular point group: c1
  Charge       = 0
  Multiplicity = 1
  Basis Set: 6-31G*
  Basis Set:
  @DF-RHF Final Energy:  -527.53122638101195
    Total Energy =                       -527.5312263810125160
    Molecular point group: c1
  Basis Set: 6-31G*
  Basis Set:
  Basis Set: 6-31G*
  Basis Set:
  @DF-RHF Final Energy:  -527.53219907825837
    Total Energy =                       -527.5321990782584862
  Basis Set: 6-31G*
  Basis Set:
  Basis Set: 6-31G*
  Basis Set:
  @DF-RHF Final Energy:  -527.53241280508075
    Total Energy =                       -527.5324128050804120
  Basis Set: 6-31G*
  Basis Set:
  Basis Set: 6-31G*
  Basis Set:
  @DF-RHF Final Energy:  -527.53244070183098
    Total Energy =                       -527.5324407018310922
  Basis Set: 6-31G*
  Basis Set:
  @DF-RHF Final Energy:  -527.53245135222414
    Total Energy =                       -527.5324513522239158
  @DF-RHF Final Energy:  -527.53246451468885
    Total Energy =                       -527.5324645146886269
  Basis Set: 6-31G*
  Basis Set:
  @DF-RHF Final Energy:  -527.53247240481892
    Total Energy =                       -527.5324724048188045
  Basis Set: 6-31G*
  Basis Set:
  Basis Set: 6-31G*
  Basis Set:
  @DF-RHF Final Energy:  -527.53247716485635
    Total Energy =                       -527.5324771648562319
  Basis Set: 6-31G*
  Basis Set:
  Basis Set: 6-31G*
  Basis Set:
  @DF-RHF Final Energy:  -527.53247851295930
    Total Energy =                       -527.5324785129593010
  Basis Set: 6-31G*
  Basis Set:
  Charge       = 0
  Multiplicity = 1
  Basis Set: 6-31G*
  Basis Set:

    Orbital Energies (a.u.)
    -----------------------

    Doubly Occupied:

       1A    -26.342298     2A    -26.341719     3A    -26.341182
       4A    -20.606523     5A    -11.503298     6A    -11.318321
       7A    -11.298636     8A    -11.217893     9A     -1.741045
      10A     -1.639623    11A     -1.636091    12A     -1.436774
      13A     -1.080859    14A     -1.016174    15A     -0.924798
      16A     -0.835617    17A     -0.828750    18A     -0.820748
      19A     -0.792686    20A     -0.718309    21A     -0.712377
      22A     -0.693358    23A     -0.675130    24A     -0.660926
      25A     -0.654289    26A     -0.641870    27A     -0.633651
      28A     -0.584373    29A     -0.563682    30A     -0.522688
      31A     -0.509457    32A     -0.353960

  @DF-RHF Final Energy:  -527.53247928020357

   => Energetics <=

    Nuclear Repulsion Energy =            414.4418001319166933
    One-Electron Energy =               -1552.6543487200390246
    Two-Electron Energy =                 610.6800693079187567
    DFT Exchange-Correlation Energy =       0.0000000000000000
    Empirical Dispersion Energy =           0.0000000000000000
    PCM Polarization Energy =               0.0000000000000000
    EFP Energy =                            0.0000000000000000
    Total Energy =                       -527.5324792802036882
    Molecular point group: c1
  Basis Set: 6-31G*
  Basis Set:

  -Total Gradient:
     Atom            X                  Y                   Z
    ------   -----------------  -----------------  -----------------
       1        0.000002539180     0.000001855654     0.000001617407
       2        0.000001103692    -0.000004513590    -0.000005125559
       3       -0.000000640368     0.000010595682     0.000017125918
       4       -0.000000324366    -0.000002603542     0.000001186365
       5        0.000015864612    -0.000035908757    -0.000026422099
       6        0.000006558689     0.000001065373    -0.000004049458
       7        0.005771093047    -0.004407070072    -0.000847463203
       8       -0.004878563887     0.002896394317     0.002903084123
       9       -0.004006149704     0.003162137801     0.000148239851
      10        0.000034894917     0.000024767108     0.000007275446
      11        0.003180698093    -0.001707632480    -0.002183347413
      12       -0.000014463210     0.000026441555    -0.000045117535
      13       -0.000112610700     0.000034470949     0.000032996162

  **** Optimization is complete! (in 10 steps) ****
    Final optimized geometry and variables:
    Molecular point group: c1

    Geometry (in Angstrom), charge = 0, multiplicity = 1:

    H           -3.765437837403     1.056615149956    -0.334374947188
    C           -3.091553218659     0.398515237383     0.179102604496
    C           -2.030017248044    -0.065393923707    -0.438789342547
    H           -3.310901790426     0.130018745982     1.195385930532
    O           -1.175712009620    -0.943222879648     0.150098336656
    H           -1.788122492830     0.196433700543    -1.454941528446
    C            0.095521646552    -1.063825212479    -0.394847384874
    C            1.013624145351     0.080611975580     0.016931874381
    H            0.046194647726    -1.073573377189    -1.477877002489
    H            0.515556667639    -1.987451074999    -0.030055798498
    F            0.977542652581     1.074209234373    -0.860714561097
    F            0.719060268260     0.568491408143     1.199352850473
    F            2.268056014134    -0.348962472104     0.049222064490

  Mulliken Charges: (a.u.)
   Center  Symbol    Alpha    Beta     Spin     Total
       1     H     0.40672  0.40672  0.00000  0.18655
       2     C     3.23073  3.23073  0.00000 -0.46147
       3     C     2.90310  2.90310  0.00000  0.19379
       4     H     0.40109  0.40109  0.00000  0.19781
       5     O     4.29905  4.29905  0.00000 -0.59810
       6     H     0.40648  0.40648  0.00000  0.18704
       7     C     3.07089  3.07089  0.00000 -0.14177
       8     C     2.45292  2.45292  0.00000  1.09417
       9     H     0.40338  0.40338  0.00000  0.19323
      10     H     0.38733  0.38733  0.00000  0.22534
      11     F     4.68275  4.68275  0.00000 -0.36550
      12     F     4.67110  4.67110  0.00000 -0.34219
      13     F     4.68446  4.68446  0.00000 -0.36891

   Total alpha = 32.00000, Total beta = 32.00000, Total charge = -0.00000
