                              Psi4 1.0.54 Driver

  ==> Input File <==

--------------------------------------------------------------------------
set {
	reference rhf
	basis cc-pvtz
}

set_num_threads( 4 )
memory 2 gb

molecule MOL {
0 1

H	 -2.582661	 -0.415350	 0.287468
N	 -1.851927	 0.161443	 -0.071573
C	 -0.561396	 -0.500007	 0.035200
H	 -1.861761	 1.010710	 0.453770
C	 0.575129	 0.507849	 -0.048832
H	 -0.478089	 -1.200753	 -0.788956
H	 -0.456191	 -1.081816	 0.952176
C	 1.951750	 -0.141983	 0.035101
H	 0.478254	 1.061643	 -0.975981
H	 0.467676	 1.231891	 0.755499
H	 2.101550	 -0.848142	 -0.774949
H	 2.738260	 0.600794	 -0.026526
H	 2.078939	 -0.679792	 0.968824

	symmetry c1
}
set optking {
	frozen_dihedral = ("
		1 2 3 6
	")
}

ee,wfn = optimize('scf', return_wfn=True)
oeprop( wfn, 'DIPOLE', 'QUADRUPOLE', 'MULLIKEN_CHARGES')
f=open( 'psi4out.xyz', 'w' )
f.write( "13  " )
f.write( str(ee) + "\n" )
f.write( MOL.save_string_xyz() )
f.close()
--------------------------------------------------------------------------

    Molecular point group: c1
  Charge       = 0
  Multiplicity = 1
  Basis Set: CC-PVTZ
  Basis Set:
  @DF-RHF Final Energy:  -173.35141717643137
    Total Energy =                       -173.3514171764313687
    Molecular point group: c1
  Basis Set: CC-PVTZ
  Basis Set:
  Basis Set: CC-PVTZ
  Basis Set:
  @DF-RHF Final Energy:  -173.35148861382757
    Total Energy =                       -173.3514886138274846
  Basis Set: CC-PVTZ
  Basis Set:
  Basis Set: CC-PVTZ
  Basis Set:
  @DF-RHF Final Energy:  -173.35154642108378
    Total Energy =                       -173.3515464210838672
  Basis Set: CC-PVTZ
  Basis Set:
  Basis Set: CC-PVTZ
  Basis Set:
  @DF-RHF Final Energy:  -173.35154788140153
    Total Energy =                       -173.3515478814015296
  Basis Set: CC-PVTZ
  Basis Set:
  Charge       = 0
  Multiplicity = 1
  Basis Set: CC-PVTZ
  Basis Set:

    Orbital Energies (a.u.)
    -----------------------

    Doubly Occupied:

       1A    -15.526651     2A    -11.238171     3A    -11.213800
       4A    -11.208753     5A     -1.178593     6A     -1.037874
       7A     -0.899946     8A     -0.803386     9A     -0.650985
      10A     -0.642635    11A     -0.604173    12A     -0.561864
      13A     -0.538713    14A     -0.494513    15A     -0.477223
      16A     -0.469175    17A     -0.386074

  @DF-RHF Final Energy:  -173.35154798379057

   => Energetics <=

    Nuclear Repulsion Energy =            132.0827345325058673
    One-Electron Energy =                -495.0035082278375285
    Two-Electron Energy =                 189.5692257115410939
    DFT Exchange-Correlation Energy =       0.0000000000000000
    Empirical Dispersion Energy =           0.0000000000000000
    PCM Polarization Energy =               0.0000000000000000
    EFP Energy =                            0.0000000000000000
    Total Energy =                       -173.3515479837905673
    Molecular point group: c1
  Basis Set: CC-PVTZ
  Basis Set:

  -Total Gradient:
     Atom            X                  Y                   Z
    ------   -----------------  -----------------  -----------------
       1        0.000343576933     0.001252126337     0.002470134430
       2       -0.000179250195    -0.001162801805    -0.003435583782
       3       -0.001107152725    -0.001890645562     0.002487450732
       4       -0.000007740842     0.000019432371     0.000005747365
       5       -0.000004696196     0.000015408875     0.000006344709
       6        0.000946958498     0.001760955891    -0.001534622469
       7        0.000004906796     0.000003245234    -0.000004788078
       8        0.000000091572    -0.000005547774     0.000001193426
       9       -0.000000836962    -0.000000178339     0.000004304701
      10        0.000004863328     0.000010156551    -0.000001344017
      11       -0.000000191081    -0.000000402532     0.000002097463
      12       -0.000005441027    -0.000001318367    -0.000000962056
      13        0.000004911906    -0.000000430880     0.000000027575

  **** Optimization is complete! (in 5 steps) ****
    Final optimized geometry and variables:
    Molecular point group: c1

    Geometry (in Angstrom), charge = 0, multiplicity = 1:

    H           -2.561760488682    -0.510969906455     0.373677182346
    N           -1.861499228009     0.077827119690    -0.025726172900
    C           -0.540547168627    -0.524667568970     0.094952801713
    H           -1.897217665900     0.935585387134     0.485755135497
    C            0.549328033253     0.523005006880    -0.082031166870
    H           -0.431329075516    -1.264481532626    -0.691550932103
    H           -0.392967918024    -1.035673686679     1.045939400583
    C            1.953364363323    -0.069668703562    -0.047746041803
    H            0.386666459838     1.036531037770    -1.023897773202
    H            0.454859242761     1.272177517131     0.700810284529
    H            2.090821156126    -0.796454875450    -0.841153829778
    H            2.704863394850     0.700823638392    -0.172884236950
    H            2.147460111018    -0.569565680676     0.895401474117

  Mulliken Charges: (a.u.)
   Center  Symbol    Alpha    Beta     Spin     Total
       1     H     0.43180  0.43180  0.00000  0.13640
       2     N     3.68687  3.68687  0.00000 -0.37375
       3     C     3.01674  3.01674  0.00000 -0.03349
       4     H     0.43240  0.43240  0.00000  0.13521
       5     C     3.08225  3.08225  0.00000 -0.16450
       6     H     0.46033  0.46033  0.00000  0.07933
       7     H     0.46978  0.46978  0.00000  0.06044
       8     C     3.15194  3.15194  0.00000 -0.30389
       9     H     0.44856  0.44856  0.00000  0.10289
      10     H     0.46096  0.46096  0.00000  0.07808
      11     H     0.45408  0.45408  0.00000  0.09183
      12     H     0.44777  0.44777  0.00000  0.10446
      13     H     0.45650  0.45650  0.00000  0.08700

   Total alpha = 17.00000, Total beta = 17.00000, Total charge = -0.00000

*** Psi4 exiting successfully. Buy a developer a beer!
