  ==> Input File <==

--------------------------------------------------------------------------
set {
	reference rhf
	basis 6-31G*
}

set_num_threads( 4 )
memory 2 gb

molecule MOL {
0 1

O	 0.598798	 1.319843	 0.278479
C	 0.486307	 0.169203	 0.000779
C	 1.608116	 -0.841643	 0.000302
O	 -0.663426	 -0.387303	 -0.354214
C	 2.990107	 -0.200498	 -0.000684
H	 1.468623	 -1.481519	 -0.865924
H	 1.469683	 -1.481289	 0.866878
H	 3.129736	 0.423364	 -0.875135
H	 3.757882	 -0.966877	 -0.001197
H	 3.130964	 0.423383	 0.873533
C	 -1.813730	 0.450664	 -0.399090
C	 -2.984526	 -0.408353	 -0.827619
H	 -1.634513	 1.258360	 -1.095576
H	 -1.972627	 0.884080	 0.578915
H	 -2.807551	 -0.839391	 -1.806417
H	 -3.886332	 0.193415	 -0.875263
H	 -3.147645	 -1.215730	 -0.122785

	symmetry c1
}
set optking {
	frozen_dihedral = ("
		4 2 3 6
	")
}

ee = optimize('scf')
oeprop('DIPOLE', 'QUADRUPOLE', 'MULLIKEN_CHARGES')
f=open( 'psi4out.xyz', 'w' )
f.write( "17  " )
f.write( str(ee) + "\n" )
f.write( MOL.save_string_xyz() )
f.close()
--------------------------------------------------------------------------

    Molecular point group: c1
  Charge       = 0
  Multiplicity = 1
  Basis Set: 6-31G*
  Basis Set:
  @DF-RHF Final Energy:  -344.91165259645641
    Total Energy =                       -344.9116525964565199
    Molecular point group: c1
  Basis Set: 6-31G*
  Basis Set:
  Basis Set: 6-31G*
  Basis Set:
  @DF-RHF Final Energy:  -344.91159750769032
    Total Energy =                       -344.9115975076904306
  Basis Set: 6-31G*
  Basis Set:
  Basis Set: 6-31G*
  Basis Set:
  @DF-RHF Final Energy:  -344.91159405085631
    Total Energy =                       -344.9115940508567064
  Basis Set: 6-31G*
  Basis Set:
  Basis Set: 6-31G*
  Basis Set:
  @DF-RHF Final Energy:  -344.91174396443603
    Total Energy =                       -344.9117439644361411
  Basis Set: 6-31G*
  Basis Set:
  Charge       = 0
  Multiplicity = 1
  Basis Set: 6-31G*
  Basis Set:

    Orbital Energies (a.u.)
    -----------------------

    Doubly Occupied:

       1A    -20.601350     2A    -20.543776     3A    -11.371301
       4A    -11.284797     5A    -11.237395     6A    -11.222363
       7A    -11.216378     8A     -1.467670     9A     -1.361724
      10A     -1.069953    11A     -1.031904    12A     -0.910704
      13A     -0.847766    14A     -0.773162    15A     -0.695242
      16A     -0.689325    17A     -0.664675    18A     -0.628696
      19A     -0.582977    20A     -0.573014    21A     -0.558103
      22A     -0.523886    23A     -0.521069    24A     -0.513347
      25A     -0.504413    26A     -0.492028    27A     -0.452652
      28A     -0.435677

  @DF-RHF Final Energy:  -344.91174385119882

   => Energetics <=

    Nuclear Repulsion Energy =            314.6902097848441144
    One-Electron Energy =               -1093.6532172042443563
    Two-Electron Energy =                 434.0512635682015912
    DFT Exchange-Correlation Energy =       0.0000000000000000
    Empirical Dispersion Energy =           0.0000000000000000
    PCM Polarization Energy =               0.0000000000000000
    EFP Energy =                            0.0000000000000000
    Total Energy =                       -344.9117438511986506
    Molecular point group: c1
  Basis Set: 6-31G*
  Basis Set:

  -Total Gradient:
     Atom            X                  Y                   Z
    ------   -----------------  -----------------  -----------------
       1        0.000001912717    -0.000021225026    -0.000079153926
       2       -0.000253488843    -0.000241651145     0.001011964568
       3        0.000601777540     0.000688700050    -0.000635970011
       4        0.000146287704     0.000128431973    -0.000785381374
       5       -0.000013131701    -0.000011534850    -0.000073538335
       6       -0.000451189979    -0.000471646092     0.000426897566
       7       -0.000014002884    -0.000029290366     0.000000071699
       8        0.000009841055     0.000007493215     0.000003072092
       9       -0.000002006867    -0.000002716736    -0.000006719846
      10       -0.000021356156    -0.000014915166     0.000003382279
      11       -0.000052043999    -0.000105514551     0.000410234298
      12        0.000020622482     0.000027543756    -0.000115396053
      13        0.000059145048     0.000020390063    -0.000065682865
      14       -0.000035040414     0.000023014530    -0.000082062331
      15       -0.000029820055    -0.000026860901    -0.000012482515
      16        0.000002120636     0.000003069397    -0.000011095724
      17        0.000030373719     0.000026711850     0.000011860478

  **** Optimization is complete! (in 5 steps) ****
    Final optimized geometry and variables:
    Molecular point group: c1

    Geometry (in Angstrom), charge = 0, multiplicity = 1:

    O            0.584838260028     1.300309839823     0.445916361119
    C            0.469898235793     0.149178296385     0.170494379375
    C            1.590515494551    -0.863202349236     0.183566777126
    O           -0.682469314742    -0.406932869302    -0.175186135586
    C            2.973037852687    -0.222539586763     0.206097459154
    H            1.462724688723    -1.522158069583    -0.667764613778
    H            1.439269006549    -1.483404800703     1.064067363822
    H            3.139130486654     0.379533717509    -0.679973796182
    H            3.740074875423    -0.988619205586     0.243867877851
    H            3.087397205144     0.421661155913     1.068422125191
    C           -1.836449928549     0.427063090212    -0.190776677916
    C           -3.008178378023    -0.427651691583    -0.625373870235
    H           -1.666930833157     1.249273399351    -0.872443003572
    H           -1.987211685903     0.840094032476     0.797289523765
    H           -2.839117009477    -0.838321254940    -1.614316278850
    H           -3.912561419917     0.171528005371    -0.652362981134
    H           -3.161586030904    -1.249616625714     0.064580724242

  Mulliken Charges: (a.u.)
   Center  Symbol    Alpha    Beta     Spin     Total
       1     O     4.28662  4.28662  0.00000 -0.57325
       2     C     2.60484  2.60484  0.00000  0.79032
       3     C     3.20581  3.20581  0.00000 -0.41163
       4     O     4.31309  4.31309  0.00000 -0.62618
       5     C     3.23991  3.23991  0.00000 -0.47982
       6     H     0.40092  0.40092  0.00000  0.19815
       7     H     0.40043  0.40043  0.00000  0.19914
       8     H     0.41313  0.41313  0.00000  0.17375
       9     H     0.41778  0.41778  0.00000  0.16445
      10     H     0.40620  0.40620  0.00000  0.18759
      11     C     3.00241  3.00241  0.00000 -0.00481
      12     C     3.24845  3.24845  0.00000 -0.49691
      13     H     0.40971  0.40971  0.00000  0.18058
      14     H     0.41069  0.41069  0.00000  0.17862
      15     H     0.41181  0.41181  0.00000  0.17637
      16     H     0.41628  0.41628  0.00000  0.16744
      17     H     0.41191  0.41191  0.00000  0.17618

   Total alpha = 28.00000, Total beta = 28.00000, Total charge = -0.00000
