  ==> Input File <==

--------------------------------------------------------------------------
set {
	reference rhf
	basis 6-31G*
}

set_num_threads( 4 )
memory 2 gb

molecule MOL {
0 1

H	 -3.161837	 0.500524	 -0.000234
C	 -2.367097	 -0.232926	 -0.000000
O	 -1.158440	 0.455814	 -0.000122
H	 -2.468853	 -0.861886	 -0.882833
H	 -2.468942	 -0.861421	 0.883154
C	 -0.029776	 -0.365156	 0.000148
C	 0.776046	 -0.090250	 1.257820
H	 0.575076	 -0.172074	 -0.886854
H	 -0.328277	 -1.413704	 -0.036629
C	 2.037159	 -0.948845	 1.343203
H	 1.037826	 0.963230	 1.275500
H	 0.140866	 -0.269749	 2.119810
H	 2.698887	 -0.766172	 0.501080
H	 2.592207	 -0.732523	 2.249830
H	 1.795601	 -2.008089	 1.350679

	symmetry c1
}
set optking {
	frozen_dihedral = ("
		8 6 3 2
	")
}

ee = optimize('scf')
oeprop('DIPOLE', 'QUADRUPOLE', 'MULLIKEN_CHARGES')
f=open( 'psi4out.xyz', 'w' )
f.write( "15  " )
f.write( str(ee) + "\n" )
f.write( MOL.save_string_xyz() )
f.close()
--------------------------------------------------------------------------

    Molecular point group: c1
  Charge       = 0
  Multiplicity = 1
  Basis Set: 6-31G*
  Basis Set:
  @DF-RHF Final Energy:  -232.13506107759605
    Total Energy =                       -232.1350610775961627
    Molecular point group: c1
  Basis Set: 6-31G*
  Basis Set:
  Basis Set: 6-31G*
  Basis Set:
  @DF-RHF Final Energy:  -232.13546962371305
    Total Energy =                       -232.1354696237129929
  Basis Set: 6-31G*
  Basis Set:
  Basis Set: 6-31G*
  Basis Set:
  @DF-RHF Final Energy:  -232.13557139038633
    Total Energy =                       -232.1355713903864739
  Basis Set: 6-31G*
  Basis Set:
  Basis Set: 6-31G*
  Basis Set:
  @DF-RHF Final Energy:  -232.13557291988181
    Total Energy =                       -232.1355729198817244
  Basis Set: 6-31G*
  Basis Set:
  Charge       = 0
  Multiplicity = 1
  Basis Set: 6-31G*
  Basis Set:

    Orbital Energies (a.u.)
    -----------------------

    Doubly Occupied:

       1A    -20.549966     2A    -11.265881     3A    -11.264841
       4A    -11.214167     5A    -11.213090     6A     -1.373148
       7A     -1.056219     8A     -0.956448     9A     -0.879326
      10A     -0.808115    11A     -0.669657    12A     -0.652639
      13A     -0.634926    14A     -0.599960    15A     -0.569054
      16A     -0.538653    17A     -0.505989    18A     -0.494066
      19A     -0.481092    20A     -0.461892    21A     -0.404068

  @DF-RHF Final Energy:  -232.13557304826139

   => Energetics <=

    Nuclear Repulsion Energy =            190.0846475902158659
    One-Electron Energy =                -691.2540458667938310
    Two-Electron Energy =                 269.0338252283165730
    DFT Exchange-Correlation Energy =       0.0000000000000000
    Empirical Dispersion Energy =           0.0000000000000000
    PCM Polarization Energy =               0.0000000000000000
    EFP Energy =                            0.0000000000000000
    Total Energy =                       -232.1355730482613922
    Molecular point group: c1
  Basis Set: 6-31G*
  Basis Set:

  -Total Gradient:
     Atom            X                  Y                   Z
    ------   -----------------  -----------------  -----------------
       1        0.000003796141    -0.000003773752     0.000001538225
       2       -0.000005778696    -0.000009472309     0.000040275119
       3        0.000046260922     0.000018606928    -0.000046030506
       4       -0.000002913237    -0.000003620760     0.000001320418
       5        0.000000528301     0.000001322548    -0.000003943920
       6       -0.000076742276    -0.000016061238    -0.000016027095
       7       -0.000014113111    -0.000013302029    -0.000010863545
       8        0.000033896448     0.000034485915     0.000024707095
       9        0.000001414970    -0.000014437346     0.000002552484
      10        0.000010887691     0.000017294999    -0.000000789439
      11        0.000002749445    -0.000003578897     0.000005170971
      12       -0.000005005881     0.000000171451    -0.000003718677
      13       -0.000002892011    -0.000007984889    -0.000000204794
      14        0.000010056935    -0.000003320567     0.000001438489
      15       -0.000002145638     0.000003669946     0.000004575177

  **** Optimization is complete! (in 5 steps) ****
    Final optimized geometry and variables:
    Molecular point group: c1

    Geometry (in Angstrom), charge = 0, multiplicity = 1:

    H           -2.987883217499     0.790954593586    -0.534095375169
    C           -2.217756280203     0.031427403661    -0.533173535125
    O           -0.988234447923     0.684387446530    -0.527751064884
    H           -2.339926747985    -0.589861333788    -1.418085265941
    H           -2.346365612432    -0.594087570366     0.348112781481
    C            0.145392802976    -0.140685873889    -0.485888789749
    C            0.962381867517     0.143481730840     0.766334934501
    H            0.741511125583     0.052021310831    -1.373808777573
    H           -0.142338280788    -1.189472382636    -0.513610559897
    C            2.243118623498    -0.687564515346     0.831725359985
    H            1.201583376650     1.202354904161     0.785740076975
    H            0.344622381902    -0.051805211422     1.638917214446
    H            2.886286244844    -0.489365796738    -0.021194797986
    H            2.808943365412    -0.460991814218     1.729223451586
    H            2.025496898588    -1.752249731453     0.840563998931

  Mulliken Charges: (a.u.)
   Center  Symbol    Alpha    Beta     Spin     Total
       1     H     0.41307  0.41307  0.00000  0.17386
       2     C     3.07901  3.07901  0.00000 -0.15802
       3     O     4.30896  4.30896  0.00000 -0.61792
       4     H     0.42960  0.42960  0.00000  0.14081
       5     H     0.43101  0.43101  0.00000  0.13799
       6     C     2.98543  2.98543  0.00000  0.02914
       7     C     3.15777  3.15777  0.00000 -0.31555
       8     H     0.42305  0.42305  0.00000  0.15390
       9     H     0.43186  0.43186  0.00000  0.13627
      10     C     3.24892  3.24892  0.00000 -0.49784
      11     H     0.41364  0.41364  0.00000  0.17272
      12     H     0.42027  0.42027  0.00000  0.15947
      13     H     0.42010  0.42010  0.00000  0.15980
      14     H     0.41555  0.41555  0.00000  0.16890
      15     H     0.42176  0.42176  0.00000  0.15648

   Total alpha = 21.00000, Total beta = 21.00000, Total charge = -0.00000
