  ==> Input File <==

--------------------------------------------------------------------------
set {
	reference rhf
	basis 6-31G*
}

set_num_threads( 4 )
memory 2 gb

molecule MOL {
0 1

H	 -2.365627	 -1.312883	 -0.379134
C	 -1.358347	 -1.274295	 0.019669
C	 -0.681945	 0.000119	 -0.470601
H	 -0.826096	 -2.155117	 -0.321105
H	 -1.409554	 -1.292283	 1.100109
C	 -1.357790	 1.274691	 0.020220
N	 0.739525	 -0.000142	 0.006128
H	 -0.594190	 0.000341	 -1.545128
H	 -2.364980	 1.313977	 -0.378631
H	 -0.825080	 2.155361	 -0.320114
H	 -1.409060	 1.292170	 1.100671
O	 1.375949	 -0.993755	 -0.162036
O	 1.143876	 0.996478	 0.524442

	symmetry c1
}
set optking {
	frozen_dihedral = ("
		12 7 3 8
	")
}

ee = optimize('scf')
oeprop('DIPOLE', 'QUADRUPOLE', 'MULLIKEN_CHARGES')
f=open( 'psi4out.xyz', 'w' )
f.write( "13  " )
f.write( str(ee) + "\n" )
f.write( MOL.save_string_xyz() )
f.close()
--------------------------------------------------------------------------

    Molecular point group: c1
  Charge       = 0
  Multiplicity = 1
  Basis Set: 6-31G*
  Basis Set:
  @DF-RHF Final Energy:  -321.73650450902750
    Total Energy =                       -321.7365045090274407
    Molecular point group: c1
  Basis Set: 6-31G*
  Basis Set:
  Basis Set: 6-31G*
  Basis Set:
  @DF-RHF Final Energy:  -321.73639312827027
    Total Energy =                       -321.7363931282704925
  Basis Set: 6-31G*
  Basis Set:
  Basis Set: 6-31G*
  Basis Set:
  @DF-RHF Final Energy:  -321.73376461999214
    Total Energy =                       -321.7337646199921437
  Basis Set: 6-31G*
  Basis Set:
  Basis Set: 6-31G*
  Basis Set:
  @DF-RHF Final Energy:  -321.73723930116194
    Total Energy =                       -321.7372393011619351
  Basis Set: 6-31G*
  Basis Set:
  @DF-RHF Final Energy:  -321.73732736355186
    Total Energy =                       -321.7373273635520263
  Basis Set: 6-31G*
  Basis Set:
  @DF-RHF Final Energy:  -321.73744846910137
    Total Energy =                       -321.7374484691013095
  Basis Set: 6-31G*
  Basis Set:
  Basis Set: 6-31G*
  Basis Set:
  @DF-RHF Final Energy:  -321.73745275987932
    Total Energy =                       -321.7374527598793179
  Basis Set: 6-31G*
  Basis Set:
  Basis Set: 6-31G*
  Basis Set:
  @DF-RHF Final Energy:  -321.73745389398516
    Total Energy =                       -321.7374538939851050
  Basis Set: 6-31G*
  Basis Set:
  Charge       = 0
  Multiplicity = 1
  Basis Set: 6-31G*
  Basis Set:

    Orbital Energies (a.u.)
    -----------------------

    Doubly Occupied:

       1A    -20.602122     2A    -20.596919     3A    -15.844485
       4A    -11.308394     5A    -11.243597     6A    -11.240234
       7A     -1.629485     8A     -1.414368     9A     -1.141464
      10A     -0.968662    11A     -0.958997    12A     -0.812706
      13A     -0.761633    14A     -0.725168    15A     -0.720273
      16A     -0.640558    17A     -0.594959    18A     -0.586240
      19A     -0.571124    20A     -0.523750    21A     -0.521725
      22A     -0.480501    23A     -0.471801    24A     -0.447174

  @DF-RHF Final Energy:  -321.73745392387235

   => Energetics <=

    Nuclear Repulsion Energy =            256.7178229805497836
    One-Electron Energy =                -947.2978726517688983
    Two-Electron Energy =                 368.8425957473467065
    DFT Exchange-Correlation Energy =       0.0000000000000000
    Empirical Dispersion Energy =           0.0000000000000000
    PCM Polarization Energy =               0.0000000000000000
    EFP Energy =                            0.0000000000000000
    Total Energy =                       -321.7374539238723514
    Molecular point group: c1
  Basis Set: 6-31G*
  Basis Set:

  -Total Gradient:
     Atom            X                  Y                   Z
    ------   -----------------  -----------------  -----------------
       1        0.000002869890     0.000000631701    -0.000001245359
       2        0.000003185625     0.000000842414     0.000006137650
       3       -0.000147719475    -0.001505728486     0.000352865634
       4        0.000001597993    -0.000000746824     0.000001809639
       5       -0.000000905804    -0.000001746774    -0.000000656110
       6        0.000004258822    -0.000003572076     0.000010667599
       7        0.000447410004     0.000722107262    -0.001419269410
       8        0.000019529107     0.001177137166     0.000002021957
       9        0.000003284067    -0.000000197855    -0.000001679255
      10        0.000002474191     0.000000670339     0.000000623824
      11       -0.000003372691     0.000004482308     0.000002623480
      12       -0.000340357075    -0.000374862556     0.001052181017
      13        0.000007745341    -0.000019016619    -0.000006080667

  **** Optimization is complete! (in 9 steps) ****
    Final optimized geometry and variables:
    Molecular point group: c1

    Geometry (in Angstrom), charge = 0, multiplicity = 1:

    H           -2.386980815329    -1.271542674928    -0.363632431832
    C           -1.371052496640    -1.265508847506     0.013765354279
    C           -0.684891884936     0.015404650282    -0.447558799963
    H           -0.858039064830    -2.141989158640    -0.352202724521
    H           -1.412162706999    -1.309861031476     1.096761657958
    C           -1.389754653253     1.281229494172     0.012678824735
    N            0.749352721836    -0.001038211661     0.017323621635
    H           -0.585273039080     0.016532519300    -1.526095378695
    H           -2.398897150426     1.271769929194    -0.384149306362
    H           -0.888152639197     2.169936220171    -0.342060005185
    H           -1.445987623908     1.328168244155     1.093128850690
    O            1.360343428157    -1.009762418055    -0.166719765981
    O            1.197263121433     0.983349489107     0.516526613511

  Mulliken Charges: (a.u.)
   Center  Symbol    Alpha    Beta     Spin     Total
       1     H     0.40932  0.40932  0.00000  0.18136
       2     C     3.24799  3.24799  0.00000 -0.49598
       3     C     3.02785  3.02785  0.00000 -0.05569
       4     H     0.39069  0.39069  0.00000  0.21863
       5     H     0.40763  0.40763  0.00000  0.18474
       6     C     3.24174  3.24174  0.00000 -0.48348
       7     N     3.21659  3.21659  0.00000  0.56682
       8     H     0.38560  0.38560  0.00000  0.22879
       9     H     0.41239  0.41239  0.00000  0.17522
      10     H     0.39754  0.39754  0.00000  0.20492
      11     H     0.40507  0.40507  0.00000  0.18986
      12     O     4.22975  4.22975  0.00000 -0.45950
      13     O     4.22784  4.22784  0.00000 -0.45568

   Total alpha = 24.00000, Total beta = 24.00000, Total charge =  0.00000
