  ==> Input File <==

--------------------------------------------------------------------------
set {
	reference rhf
	basis 6-31G*
}

set_num_threads( 4 )
memory 2 gb

molecule MOL {
0 1

H	 -2.460576	 0.922144	 1.026365
C	 -2.527543	 0.124990	 0.296018
C	 -1.271448	 -0.737987	 0.312012
H	 -2.672008	 0.582731	 -0.675004
H	 -3.401335	 -0.476271	 0.524599
C	 -0.000005	 0.033229	 -0.000001
H	 -1.353647	 -1.552453	 -0.405124
H	 -1.144077	 -1.216096	 1.281334
C	 1.290528	 -0.768786	 0.000276
O	 -0.014229	 1.203261	 -0.232396
C	 2.545731	 0.095645	 -0.000061
H	 1.275672	 -1.427874	 -0.865626
H	 1.275566	 -1.427086	 0.866768
H	 2.577157	 0.734767	 -0.874036
H	 3.433520	 -0.528139	 0.000137
H	 2.577172	 0.735117	 0.873581

	symmetry c1
}
set optking {
	frozen_dihedral = ("
		3 6 9 12
	")
}

ee = optimize('scf')
oeprop('DIPOLE', 'QUADRUPOLE', 'MULLIKEN_CHARGES')
f=open( 'psi4out.xyz', 'w' )
f.write( "16  " )
f.write( str(ee) + "\n" )
f.write( MOL.save_string_xyz() )
f.close()
--------------------------------------------------------------------------

    Molecular point group: c1
  Charge       = 0
  Multiplicity = 1
  Basis Set: 6-31G*
  Basis Set:
  @DF-RHF Final Energy:  -270.03314963629919
    Total Energy =                       -270.0331496362992993
    Molecular point group: c1
  Basis Set: 6-31G*
  Basis Set:
  Basis Set: 6-31G*
  Basis Set:
  @DF-RHF Final Energy:  -270.03323412238035
    Total Energy =                       -270.0332341223805770
  Basis Set: 6-31G*
  Basis Set:
  Basis Set: 6-31G*
  Basis Set:
  @DF-RHF Final Energy:  -270.03257615068037
    Total Energy =                       -270.0325761506801427
  Basis Set: 6-31G*
  Basis Set:
  Basis Set: 6-31G*
  Basis Set:
  @DF-RHF Final Energy:  -270.03329889377574
    Total Energy =                       -270.0332988937757364
  Basis Set: 6-31G*
  Basis Set:
  Basis Set: 6-31G*
  Basis Set:
  @DF-RHF Final Energy:  -270.03330687873961
    Total Energy =                       -270.0333068787395518
  Basis Set: 6-31G*
  Basis Set:
  Charge       = 0
  Multiplicity = 1
  Basis Set: 6-31G*
  Basis Set:

    Orbital Energies (a.u.)
    -----------------------

    Doubly Occupied:

       1A    -20.550855     2A    -11.323972     3A    -11.234094
       4A    -11.234004     5A    -11.213927     6A    -11.213706
       7A     -1.396351     8A     -1.068330     9A     -1.036293
      10A     -0.915897    11A     -0.845959    12A     -0.724716
      13A     -0.667628    14A     -0.646761    15A     -0.618213
      16A     -0.607307    17A     -0.560180    18A     -0.527474
      19A     -0.524219    20A     -0.510382    21A     -0.503325
      22A     -0.493453    23A     -0.483497    24A     -0.399139

  @DF-RHF Final Energy:  -270.03330724432084

   => Energetics <=

    Nuclear Repulsion Energy =            239.9536245304172439
    One-Electron Energy =                -841.3745045359183905
    Two-Electron Energy =                 331.3875727611804791
    DFT Exchange-Correlation Energy =       0.0000000000000000
    Empirical Dispersion Energy =           0.0000000000000000
    PCM Polarization Energy =               0.0000000000000000
    EFP Energy =                            0.0000000000000000
    Total Energy =                       -270.0333072443207243
    Molecular point group: c1
  Basis Set: 6-31G*
  Basis Set:

  -Total Gradient:
     Atom            X                  Y                   Z
    ------   -----------------  -----------------  -----------------
       1        0.000005627914    -0.000007117926    -0.000000399438
       2       -0.000007264509    -0.000004387043    -0.000021946746
       3        0.000062283471     0.000064300495     0.000386699551
       4       -0.000004318882     0.000005539696     0.000002805154
       5       -0.000002593474    -0.000000284465     0.000000397189
       6       -0.000047081710    -0.000002050196    -0.000579704671
       7       -0.000000589180     0.000012005980    -0.000000551440
       8        0.000002543994    -0.000015760977     0.000001671819
       9       -0.000230869884    -0.000405500438     0.000453774560
      10        0.000004425546     0.000000388827     0.000001971567
      11        0.000016456872     0.000015482300     0.000003687586
      12        0.000207095652     0.000341055828    -0.000240424403
      13        0.000002014776     0.000010043101    -0.000010073590
      14       -0.000005982190    -0.000004101060     0.000002377967
      15        0.000000093292    -0.000005739762     0.000002279842
      16       -0.000001841687    -0.000003874364    -0.000002564949

  **** Optimization is complete! (in 6 steps) ****
    Final optimized geometry and variables:
    Molecular point group: c1

    Geometry (in Angstrom), charge = 0, multiplicity = 1:

    H           -2.512091604596     0.940271347139     0.840029278043
    C           -2.541120144273     0.100904308610     0.156727961803
    C           -1.274028481073    -0.738387257438     0.270180707362
    H           -2.656127513100     0.498169772563    -0.844899511265
    H           -3.414425539817    -0.500207547715     0.387515526270
    C           -0.001328067771     0.036780806900    -0.023474231386
    H           -1.314582115283    -1.597410027178    -0.396399420156
    H           -1.177027780190    -1.152458017175     1.272512807774
    C            1.278969784528    -0.777678965442    -0.101407618577
    O           -0.006146746858     1.218746712713    -0.185525719051
    C            2.543469585426     0.074008303852    -0.108586095341
    H            1.221544397420    -1.376519539556    -1.009373648476
    H            1.291985600698    -1.489754377186     0.720226739623
    H            2.540946127901     0.762887818774    -0.943519063452
    H            3.423199881328    -0.556474758167    -0.184723614540
    H            2.623135307271     0.660044086206     0.799793140751

  Mulliken Charges: (a.u.)
   Center  Symbol    Alpha    Beta     Spin     Total
       1     H     0.40861  0.40861  0.00000  0.18277
       2     C     3.23517  3.23517  0.00000 -0.47034
       3     C     3.20581  3.20581  0.00000 -0.41163
       4     H     0.41251  0.41251  0.00000  0.17498
       5     H     0.41998  0.41998  0.00000  0.16005
       6     C     2.73480  2.73480  0.00000  0.53040
       7     H     0.41057  0.41057  0.00000  0.17885
       8     H     0.40772  0.40772  0.00000  0.18456
       9     C     3.20549  3.20549  0.00000 -0.41099
      10     O     4.26464  4.26464  0.00000 -0.52928
      11     C     3.23558  3.23558  0.00000 -0.47117
      12     H     0.40699  0.40699  0.00000  0.18602
      13     H     0.41127  0.41127  0.00000  0.17747
      14     H     0.40737  0.40737  0.00000  0.18526
      15     H     0.41984  0.41984  0.00000  0.16031
      16     H     0.41363  0.41363  0.00000  0.17275

   Total alpha = 24.00000, Total beta = 24.00000, Total charge = -0.00000
