                              Psi4 1.0.54 Driver

  ==> Input File <==

--------------------------------------------------------------------------
set {
	reference rhf
	basis cc-pvtz
}

set_num_threads( 4 )
memory 2 gb

molecule MOL {
0 1

H	 3.721907	 -0.933076	 -0.066039
O	 2.824271	 -1.154299	 0.131461
C	 2.076458	 -0.067370	 -0.038225
C	 0.626018	 -0.337582	 0.258241
O	 2.538288	 0.965419	 -0.381593
C	 -0.267326	 0.883135	 0.076490
H	 0.325620	 -1.161483	 -0.378003
H	 0.574537	 -0.713685	 1.275261
C	 -1.726822	 0.642622	 0.463839
H	 -0.210803	 1.217591	 -0.953497
H	 0.129920	 1.693110	 0.675679
C	 -2.480891	 -0.340606	 -0.429852
H	 -2.243098	 1.597649	 0.438609
H	 -1.776542	 0.301208	 1.495542
C	 -3.201843	 0.347033	 -1.584779
H	 -1.780593	 -1.070911	 -0.826426
H	 -3.205902	 -0.898112	 0.154530
H	 -3.726291	 -0.371668	 -2.203734
H	 -2.503093	 0.882509	 -2.218586
H	 -3.930701	 1.063081	 -1.219818

	symmetry c1
}
set optking {
	frozen_dihedral = ("
		16 12 9 6
	")
}

ee,wfn = optimize('scf', return_wfn=True)
oeprop( wfn, 'DIPOLE', 'QUADRUPOLE', 'MULLIKEN_CHARGES')
f=open( 'psi4out.xyz', 'w' )
f.write( "20  " )
f.write( str(ee) + "\n" )
f.write( MOL.save_string_xyz() )
f.close()
--------------------------------------------------------------------------

    Molecular point group: c1
  Charge       = 0
  Multiplicity = 1
  Basis Set: CC-PVTZ
  Basis Set:
  @DF-RHF Final Energy:  -384.09087000869528
    Total Energy =                       -384.0908700086949921
    Molecular point group: c1
  Basis Set: CC-PVTZ
  Basis Set:
  Basis Set: CC-PVTZ
  Basis Set:
  @DF-RHF Final Energy:  -384.08512635958851
    Total Energy =                       -384.0851263595886849
  Basis Set: CC-PVTZ
  Basis Set:
  Basis Set: CC-PVTZ
  Basis Set:
  @DF-RHF Final Energy:  -384.09123430795023
    Total Energy =                       -384.0912343079501170
  Basis Set: CC-PVTZ
  Basis Set:
  Basis Set: CC-PVTZ
  Basis Set:
  @DF-RHF Final Energy:  -384.09144024252276
    Total Energy =                       -384.0914402425232765
  Basis Set: CC-PVTZ
  Basis Set:
  @DF-RHF Final Energy:  -384.09139872723750
    Total Energy =                       -384.0913987272375607
  Basis Set: CC-PVTZ
  Basis Set:
  @DF-RHF Final Energy:  -384.09135285305439
    Total Energy =                       -384.0913528530542749
  Basis Set: CC-PVTZ
  Basis Set:
  Basis Set: CC-PVTZ
  Basis Set:
  @DF-RHF Final Energy:  -384.09147326638941
    Total Energy =                       -384.0914732663894142
  Basis Set: CC-PVTZ
  Basis Set:
  Basis Set: CC-PVTZ
  Basis Set:
  @DF-RHF Final Energy:  -384.09147574348543
    Total Energy =                       -384.0914757434852618
  Basis Set: CC-PVTZ
  Basis Set:
  Charge       = 0
  Multiplicity = 1
  Basis Set: CC-PVTZ
  Basis Set:

    Orbital Energies (a.u.)
    -----------------------

    Doubly Occupied:

       1A    -20.604010     2A    -20.540654     3A    -11.373600
       4A    -11.238847     5A    -11.221375     6A    -11.218688
       7A    -11.218102     8A    -11.209572     9A     -1.477614
      10A     -1.369121    11A     -1.097110    12A     -1.040627
      13A     -0.960311    14A     -0.874606    15A     -0.817417
      16A     -0.774392    17A     -0.703801    18A     -0.693270
      19A     -0.669197    20A     -0.629423    21A     -0.615999
      22A     -0.588123    23A     -0.578829    24A     -0.566909
      25A     -0.523101    26A     -0.512980    27A     -0.509837
      28A     -0.484713    29A     -0.469806    30A     -0.461671
      31A     -0.458875    32A     -0.446530

  @DF-RHF Final Energy:  -384.09147589246669

   => Energetics <=

    Nuclear Repulsion Energy =            379.1413821751675073
    One-Electron Energy =               -1274.5674924498528071
    Two-Electron Energy =                 511.3346343822188373
    DFT Exchange-Correlation Energy =       0.0000000000000000
    Empirical Dispersion Energy =           0.0000000000000000
    PCM Polarization Energy =               0.0000000000000000
    EFP Energy =                            0.0000000000000000
    Total Energy =                       -384.0914758924664056
    Molecular point group: c1
  Basis Set: CC-PVTZ
  Basis Set:

  -Total Gradient:
     Atom            X                  Y                   Z
    ------   -----------------  -----------------  -----------------
       1       -0.000003456117    -0.000003207223     0.000004075232
       2        0.000018890093     0.000006147324     0.000001503920
       3       -0.000008791789     0.000035433450    -0.000052131970
       4        0.000002119724    -0.000005526343    -0.000019766112
       5       -0.000011243300    -0.000048755637     0.000037045843
       6        0.000500051319    -0.001907155462     0.000984183548
       7        0.000008681809     0.000007232698     0.000016831456
       8        0.000001447712     0.000010231018     0.000003111663
       9       -0.000563604423     0.003258344948    -0.001796470336
      10       -0.000006077499    -0.000004281595     0.000003822315
      11        0.000000705651    -0.000005632214    -0.000005826077
      12       -0.000632745456    -0.003545372841     0.002731551775
      13       -0.000000209038     0.000003211796     0.000015382627
      14        0.000019652341     0.000014328891    -0.000003580085
      15       -0.000007552432    -0.000017302912    -0.000015216531
      16        0.000665299907     0.002204455072    -0.001903106959
      17        0.000004067746     0.000000379724    -0.000011140645
      18       -0.000001649521     0.000008933136     0.000006260839
      19       -0.000002951931    -0.000004919478     0.000000621048
      20        0.000017365205    -0.000006544350     0.000002848449

  **** Optimization is complete! (in 9 steps) ****
    Final optimized geometry and variables:
    Molecular point group: c1

    Geometry (in Angstrom), charge = 0, multiplicity = 1:

    H            3.593072229291    -1.150147718888     0.284486344692
    O            2.686172750334    -1.364311096527     0.443826475256
    C            1.958955364166    -0.262577910234     0.280160339243
    C            0.495605271159    -0.521038981312     0.517404243967
    O            2.445648955503     0.773388424508    -0.016268811258
    C           -0.374434197854     0.719561732395     0.360202938580
    H            0.203535741666    -1.314713543004    -0.160349422060
    H            0.403864434511    -0.937267560175     1.515424566359
    C           -1.862224257951     0.445385649369     0.597112795436
    H           -0.222018648760     1.142922096701    -0.626057024632
    H           -0.030827068067     1.470356288067     1.061396378713
    C           -2.567591708236    -0.311548393776    -0.540273069148
    H           -2.371385739131     1.389257388937     0.760318868237
    H           -1.965305777472    -0.111437527438     1.524325340988
    C           -3.179509494293     0.620587458584    -1.584931807409
    H           -1.863937163738    -0.964841604741    -1.045519859303
    H           -3.346530067547    -0.946521580090    -0.133694717649
    H           -3.630225394191     0.059134090476    -2.395368889558
    H           -2.430948701527     1.276712110295    -2.016097442010
    H           -3.949802862908     1.244807166688    -1.145123457034

  Mulliken Charges: (a.u.)
   Center  Symbol    Alpha    Beta     Spin     Total
       1     H     0.38243  0.38243  0.00000  0.23515
       2     O     4.16043  4.16043  0.00000 -0.32085
       3     C     2.80328  2.80328  0.00000  0.39345
       4     C     3.11128  3.11128  0.00000 -0.22256
       5     O     4.19111  4.19111  0.00000 -0.38222
       6     C     3.09291  3.09291  0.00000 -0.18582
       7     H     0.43729  0.43729  0.00000  0.12542
       8     H     0.43730  0.43730  0.00000  0.12540
       9     C     3.10779  3.10779  0.00000 -0.21557
      10     H     0.44445  0.44445  0.00000  0.11110
      11     H     0.44036  0.44036  0.00000  0.11929
      12     C     3.09039  3.09039  0.00000 -0.18078
      13     H     0.44528  0.44528  0.00000  0.10943
      14     H     0.44873  0.44873  0.00000  0.10254
      15     C     3.14744  3.14744  0.00000 -0.29487
      16     H     0.45629  0.45629  0.00000  0.08741
      17     H     0.44695  0.44695  0.00000  0.10609
      18     H     0.44867  0.44867  0.00000  0.10266
      19     H     0.45359  0.45359  0.00000  0.09283
      20     H     0.45404  0.45404  0.00000  0.09192

   Total alpha = 32.00000, Total beta = 32.00000, Total charge =  0.00000

*** Psi4 exiting successfully. Buy a developer a beer!
