  ==> Input File <==

--------------------------------------------------------------------------
set {
	reference rhf
	basis 6-31G*
}

set_num_threads( 4 )
memory 2 gb

molecule MOL {
0 1

O	 0.625848	 1.349995	 -0.000749
C	 0.486307	 0.169203	 0.000779
C	 1.608116	 -0.841643	 0.000302
O	 -0.698257	 -0.426125	 0.001050
C	 2.990107	 -0.200498	 -0.000684
H	 1.468623	 -1.481519	 -0.865924
H	 1.469683	 -1.481289	 0.866878
H	 3.129736	 0.423364	 -0.875135
H	 3.757882	 -0.966877	 -0.001197
H	 3.130964	 0.423383	 0.873533
C	 -0.718990	 -1.849842	 0.000857
C	 -2.169868	 -2.282577	 0.003147
H	 -0.193024	 -2.210165	 0.874419
H	 -0.195703	 -2.209998	 -0.874385
H	 -2.681266	 -1.909414	 0.883136
H	 -2.232240	 -3.365978	 0.003193
H	 -2.684047	 -1.909342	 -0.875245

	symmetry c1
}
set optking {
	frozen_dihedral = ("
		11 4 2 3
	")
}

ee = optimize('scf')
oeprop('DIPOLE', 'QUADRUPOLE', 'MULLIKEN_CHARGES')
f=open( 'psi4out.xyz', 'w' )
f.write( "17  " )
f.write( str(ee) + "\n" )
f.write( MOL.save_string_xyz() )
f.close()
--------------------------------------------------------------------------

    Molecular point group: c1
  Charge       = 0
  Multiplicity = 1
  Basis Set: 6-31G*
  Basis Set:
  @DF-RHF Final Energy:  -344.88402213079871
    Total Energy =                       -344.8840221307984848
    Molecular point group: c1
  Basis Set: 6-31G*
  Basis Set:
  Basis Set: 6-31G*
  Basis Set:
  @DF-RHF Final Energy:  -344.85912907189129
    Total Energy =                       -344.8591290718908340
  Basis Set: 6-31G*
  Basis Set:
  Basis Set: 6-31G*
  Basis Set:
  @DF-RHF Final Energy:  -344.89128461817609
    Total Energy =                       -344.8912846181758027
  Basis Set: 6-31G*
  Basis Set:
  Basis Set: 6-31G*
  Basis Set:
  @DF-RHF Final Energy:  -344.89569595073584
    Total Energy =                       -344.8956959507357283
  Basis Set: 6-31G*
  Basis Set:
  @DF-RHF Final Energy:  -344.89663158808071
    Total Energy =                       -344.8966315880804245
  @DF-RHF Final Energy:  -344.89708088204475
    Total Energy =                       -344.8970808820447473
  @DF-RHF Final Energy:  -344.89715985357327
    Total Energy =                       -344.8971598535733847
  Basis Set: 6-31G*
  Basis Set:
  @DF-RHF Final Energy:  -344.89719334077824
    Total Energy =                       -344.8971933407783581
  Basis Set: 6-31G*
  Basis Set:
  Basis Set: 6-31G*
  Basis Set:
  @DF-RHF Final Energy:  -344.89720399204896
    Total Energy =                       -344.8972039920488442
  Basis Set: 6-31G*
  Basis Set:
  Basis Set: 6-31G*
  Basis Set:
  @DF-RHF Final Energy:  -344.89720523096497
    Total Energy =                       -344.8972052309651417
  Basis Set: 6-31G*
  Basis Set:
  Charge       = 0
  Multiplicity = 1
  Basis Set: 6-31G*
  Basis Set:

    Orbital Energies (a.u.)
    -----------------------

    Doubly Occupied:

       1A    -20.599522     2A    -20.537552     3A    -11.372713
       4A    -11.300300     5A    -11.247468     6A    -11.227781
       7A    -11.219730     8A     -1.461496     9A     -1.363358
      10A     -1.063741    11A     -1.047703    12A     -0.901172
      13A     -0.882092    14A     -0.771251    15A     -0.705469
      16A     -0.696999    17A     -0.653796    18A     -0.634371
      19A     -0.587361    20A     -0.576704    21A     -0.560965
      22A     -0.538532    23A     -0.523887    24A     -0.522161
      25A     -0.507176    26A     -0.498928    27A     -0.442708
      28A     -0.429907

  @DF-RHF Final Energy:  -344.89720553054678

   => Energetics <=

    Nuclear Repulsion Energy =            315.2871081510380691
    One-Electron Energy =               -1094.6189381286840216
    Two-Electron Energy =                 434.4346244470991110
    DFT Exchange-Correlation Energy =       0.0000000000000000
    Empirical Dispersion Energy =           0.0000000000000000
    PCM Polarization Energy =               0.0000000000000000
    EFP Energy =                            0.0000000000000000
    Total Energy =                       -344.8972055305468416
    Molecular point group: c1
  Basis Set: 6-31G*
  Basis Set:

  -Total Gradient:
     Atom            X                  Y                   Z
    ------   -----------------  -----------------  -----------------
       1        0.000071037837     0.000055802158    -0.000015485432
       2       -0.000014615331    -0.000017358294     0.000048524778
       3        0.000002482403     0.000019652171    -0.000085297244
       4        0.000058877537    -0.000145503593     0.000023218024
       5       -0.000016348511    -0.000005391000     0.000021976309
       6        0.000017835495     0.000063654066     0.000039769086
       7       -0.000009904687    -0.000001760815     0.000022647928
       8       -0.000003962368    -0.000015069082     0.000004200781
       9       -0.000028174521     0.000019823491    -0.000001450679
      10        0.000009528109    -0.000006855103    -0.000006655947
      11       -0.000063522451     0.000021928977    -0.000140116452
      12        0.000019517481    -0.000034054318     0.000009032086
      13        0.000029857448     0.000041956374     0.000020231392
      14       -0.000069947508    -0.000020736786     0.000054628940
      15       -0.000002094387    -0.000013428994    -0.000002943388
      16       -0.000005605666     0.000049052772     0.000006639596
      17        0.000005039121    -0.000011712027     0.000001080223

  **** Optimization is complete! (in 11 steps) ****
    Final optimized geometry and variables:
    Molecular point group: c1

    Geometry (in Angstrom), charge = 0, multiplicity = 1:

    O            0.296513875897     1.844574932677    -0.001865889728
    C            0.243530385787     0.661216471254    -0.001295755090
    C            1.478463887385    -0.219596125455    -0.000089342473
    O           -0.951479973866     0.067383230023    -0.002007525646
    C            2.768030199556     0.593223945900     0.001358851037
    H            1.441733260658    -0.871398517505    -0.868197104391
    H            1.440050129722    -0.871749444385     0.867791365859
    H            2.826268636437     1.229574582251    -0.872363271277
    H            3.625286285306    -0.071543948570     0.002051054844
    H            2.824660550616     1.229320671480     0.875378850500
    C           -1.136999390163    -1.335728341193    -0.001693318331
    C           -2.630867222650    -1.587696233156     0.005361122335
    H           -0.673879149355    -1.773932322709     0.874586520309
    H           -0.682291879035    -1.773595122753    -0.882471896069
    H           -3.084452020055    -1.149635816977     0.886272725020
    H           -2.828438362085    -2.654747011001     0.006198492610
    H           -3.092760100850    -1.149454704803    -0.871132225576

  Mulliken Charges: (a.u.)
   Center  Symbol    Alpha    Beta     Spin     Total
       1     O     4.26888  4.26888  0.00000 -0.53775
       2     C     2.59952  2.59952  0.00000  0.80097
       3     C     3.23098  3.23098  0.00000 -0.46196
       4     O     4.30786  4.30786  0.00000 -0.61572
       5     C     3.23409  3.23409  0.00000 -0.46819
       6     H     0.40387  0.40387  0.00000  0.19225
       7     H     0.40390  0.40390  0.00000  0.19221
       8     H     0.40716  0.40716  0.00000  0.18569
       9     H     0.41945  0.41945  0.00000  0.16110
      10     H     0.40718  0.40718  0.00000  0.18565
      11     C     3.00332  3.00332  0.00000 -0.00663
      12     C     3.24461  3.24461  0.00000 -0.48922
      13     H     0.41867  0.41867  0.00000  0.16265
      14     H     0.41860  0.41860  0.00000  0.16281
      15     H     0.40703  0.40703  0.00000  0.18594
      16     H     0.41790  0.41790  0.00000  0.16420
      17     H     0.40700  0.40700  0.00000  0.18600

   Total alpha = 28.00000, Total beta = 28.00000, Total charge =  0.00000
