  ==> Input File <==

--------------------------------------------------------------------------
set {
	reference rhf
	basis 6-31G*
}

set_num_threads( 4 )
memory 2 gb

molecule MOL {
0 1

H	 -4.236494	 0.538104	 0.039757
O	 -3.517110	 -0.026191	 -0.205115
C	 -2.306886	 0.532354	 0.237577
C	 -1.177863	 -0.397191	 -0.171080
H	 -2.156308	 1.517575	 -0.201710
H	 -2.315015	 0.655684	 1.319734
C	 0.198102	 0.111031	 0.262842
H	 -1.208843	 -0.518759	 -1.250427
H	 -1.368741	 -1.376554	 0.258909
C	 1.331804	 -0.827780	 -0.158768
H	 0.361943	 1.100838	 -0.156218
H	 0.217265	 0.229072	 1.345532
C	 2.723619	 -0.410569	 0.329459
H	 1.342964	 -0.912588	 -1.244120
H	 1.116806	 -1.824343	 0.220779
C	 3.798477	 -1.489433	 0.184322
H	 2.650381	 -0.130826	 1.377538
H	 3.037275	 0.485857	 -0.201772
H	 3.506037	 -2.402727	 0.695608
H	 3.987552	 -1.738049	 -0.854725
H	 4.738205	 -1.157363	 0.614898

	symmetry c1
}
set optking {
	frozen_dihedral = ("
		16 13 10 14
	")
}

ee = optimize('scf')
oeprop('DIPOLE', 'QUADRUPOLE', 'MULLIKEN_CHARGES')
f=open( 'psi4out.xyz', 'w' )
f.write( "21  " )
f.write( str(ee) + "\n" )
f.write( MOL.save_string_xyz() )
f.close()
--------------------------------------------------------------------------

    Molecular point group: c1
  Charge       = 0
  Multiplicity = 1
  Basis Set: 6-31G*
  Basis Set:
  @DF-RHF Final Energy:  -310.21341951465882
    Total Energy =                       -310.2134195146586535
    Molecular point group: c1
  Basis Set: 6-31G*
  Basis Set:
  Basis Set: 6-31G*
  Basis Set:
  @DF-RHF Final Energy:  -310.21389621309140
    Total Energy =                       -310.2138962130916298
  Basis Set: 6-31G*
  Basis Set:
  Basis Set: 6-31G*
  Basis Set:
  @DF-RHF Final Energy:  -310.21392883679351
    Total Energy =                       -310.2139288367935137
  Basis Set: 6-31G*
  Basis Set:
  Basis Set: 6-31G*
  Basis Set:
  @DF-RHF Final Energy:  -310.21394344094273
    Total Energy =                       -310.2139434409427849
  Basis Set: 6-31G*
  Basis Set:
  Basis Set: 6-31G*
  Basis Set:
  @DF-RHF Final Energy:  -310.21394668598271
    Total Energy =                       -310.2139466859828758
  Basis Set: 6-31G*
  Basis Set:
  Charge       = 0
  Multiplicity = 1
  Basis Set: 6-31G*
  Basis Set:

    Orbital Energies (a.u.)
    -----------------------

    Doubly Occupied:

       1A    -20.551827     2A    -11.267054     3A    -11.216002
       4A    -11.214801     5A    -11.213357     6A    -11.210622
       7A    -11.208018     8A     -1.358643     9A     -1.086260
      10A     -1.034522    11A     -0.956770    12A     -0.867095
      13A     -0.801918    14A     -0.790540    15A     -0.691795
      16A     -0.663973    17A     -0.632427    18A     -0.596287
      19A     -0.580801    20A     -0.562204    21A     -0.547593
      22A     -0.521483    23A     -0.507260    24A     -0.483718
      25A     -0.477308    26A     -0.462771    27A     -0.461262
      28A     -0.442473    29A     -0.433979

  @DF-RHF Final Energy:  -310.21394677976605

   => Energetics <=

    Nuclear Repulsion Energy =            308.9123458664622603
    One-Electron Energy =               -1032.5670583634662307
    Two-Electron Energy =                 413.4407657172376389
    DFT Exchange-Correlation Energy =       0.0000000000000000
    Empirical Dispersion Energy =           0.0000000000000000
    PCM Polarization Energy =               0.0000000000000000
    EFP Energy =                            0.0000000000000000
    Total Energy =                       -310.2139467797663315
    Molecular point group: c1
  Basis Set: 6-31G*
  Basis Set:

  -Total Gradient:
     Atom            X                  Y                   Z
    ------   -----------------  -----------------  -----------------
       1       -0.000006213576    -0.000002234527    -0.000000452598
       2       -0.000004678720     0.000004134771     0.000003261094
       3        0.000010412157    -0.000007597911     0.000004743032
       4        0.000019711213    -0.000002705834    -0.000017573023
       5       -0.000001611456    -0.000006118286    -0.000001532272
       6       -0.000000526208     0.000006584106     0.000003374872
       7        0.000006467946     0.000002953591    -0.000000449022
       8       -0.000008075034     0.000004785348    -0.000003962601
       9        0.000004654432     0.000001714667    -0.000006166975
      10        0.000731694012    -0.002930285202     0.000887285570
      11       -0.000000084983    -0.000004348835    -0.000000284235
      12       -0.000003592145    -0.000003869568    -0.000000042781
      13        0.000285505617     0.001295654232    -0.002230853047
      14       -0.000720996259     0.002207777467    -0.000202220192
      15        0.000002893150    -0.000005798165     0.000006159186
      16       -0.000319132784    -0.000567767290     0.001557165350
      17        0.000000125782    -0.000003090989    -0.000005158313
      18        0.000009247841     0.000001923058    -0.000004393396
      19       -0.000002682534    -0.000003155230     0.000005944244
      20        0.000009876482     0.000002351939     0.000005372471
      21       -0.000012994932     0.000009092659    -0.000000217366

  **** Optimization is complete! (in 6 steps) ****
    Final optimized geometry and variables:
    Molecular point group: c1

    Geometry (in Angstrom), charge = 0, multiplicity = 1:

    H           -4.302239864171     0.941955570647    -0.078234475406
    O           -3.588298856390     0.373091605410    -0.328438813349
    C           -2.378900453457     0.886816111648     0.167623316611
    C           -1.258608210865    -0.048711112818    -0.251287713470
    H           -2.196911680525     1.885948959424    -0.225982265693
    H           -2.412693007287     0.965330990210     1.253437690536
    C            0.115564827999     0.412962732462     0.235652252074
    H           -1.265675434611    -0.126705384552    -1.334989104011
    H           -1.478968812231    -1.040358059878     0.134422704387
    C            1.245149977994    -0.534298659182    -0.176078388198
    H            0.323919143921     1.408535543924    -0.153608019345
    H            0.104985642871     0.505883321636     1.320451239599
    C            2.627185627241    -0.049619075422     0.269690770487
    H            1.234282837447    -0.636740722967    -1.259592866061
    H            1.052990181740    -1.522939459860     0.235549036833
    C            3.716658062574    -1.108077870610     0.100430634129
    H            2.583765386425     0.245195081504     1.316329764292
    H            2.893309340101     0.845663456685    -0.287460081438
    H            3.500571782981    -1.987699625217     0.699823866548
    H            3.799651272002    -1.427264375022    -0.934920613603
    H            4.686254435021    -0.727987163634     0.407205125592

  Mulliken Charges: (a.u.)
   Center  Symbol    Alpha    Beta     Spin     Total
       1     H     0.28118  0.28118  0.00000  0.43764
       2     O     4.37183  4.37183  0.00000 -0.74366
       3     C     2.98970  2.98970  0.00000  0.02060
       4     C     3.15922  3.15922  0.00000 -0.31843
       5     H     0.43285  0.43285  0.00000  0.13429
       6     H     0.43285  0.43285  0.00000  0.13431
       7     C     3.16059  3.16059  0.00000 -0.32118
       8     H     0.41481  0.41481  0.00000  0.17037
       9     H     0.41484  0.41484  0.00000  0.17031
      10     C     3.15005  3.15005  0.00000 -0.30010
      11     H     0.42371  0.42371  0.00000  0.15258
      12     H     0.42363  0.42363  0.00000  0.15274
      13     C     3.15179  3.15179  0.00000 -0.30359
      14     H     0.42226  0.42226  0.00000  0.15547
      15     H     0.42243  0.42243  0.00000  0.15515
      16     C     3.23933  3.23933  0.00000 -0.47866
      17     H     0.42372  0.42372  0.00000  0.15256
      18     H     0.42246  0.42246  0.00000  0.15509
      19     H     0.42147  0.42147  0.00000  0.15706
      20     H     0.42161  0.42161  0.00000  0.15679
      21     H     0.41967  0.41967  0.00000  0.16066

   Total alpha = 29.00000, Total beta = 29.00000, Total charge =  0.00000
