  ==> Input File <==

--------------------------------------------------------------------------
set {
	reference rhf
	basis 6-31G*
}

set_num_threads( 1 )
memory 2 gb

molecule MOL {
0 1

H	 2.540895	 -2.021409	 -1.644247
O	 2.108863	 -1.817779	 -0.820452
C	 1.348253	 -0.739501	 -1.008086
C	 0.624473	 -0.343591	 0.253101
O	 1.280022	 -0.190092	 -2.059042
C	 -0.265902	 0.883932	 0.072916
H	 0.061804	 -1.211392	 0.581275
H	 1.378989	 -0.172714	 1.016815
C	 -1.728698	 0.646073	 0.462102
H	 -0.209144	 1.219470	 -0.958188
H	 0.135059	 1.692851	 0.673903
C	 -2.482460	 -0.343073	 -0.431425
H	 -2.245265	 1.602650	 0.432430
H	 -1.779332	 0.308348	 1.496285
C	 -3.960546	 -0.461025	 -0.060175
H	 -2.395034	 -0.026811	 -1.468912
H	 -2.024850	 -1.327147	 -0.371646
H	 -4.472726	 -1.168004	 -0.705284
H	 -4.465146	 0.496508	 -0.151489
H	 -4.081218	 -0.800940	 0.964585

	symmetry c1
}
set optking {
	frozen_dihedral = ("
		16 12 9 6,
		12 9 6 10,
		5 3 4 7,
		1 2 3 5
	")
}

ee = energy('scf')
oeprop('DIPOLE', 'QUADRUPOLE', 'MULLIKEN_CHARGES')
f=open( 'psi4out.xyz', 'w' )
f.write( "20  " )
f.write( str(ee) + "\n" )
f.write( MOL.save_string_xyz() )
f.close()
--------------------------------------------------------------------------

    Molecular point group: c1

    Geometry (in Angstrom), charge = 0, multiplicity = 1:

       Center              X                  Y                   Z               Mass
    ------------   -----------------  -----------------  -----------------  -----------------
           H          2.894665316608    -1.695596264688    -1.172763269159     1.007825032070
           O          2.462633316608    -1.491966264688    -0.348968269159    15.994914619560
           C          1.702023316608    -0.413688264688    -0.536602269159    12.000000000000
           C          0.978243316608    -0.017778264688     0.724584730841    12.000000000000
           O          1.633792316608     0.135720735312    -1.587558269159    15.994914619560
           C          0.087868316608     1.209744735312     0.544399730841    12.000000000000
           H          0.415574316608    -0.885579264688     1.052758730841     1.007825032070
           H          1.732759316608     0.153098735312     1.488298730841     1.007825032070
           C         -1.374927683392     0.971885735312     0.933585730841    12.000000000000
           H          0.144626316608     1.545282735312    -0.486704269159     1.007825032070
           H          0.488829316608     2.018663735312     1.145386730841     1.007825032070
           C         -2.128689683392    -0.017260264688     0.040058730841    12.000000000000
           H         -1.891494683392     1.928462735312     0.903913730841     1.007825032070
           H         -1.425561683392     0.634160735312     1.967768730841     1.007825032070
           C         -3.606775683392    -0.135212264688     0.411308730841    12.000000000000
           H         -2.041263683392     0.299001735312    -0.997428269159     1.007825032070
           H         -1.671079683392    -1.001334264688     0.099837730841     1.007825032070
           H         -4.118955683392    -0.842191264688    -0.233800269159     1.007825032070
           H         -4.111375683392     0.822320735312     0.319994730841     1.007825032070
           H         -3.727447683392    -0.475127264688     1.436068730841     1.007825032070

  Charge       = 0
  Multiplicity = 1
  Basis Set: 6-31G*
  Basis Set:

    Orbital Energies (a.u.)
    -----------------------

    Doubly Occupied:

       1A    -20.613100     2A    -20.552455     3A    -11.381603
       4A    -11.238815     5A    -11.218742     6A    -11.218133
       7A    -11.217286     8A    -11.210326     9A     -1.475232
      10A     -1.366635    11A     -1.094615    12A     -1.038898
      13A     -0.959440    14A     -0.869129    15A     -0.813711
      16A     -0.774981    17A     -0.700781    18A     -0.693978
      19A     -0.661677    20A     -0.632771    21A     -0.603586
      22A     -0.593177    23A     -0.575125    24A     -0.555191
      25A     -0.530847    26A     -0.512692    27A     -0.495276
      28A     -0.479992    29A     -0.467124    30A     -0.464461
      31A     -0.453446    32A     -0.445977

  @DF-RHF Final Energy:  -383.94406539708683

   => Energetics <=

    Nuclear Repulsion Energy =            382.5879770509079094
    One-Electron Energy =               -1281.2455594022665082
    Two-Electron Energy =                 514.7135169542713129
    DFT Exchange-Correlation Energy =       0.0000000000000000
    Empirical Dispersion Energy =           0.0000000000000000
    PCM Polarization Energy =               0.0000000000000000
    EFP Energy =                            0.0000000000000000
    Total Energy =                       -383.9440653970872290

  Mulliken Charges: (a.u.)
   Center  Symbol    Alpha    Beta     Spin     Total
       1     H     0.26774  0.26774  0.00000  0.46452
       2     O     4.35015  4.35015  0.00000 -0.70030
       3     C     2.62809  2.62809  0.00000  0.74381
       4     C     3.21432  3.21432  0.00000 -0.42865
       5     O     4.27819  4.27819  0.00000 -0.55637
       6     C     3.16476  3.16476  0.00000 -0.32952
       7     H     0.39558  0.39558  0.00000  0.20883
       8     H     0.39500  0.39500  0.00000  0.21001
       9     C     3.15631  3.15631  0.00000 -0.31262
      10     H     0.39240  0.39240  0.00000  0.21520
      11     H     0.41650  0.41650  0.00000  0.16700
      12     C     3.15432  3.15432  0.00000 -0.30863
      13     H     0.41972  0.41972  0.00000  0.16056
      14     H     0.42485  0.42485  0.00000  0.15030
      15     C     3.23917  3.23917  0.00000 -0.47834
      16     H     0.41686  0.41686  0.00000  0.16628
      17     H     0.42480  0.42480  0.00000  0.15039
      18     H     0.41824  0.41824  0.00000  0.16352
      19     H     0.42077  0.42077  0.00000  0.15846
      20     H     0.42223  0.42223  0.00000  0.15554

   Total alpha = 32.00000, Total beta = 32.00000, Total charge =  0.00000
