  ==> Input File <==

--------------------------------------------------------------------------
set {
	reference rhf
	basis 6-31G*
}

set_num_threads( 4 )
memory 2 gb

molecule MOL {
0 1

O	 -1.276010	 1.052711	 -0.768302
C	 -1.204840	 0.067374	 -0.106123
C	 -2.388195	 -0.672128	 0.458071
O	 -0.067104	 -0.527208	 0.221609
H	 -2.388023	 -1.694060	 0.097175
H	 -3.300579	 -0.174919	 0.164318
H	 -2.315377	 -0.706351	 1.539059
C	 0.152633	 -1.884490	 -0.187573
C	 1.142380	 -2.464757	 0.807052
C	 0.661827	 -1.913136	 -1.620244
H	 -0.790609	 -2.406823	 -0.124562
H	 0.748142	 -2.410652	 1.815464
H	 1.341758	 -3.505168	 0.572263
H	 2.080137	 -1.920371	 0.776884
H	 0.852012	 -2.936355	 -1.928252
H	 -0.068973	 -1.487456	 -2.296042
H	 1.587609	 -1.352978	 -1.704854

	symmetry c1
}
set optking {
	frozen_dihedral = ("
		8 4 2 1
	")
}

ee = optimize('scf')
oeprop('DIPOLE', 'QUADRUPOLE', 'MULLIKEN_CHARGES')
f=open( 'psi4out.xyz', 'w' )
f.write( "17  " )
f.write( str(ee) + "\n" )
f.write( MOL.save_string_xyz() )
f.close()
--------------------------------------------------------------------------

    Molecular point group: c1
  Charge       = 0
  Multiplicity = 1
  Basis Set: 6-31G*
  Basis Set:
  @DF-RHF Final Energy:  -344.88926675520008
    Total Energy =                       -344.8892667552002536
    Molecular point group: c1
  Basis Set: 6-31G*
  Basis Set:
  Basis Set: 6-31G*
  Basis Set:
  @DF-RHF Final Energy:  -344.88941929275956
    Total Energy =                       -344.8894192927593849
  Basis Set: 6-31G*
  Basis Set:
  Basis Set: 6-31G*
  Basis Set:
  @DF-RHF Final Energy:  -344.89327197302237
    Total Energy =                       -344.8932719730224221
  Basis Set: 6-31G*
  Basis Set:
  Basis Set: 6-31G*
  Basis Set:
  @DF-RHF Final Energy:  -344.89399896823090
    Total Energy =                       -344.8939989682311307
  Basis Set: 6-31G*
  Basis Set:
  @DF-RHF Final Energy:  -344.89502197908979
    Total Energy =                       -344.8950219790895062
  @DF-RHF Final Energy:  -344.89519365563052
    Total Energy =                       -344.8951936556306919
  @DF-RHF Final Energy:  -344.89525630560036
    Total Energy =                       -344.8952563056004124
  @DF-RHF Final Energy:  -344.89528365272531
    Total Energy =                       -344.8952836527255386
  @DF-RHF Final Energy:  -344.89537580701767
    Total Energy =                       -344.8953758070178992
  Basis Set: 6-31G*
  Basis Set:
  @DF-RHF Final Energy:  -344.89541438052720
    Total Energy =                       -344.8954143805275407
  Basis Set: 6-31G*
  Basis Set:
  Basis Set: 6-31G*
  Basis Set:
  @DF-RHF Final Energy:  -344.89542429930009
    Total Energy =                       -344.8954242992999752
  Basis Set: 6-31G*
  Basis Set:
  Basis Set: 6-31G*
  Basis Set:
  @DF-RHF Final Energy:  -344.89542747950003
    Total Energy =                       -344.8954274795000856
  Basis Set: 6-31G*
  Basis Set:
  Charge       = 0
  Multiplicity = 1
  Basis Set: 6-31G*
  Basis Set:

    Orbital Energies (a.u.)
    -----------------------

    Doubly Occupied:

       1A    -20.584847     2A    -20.549489     3A    -11.375697
       4A    -11.303598     5A    -11.238523     6A    -11.224624
       7A    -11.223641     8A     -1.456501     9A     -1.365405
      10A     -1.074870    11A     -1.013070    12A     -0.955252
      13A     -0.853549    14A     -0.767637    15A     -0.693574
      16A     -0.673077    17A     -0.657825    18A     -0.625673
      19A     -0.591620    20A     -0.586109    21A     -0.559303
      22A     -0.554190    23A     -0.542165    24A     -0.526854
      25A     -0.508700    26A     -0.479246    27A     -0.448504
      28A     -0.433180

  @DF-RHF Final Energy:  -344.89542804258474

   => Energetics <=

    Nuclear Repulsion Energy =            323.1298758836568368
    One-Electron Energy =               -1110.3171570355827953
    Two-Electron Energy =                 442.2918531093409911
    DFT Exchange-Correlation Energy =       0.0000000000000000
    Empirical Dispersion Energy =           0.0000000000000000
    PCM Polarization Energy =               0.0000000000000000
    EFP Energy =                            0.0000000000000000
    Total Energy =                       -344.8954280425849674
    Molecular point group: c1
  Basis Set: 6-31G*
  Basis Set:

  -Total Gradient:
     Atom            X                  Y                   Z
    ------   -----------------  -----------------  -----------------
       1        0.000142893178    -0.001518486578    -0.002591227658
       2        0.000412141901     0.002755256400     0.002698976228
       3       -0.000007891702     0.000039744661    -0.000008074975
       4       -0.001868276473    -0.002155056234     0.001844621021
       5        0.000007475746    -0.000015706091     0.000010234468
       6        0.000005720793    -0.000009786036    -0.000002511463
       7        0.000011675307    -0.000014762635     0.000009524681
       8        0.001278483547     0.000930224045    -0.001980723425
       9        0.000011590185     0.000013429085    -0.000006272815
      10        0.000025255705    -0.000004196602     0.000030608787
      11        0.000002840939    -0.000014039324     0.000013129492
      12       -0.000004001936     0.000003342145    -0.000000256425
      13       -0.000004111771    -0.000003000768     0.000002689154
      14       -0.000007129655    -0.000000882807    -0.000005268314
      15       -0.000010973134     0.000000922938     0.000013386566
      16        0.000001659407    -0.000010672875    -0.000024010889
      17        0.000002647964     0.000003670673    -0.000004824433

  **** Optimization is complete! (in 13 steps) ****
    Final optimized geometry and variables:
    Molecular point group: c1

    Geometry (in Angstrom), charge = 0, multiplicity = 1:

    O           -0.681845112661     1.982958926853    -0.508014849022
    C           -0.779022792738     0.959243398749     0.075206204698
    C           -2.107498097658     0.326006721287     0.417968684777
    O            0.312482550126     0.301380307459     0.505257628418
    H           -2.318125297120    -0.496923457887    -0.257611327008
    H           -2.887407709030     1.065081512414     0.308693148299
    H           -2.097608152154    -0.064081876440     1.428468718973
    C            0.588829005218    -1.023181736504     0.051822326680
    C            1.730120054867    -1.527329816887     0.916260673505
    C            0.932437819480    -1.012756336836    -1.431064021123
    H           -0.284805604822    -1.645212768120     0.221534744986
    H            1.451063546614    -1.504134931567     1.963068207228
    H            1.985211249783    -2.547192498915     0.648028288490
    H            2.606118491341    -0.903052072656     0.781997150365
    H            1.171834720858    -2.016688589048    -1.766693187341
    H            0.105174214707    -0.647908337461    -2.031005686573
    H            1.786199621511    -0.370041004911    -1.612234185534

  Mulliken Charges: (a.u.)
   Center  Symbol    Alpha    Beta     Spin     Total
       1     O     4.25346  4.25346  0.00000 -0.50692
       2     C     2.61993  2.61993  0.00000  0.76014
       3     C     3.29880  3.29880  0.00000 -0.59759
       4     O     4.31825  4.31825  0.00000 -0.63650
       5     H     0.40401  0.40401  0.00000  0.19197
       6     H     0.39192  0.39192  0.00000  0.21617
       7     H     0.40198  0.40198  0.00000  0.19604
       8     C     2.92872  2.92872  0.00000  0.14257
       9     C     3.24073  3.24073  0.00000 -0.48146
      10     C     3.24871  3.24871  0.00000 -0.49741
      11     H     0.42095  0.42095  0.00000  0.15811
      12     H     0.41019  0.41019  0.00000  0.17962
      13     H     0.41867  0.41867  0.00000  0.16265
      14     H     0.40843  0.40843  0.00000  0.18314
      15     H     0.41695  0.41695  0.00000  0.16610
      16     H     0.41345  0.41345  0.00000  0.17311
      17     H     0.40487  0.40487  0.00000  0.19027

   Total alpha = 28.00000, Total beta = 28.00000, Total charge =  0.00000
