  ==> Input File <==

--------------------------------------------------------------------------
set {
	reference rhf
	basis 6-31G*
}

set_num_threads( 1 )
memory 2 gb

molecule MOL {
0 1

O	 3.225979	 0.970355	 -0.599647
C	 2.701189	 0.057885	 -0.047330
C	 1.245376	 -0.013843	 0.345420
O	 3.347903	 -1.046386	 0.304773
C	 0.455112	 1.231400	 -0.050772
H	 0.838542	 -0.913825	 -0.103701
H	 1.208210	 -0.175333	 1.419774
C	 -0.998893	 1.219485	 0.433193
H	 0.482531	 1.345121	 -1.130325
H	 0.957290	 2.103070	 0.354729
C	 -1.883438	 0.145884	 -0.207175
H	 -1.431207	 2.195402	 0.224832
H	 -1.019646	 1.105716	 1.516076
C	 -3.347647	 0.245583	 0.225435
H	 -1.822183	 0.231698	 -1.291012
H	 -1.510341	 -0.844814	 0.042401
C	 -3.715062	 -0.725047	 1.349274
H	 -3.990047	 0.059210	 -0.633531
H	 -3.559331	 1.263878	 0.547869
C	 -5.179877	 -0.621799	 1.772781
H	 -3.503211	 -1.743016	 1.029117
H	 -3.076936	 -0.537414	 2.210303
H	 -5.409438	 -1.321617	 2.570380
H	 -5.844561	 -0.838536	 0.941267
H	 -5.415046	 0.376542	 2.130950
C	 4.728119	 -1.109107	 -0.004993
H	 4.882018	 -1.033965	 -1.071845
H	 5.068212	 -2.067527	 0.355250
H	 5.265056	 -0.311663	 0.488280

	symmetry c1
}
set optking {
	frozen_dihedral = ("
		21 17 14 11,
		15 11 8 5,
		6 3 5 9,
		11 8 5 9,
		2 4 26 27,
		1 2 4 26,
		6 3 2 1
	")
}

ee = energy('scf')
oeprop('DIPOLE', 'QUADRUPOLE', 'MULLIKEN_CHARGES')
f=open( 'psi4out.xyz', 'w' )
f.write( "29  " )
f.write( str(ee) + "\n" )
f.write( MOL.save_string_xyz() )
f.close()
--------------------------------------------------------------------------

    Molecular point group: c1

    Geometry (in Angstrom), charge = 0, multiplicity = 1:

       Center              X                  Y                   Z               Mass
    ------------   -----------------  -----------------  -----------------  -----------------
           O          3.129936732524     0.952436612701    -0.920580624537    15.994914619560
           C          2.605146732524     0.039966612701    -0.368263624537    12.000000000000
           C          1.149333732524    -0.031761387299     0.024486375463    12.000000000000
           O          3.251860732524    -1.064304387299    -0.016160624537    15.994914619560
           C          0.359069732524     1.213481612701    -0.371705624537    12.000000000000
           H          0.742499732524    -0.931743387299    -0.424634624537     1.007825032070
           H          1.112167732524    -0.193251387299     1.098840375463     1.007825032070
           C         -1.094935267476     1.201566612701     0.112259375463    12.000000000000
           H          0.386488732524     1.327202612701    -1.451258624537     1.007825032070
           H          0.861247732524     2.085151612701     0.033795375463     1.007825032070
           C         -1.979480267476     0.127965612701    -0.528108624537    12.000000000000
           H         -1.527249267476     2.177483612701    -0.096101624537     1.007825032070
           H         -1.115688267476     1.087797612701     1.195142375463     1.007825032070
           C         -3.443689267476     0.227664612701    -0.095498624537    12.000000000000
           H         -1.918225267476     0.213779612701    -1.611945624537     1.007825032070
           H         -1.606383267476    -0.862732387299    -0.278532624537     1.007825032070
           C         -3.811104267476    -0.742965387299     1.028340375463    12.000000000000
           H         -4.086089267476     0.041291612701    -0.954464624537     1.007825032070
           H         -3.655373267476     1.245959612701     0.226935375463     1.007825032070
           C         -5.275919267476    -0.639717387299     1.451847375463    12.000000000000
           H         -3.599253267476    -1.760934387299     0.708183375463     1.007825032070
           H         -3.172978267476    -0.555332387299     1.889369375463     1.007825032070
           H         -5.505480267476    -1.339535387299     2.249446375463     1.007825032070
           H         -5.940603267476    -0.856454387299     0.620333375463     1.007825032070
           H         -5.511088267476     0.358623612701     1.810016375463     1.007825032070
           C          4.632076732524    -1.127025387299    -0.325926624537    12.000000000000
           H          4.785975732524    -1.051883387299    -1.392778624537     1.007825032070
           H          4.972169732524    -2.085445387299     0.034316375463     1.007825032070
           H          5.169013732524    -0.329581387299     0.167346375463     1.007825032070

  Charge       = 0
  Multiplicity = 1
  Basis Set: 6-31G*
  Basis Set:

    Orbital Energies (a.u.)
    -----------------------

    Doubly Occupied:

       1A    -20.603314     2A    -20.545154     3A    -11.371929
       4A    -11.280616     5A    -11.234674     6A    -11.218820
       7A    -11.217724     8A    -11.216300     9A    -11.214792
      10A    -11.213235    11A    -11.208959    12A     -1.469012
      13A     -1.362455    14A     -1.098560    15A     -1.066602
      16A     -1.018648    17A     -0.977160    18A     -0.928559
      19A     -0.861288    20A     -0.807313    21A     -0.785475
      22A     -0.763508    23A     -0.700420    24A     -0.682262
      25A     -0.671852    26A     -0.635833    27A     -0.632695
      28A     -0.613281    29A     -0.596150    30A     -0.580306
      31A     -0.561613    32A     -0.557463    33A     -0.539907
      34A     -0.525119    35A     -0.515276    36A     -0.509581
      37A     -0.495394    38A     -0.480326    39A     -0.473704
      40A     -0.460783    41A     -0.456397    42A     -0.447810
      43A     -0.443277    44A     -0.435743

  @DF-RHF Final Energy:  -501.03975602226296

   => Energetics <=

    Nuclear Repulsion Energy =            614.6311831358236759
    One-Electron Energy =               -1900.3832109896618476
    Two-Electron Energy =                 784.7122718315749808
    DFT Exchange-Correlation Energy =       0.0000000000000000
    Empirical Dispersion Energy =           0.0000000000000000
    PCM Polarization Energy =               0.0000000000000000
    EFP Energy =                            0.0000000000000000
    Total Energy =                       -501.0397560222631910

  Mulliken Charges: (a.u.)
   Center  Symbol    Alpha    Beta     Spin     Total
       1     O     4.28597  4.28597  0.00000 -0.57194
       2     C     2.60485  2.60485  0.00000  0.79030
       3     C     3.20964  3.20964  0.00000 -0.41928
       4     O     4.30746  4.30746  0.00000 -0.61492
       5     C     3.15393  3.15393  0.00000 -0.30786
       6     H     0.39882  0.39882  0.00000  0.20236
       7     H     0.40132  0.40132  0.00000  0.19736
       8     C     3.15824  3.15824  0.00000 -0.31649
       9     H     0.41304  0.41304  0.00000  0.17392
      10     H     0.40891  0.40891  0.00000  0.18218
      11     C     3.15815  3.15815  0.00000 -0.31629
      12     H     0.41766  0.41766  0.00000  0.16467
      13     H     0.42362  0.42362  0.00000  0.15275
      14     C     3.15311  3.15311  0.00000 -0.30623
      15     H     0.42027  0.42027  0.00000  0.15946
      16     H     0.42174  0.42174  0.00000  0.15652
      17     C     3.15304  3.15304  0.00000 -0.30608
      18     H     0.42089  0.42089  0.00000  0.15821
      19     H     0.42186  0.42186  0.00000  0.15629
      20     C     3.23962  3.23962  0.00000 -0.47924
      21     H     0.42277  0.42277  0.00000  0.15447
      22     H     0.42338  0.42338  0.00000  0.15324
      23     H     0.41947  0.41947  0.00000  0.16105
      24     H     0.42153  0.42153  0.00000  0.15695
      25     H     0.42155  0.42155  0.00000  0.15689
      26     C     3.09239  3.09239  0.00000 -0.18479
      27     H     0.40909  0.40909  0.00000  0.18182
      28     H     0.40853  0.40853  0.00000  0.18295
      29     H     0.40914  0.40914  0.00000  0.18173

   Total alpha = 44.00000, Total beta = 44.00000, Total charge = -0.00000
