  ==> Input File <==

--------------------------------------------------------------------------
set {
	reference rhf
	basis 6-31G*
}

set_num_threads( 4 )
memory 2 gb

molecule MOL {
0 1

O	 0.391030	 1.298905	 0.000133
C	 0.503002	 0.111612	 0.000005
C	 -0.702327	 -0.811998	 -0.000075
C	 1.863306	 -0.554493	 0.000030
C	 -1.568946	 -0.684997	 1.246919
H	 -1.282445	 -0.603834	 -0.897238
H	 -0.341354	 -1.832060	 -0.118126
H	 -1.950049	 0.323268	 1.353607
H	 -2.412017	 -1.365788	 1.192035
H	 -1.000615	 -0.915849	 2.139626
H	 1.974395	 -1.189404	 -0.874166
H	 2.638695	 0.198920	 -0.000196
H	 1.974487	 -1.188655	 0.874727

	symmetry c1
}
set optking {
	frozen_dihedral = ("
		6 3 2 1
	")
}

ee = optimize('scf')
oeprop('DIPOLE', 'QUADRUPOLE', 'MULLIKEN_CHARGES')
f=open( 'psi4out.xyz', 'w' )
f.write( "13  " )
f.write( str(ee) + "\n" )
f.write( MOL.save_string_xyz() )
f.close()
--------------------------------------------------------------------------

    Molecular point group: c1
  Charge       = 0
  Multiplicity = 1
  Basis Set: 6-31G*
  Basis Set:
  @DF-RHF Final Energy:  -230.99473370514352
    Total Energy =                       -230.9947337051436307
    Molecular point group: c1
  Basis Set: 6-31G*
  Basis Set:
  Basis Set: 6-31G*
  Basis Set:
  @DF-RHF Final Energy:  -230.99546704356857
    Total Energy =                       -230.9954670435684534
  Basis Set: 6-31G*
  Basis Set:
  Basis Set: 6-31G*
  Basis Set:
  @DF-RHF Final Energy:  -230.99458165987912
    Total Energy =                       -230.9945816598790316
  Basis Set: 6-31G*
  Basis Set:
  Basis Set: 6-31G*
  Basis Set:
  @DF-RHF Final Energy:  -230.99551607438414
    Total Energy =                       -230.9955160743841134
  Basis Set: 6-31G*
  Basis Set:
  Charge       = 0
  Multiplicity = 1
  Basis Set: 6-31G*
  Basis Set:

    Orbital Energies (a.u.)
    -----------------------

    Doubly Occupied:

       1A    -20.548915     2A    -11.326421     3A    -11.233271
       4A    -11.229601     5A    -11.222706     6A     -1.395124
       7A     -1.062178     8A     -0.999977     9A     -0.879932
      10A     -0.732392    11A     -0.656592    12A     -0.644357
      13A     -0.610079    14A     -0.588800    15A     -0.570813
      16A     -0.534685    17A     -0.523361    18A     -0.502605
      19A     -0.478710    20A     -0.400244

  @DF-RHF Final Energy:  -230.99552296002886

   => Energetics <=

    Nuclear Repulsion Energy =            176.8613542627245181
    One-Electron Energy =                -663.4322309183780817
    Two-Electron Energy =                 255.5753536956244716
    DFT Exchange-Correlation Energy =       0.0000000000000000
    Empirical Dispersion Energy =           0.0000000000000000
    PCM Polarization Energy =               0.0000000000000000
    EFP Energy =                            0.0000000000000000
    Total Energy =                       -230.9955229600291204
    Molecular point group: c1
  Basis Set: 6-31G*
  Basis Set:

  -Total Gradient:
     Atom            X                  Y                   Z
    ------   -----------------  -----------------  -----------------
       1       -0.000007192482    -0.000078029908    -0.000627458331
       2       -0.000038245152     0.000153716353     0.000920694823
       3        0.000356956271    -0.000522104516    -0.000602652402
       4        0.000041665214    -0.000029543217    -0.000003356321
       5        0.000060023714    -0.000041024613    -0.000056893319
       6       -0.000331397805     0.000435094400     0.000299417232
       7       -0.000009483486     0.000055155426     0.000022120630
       8       -0.000011093529     0.000007393714    -0.000001464819
       9       -0.000005083557    -0.000002314065     0.000002659255
      10       -0.000019763375    -0.000001855439     0.000048237536
      11       -0.000012422284     0.000002697207    -0.000008217574
      12       -0.000009620737     0.000006678858     0.000003913440
      13       -0.000014342792     0.000014135801     0.000002999853

  **** Optimization is complete! (in 5 steps) ****
    Final optimized geometry and variables:
    Molecular point group: c1

    Geometry (in Angstrom), charge = 0, multiplicity = 1:

    O            0.255683421036     1.404186221436    -0.218881353980
    C            0.412072967188     0.221816710464    -0.251884873084
    C           -0.785031954495    -0.717780064603    -0.268162948805
    C            1.790258284121    -0.397872116244    -0.282592408529
    C           -1.664942653041    -0.527645074001     0.971599790934
    H           -1.362394578915    -0.481510043012    -1.157243527199
    H           -0.461942702906    -1.750169764600    -0.351351342746
    H           -1.991394817517     0.501751475032     1.046412866002
    H           -2.540903345039    -1.164785181834     0.917345885162
    H           -1.126687449193    -0.778929178772     1.880632888968
    H            1.910847241976    -0.993275635631    -1.183563676327
    H            2.545307961313     0.375184676598    -0.253190702604
    H            1.917933270791    -1.068395355629     0.562990993169

  Mulliken Charges: (a.u.)
   Center  Symbol    Alpha    Beta     Spin     Total
       1     O     4.26248  4.26248  0.00000 -0.52496
       2     C     2.73705  2.73705  0.00000  0.52591
       3     C     3.20122  3.20122  0.00000 -0.40243
       4     C     3.28925  3.28925  0.00000 -0.57850
       5     C     3.24442  3.24442  0.00000 -0.48883
       6     H     0.40112  0.40112  0.00000  0.19777
       7     H     0.41587  0.41587  0.00000  0.16826
       8     H     0.40170  0.40170  0.00000  0.19660
       9     H     0.41490  0.41490  0.00000  0.17019
      10     H     0.41878  0.41878  0.00000  0.16243
      11     H     0.40772  0.40772  0.00000  0.18457
      12     H     0.39694  0.39694  0.00000  0.20612
      13     H     0.40856  0.40856  0.00000  0.18287

   Total alpha = 20.00000, Total beta = 20.00000, Total charge =  0.00000
