  ==> Input File <==

--------------------------------------------------------------------------
set {
	reference rhf
	basis 6-31G*
}

set_num_threads( 4 )
memory 2 gb

molecule MOL {
0 1

H	 1.838058	 -1.298927	 0.134493
C	 1.951159	 -0.223429	 0.317018
C	 0.692068	 0.589600	 0.160137
O	 3.011331	 0.223023	 0.615088
C	 -0.558097	 -0.297372	 0.091132
H	 0.791645	 1.202255	 -0.728243
H	 0.616171	 1.253469	 1.020572
C	 -1.850991	 0.512573	 -0.019058
H	 -0.476753	 -0.965681	 -0.762987
H	 -0.604799	 -0.930658	 0.975228
C	 -3.096943	 -0.368295	 -0.099594
H	 -1.800724	 1.150330	 -0.898172
H	 -1.931651	 1.177355	 0.838044
H	 -3.060452	 -1.020287	 -0.967456
H	 -3.996858	 0.233488	 -0.175704
H	 -3.191959	 -0.995686	 0.782074

	symmetry c1
}
set optking {
	frozen_dihedral = ("
		4 2 3 6
	")
}

ee = optimize('scf')
oeprop('DIPOLE', 'QUADRUPOLE', 'MULLIKEN_CHARGES')
f=open( 'psi4out.xyz', 'w' )
f.write( "16  " )
f.write( str(ee) + "\n" )
f.write( MOL.save_string_xyz() )
f.close()
--------------------------------------------------------------------------

    Molecular point group: c1
  Charge       = 0
  Multiplicity = 1
  Basis Set: 6-31G*
  Basis Set:
  @DF-RHF Final Energy:  -270.01846039128634
    Total Energy =                       -270.0184603912861689
    Molecular point group: c1
  Basis Set: 6-31G*
  Basis Set:
  Basis Set: 6-31G*
  Basis Set:
  @DF-RHF Final Energy:  -270.01880708280328
    Total Energy =                       -270.0188070828030504
  Basis Set: 6-31G*
  Basis Set:
  Basis Set: 6-31G*
  Basis Set:
  @DF-RHF Final Energy:  -270.01882329637249
    Total Energy =                       -270.0188232963723749
  Basis Set: 6-31G*
  Basis Set:
  Basis Set: 6-31G*
  Basis Set:
  @DF-RHF Final Energy:  -270.01890727019804
    Total Energy =                       -270.0189072701979853
  Basis Set: 6-31G*
  Basis Set:
  Basis Set: 6-31G*
  Basis Set:
  @DF-RHF Final Energy:  -270.01892836353358
    Total Energy =                       -270.0189283635337461
  Basis Set: 6-31G*
  Basis Set:
  Charge       = 0
  Multiplicity = 1
  Basis Set: 6-31G*
  Basis Set:

    Orbital Energies (a.u.)
    -----------------------

    Doubly Occupied:

       1A    -20.561516     2A    -11.327744     3A    -11.235709
       4A    -11.234463     5A    -11.229294     6A    -11.218633
       7A     -1.402465     8A     -1.096593     9A     -1.018366
      10A     -0.904605    11A     -0.812066    12A     -0.796859
      13A     -0.665994    14A     -0.656689    15A     -0.631050
      16A     -0.601823    17A     -0.589798    18A     -0.542748
      19A     -0.536297    20A     -0.496008    21A     -0.489942
      22A     -0.486150    23A     -0.477485    24A     -0.409393

  @DF-RHF Final Energy:  -270.01892911622190

   => Energetics <=

    Nuclear Repulsion Energy =            228.0483023329577748
    One-Electron Energy =                -817.2910815523059682
    Two-Electron Energy =                 319.2238501031263240
    DFT Exchange-Correlation Energy =       0.0000000000000000
    Empirical Dispersion Energy =           0.0000000000000000
    PCM Polarization Energy =               0.0000000000000000
    EFP Energy =                            0.0000000000000000
    Total Energy =                       -270.0189291162218979
    Molecular point group: c1
  Basis Set: 6-31G*
  Basis Set:

  -Total Gradient:
     Atom            X                  Y                   Z
    ------   -----------------  -----------------  -----------------
       1        0.000000516785    -0.000010423847     0.000011161520
       2       -0.000121217021    -0.000041717911     0.000886072933
       3       -0.000203306820    -0.000460922322    -0.000602573907
       4        0.000119307141     0.000091087175    -0.000589970266
       5       -0.000001297572    -0.000004634945    -0.000049977302
       6        0.000185734887     0.000413060996     0.000335805986
       7        0.000013442145     0.000007756803     0.000025848216
       8        0.000005199879     0.000001679179    -0.000017952711
       9       -0.000004049128    -0.000034831553    -0.000001690293
      10        0.000013502915     0.000037019446    -0.000004310640
      11       -0.000003370853     0.000000516114     0.000004545952
      12        0.000000547887    -0.000004636031     0.000001251427
      13       -0.000005033751     0.000006038869    -0.000001316585
      14        0.000001852790     0.000004157136    -0.000000371831
      15       -0.000000484329    -0.000000352615     0.000003711308
      16       -0.000001344963    -0.000003796496    -0.000000233807

  **** Optimization is complete! (in 6 steps) ****
    Final optimized geometry and variables:
    Molecular point group: c1

    Geometry (in Angstrom), charge = 0, multiplicity = 1:

    H            1.878707000668    -1.367733881765    -0.092276269851
    C            1.948345227939    -0.295318203880     0.125379304594
    C            0.662673923722     0.494150326289     0.013105355335
    O            2.995064735001     0.187576720473     0.412754554479
    C           -0.589708490113    -0.377485693196    -0.070095709291
    H            0.751300240403     1.122680203606    -0.871007141563
    H            0.619034060477     1.171043190254     0.861047588204
    C           -1.875723622540     0.439166311802    -0.202793806222
    H           -0.504946796502    -1.054309145581    -0.918565736848
    H           -0.653218680416    -1.006341049952     0.816211106313
    C           -3.127556192032    -0.432996205881    -0.284309911642
    H           -1.812604992133     1.066159153494    -1.089367136369
    H           -1.960386727724     1.115857120385     0.644355092409
    H           -3.087887187829    -1.097216406691    -1.142870175494
    H           -4.022086416270     0.174365099823    -0.377261574465
    H           -3.235965464941    -1.047751891631     0.604584940168

  Mulliken Charges: (a.u.)
   Center  Symbol    Alpha    Beta     Spin     Total
       1     H     0.42892  0.42892  0.00000  0.14216
       2     C     2.83437  2.83437  0.00000  0.33125
       3     C     3.20720  3.20720  0.00000 -0.41440
       4     O     4.24052  4.24052  0.00000 -0.48104
       5     C     3.16398  3.16398  0.00000 -0.32797
       6     H     0.40045  0.40045  0.00000  0.19910
       7     H     0.39851  0.39851  0.00000  0.20297
       8     C     3.15200  3.15200  0.00000 -0.30399
       9     H     0.41948  0.41948  0.00000  0.16103
      10     H     0.41791  0.41791  0.00000  0.16419
      11     C     3.24016  3.24016  0.00000 -0.48032
      12     H     0.42023  0.42023  0.00000  0.15955
      13     H     0.41943  0.41943  0.00000  0.16114
      14     H     0.42039  0.42039  0.00000  0.15922
      15     H     0.41638  0.41638  0.00000  0.16725
      16     H     0.42007  0.42007  0.00000  0.15987

   Total alpha = 24.00000, Total beta = 24.00000, Total charge = -0.00000
