  ==> Input File <==

--------------------------------------------------------------------------
set {
	reference rhf
	basis 6-31G*
}

set_num_threads( 4 )
memory 2 gb

molecule MOL {
0 1

H	 -2.646374	 -0.642757	 1.268656
C	 -2.083525	 -0.384536	 0.393091
O	 -0.807605	 -0.127164	 0.768327
F	 -2.118945	 -1.383102	 -0.486752
F	 -2.621877	 0.670592	 -0.209486
C	 0.084052	 0.273579	 -0.209957
C	 0.701338	 -0.990610	 -0.793859
Cl	 1.338009	 1.323226	 0.470519
H	 -0.397245	 0.813977	 -1.006259
F	 1.556654	 -0.686522	 -1.746805
F	 -0.256661	 -1.725267	 -1.322967
F	 1.318510	 -1.705236	 0.115197

	symmetry c1
}
set optking {
	frozen_dihedral = ("
		9 6 3 2
	")
}

ee = optimize('scf')
oeprop('DIPOLE', 'QUADRUPOLE', 'MULLIKEN_CHARGES')
f=open( 'psi4out.xyz', 'w' )
f.write( "12  " )
f.write( str(ee) + "\n" )
f.write( MOL.save_string_xyz() )
f.close()
--------------------------------------------------------------------------

    Molecular point group: c1
  Charge       = 0
  Multiplicity = 1
  Basis Set: 6-31G*
  Basis Set:
  @DF-RHF Final Energy: -1146.29171938854529
    Total Energy =                      -1146.2917193885448341
    Molecular point group: c1
  Basis Set: 6-31G*
  Basis Set:
  Basis Set: 6-31G*
  Basis Set:
  @DF-RHF Final Energy: -1146.30352047597944
    Total Energy =                      -1146.3035204759803491
  Basis Set: 6-31G*
  Basis Set:
  Basis Set: 6-31G*
  Basis Set:
  @DF-RHF Final Energy: -1146.30731105665927
    Total Energy =                      -1146.3073110566581363
  Basis Set: 6-31G*
  Basis Set:
  Basis Set: 6-31G*
  Basis Set:
  @DF-RHF Final Energy: -1146.30882870292044
    Total Energy =                      -1146.3088287029204366
  Basis Set: 6-31G*
  Basis Set:
  @DF-RHF Final Energy: -1146.30919468287493
    Total Energy =                      -1146.3091946828744767
  @DF-RHF Final Energy: -1146.30932077591615
    Total Energy =                      -1146.3093207759168308
  Basis Set: 6-31G*
  Basis Set:
  @DF-RHF Final Energy: -1146.30936903989959
    Total Energy =                      -1146.3093690399000479
  Basis Set: 6-31G*
  Basis Set:
  Basis Set: 6-31G*
  Basis Set:
  @DF-RHF Final Energy: -1146.30939434213610
    Total Energy =                      -1146.3093943421354197
  Basis Set: 6-31G*
  Basis Set:
  Basis Set: 6-31G*
  Basis Set:
  @DF-RHF Final Energy: -1146.30940362966612
    Total Energy =                      -1146.3094036296661216
  Basis Set: 6-31G*
  Basis Set:
  Charge       = 0
  Multiplicity = 1
  Basis Set: 6-31G*
  Basis Set:

    Orbital Energies (a.u.)
    -----------------------

    Doubly Occupied:

       1A   -104.845192     2A    -26.358799     3A    -26.358629
       4A    -26.357164     5A    -26.348878     6A    -26.342134
       7A    -20.647436     8A    -11.526994     9A    -11.489378
      10A    -11.401929    11A    -10.579796    12A     -8.049171
      13A     -8.045590    14A     -8.045503    15A     -1.761034
      16A     -1.716773    17A     -1.656844    18A     -1.655991
      19A     -1.638271    20A     -1.481264    21A     -1.181433
      22A     -1.045084    23A     -0.991015    24A     -0.918037
      25A     -0.852824    26A     -0.850852    27A     -0.843104
      28A     -0.834475    29A     -0.815365    30A     -0.790635
      31A     -0.725651    32A     -0.724191    33A     -0.707678
      34A     -0.695047    35A     -0.675146    36A     -0.673435
      37A     -0.658209    38A     -0.657082    39A     -0.646399
      40A     -0.639190    41A     -0.591319    42A     -0.568784
      43A     -0.526841    44A     -0.478463    45A     -0.469059

  @DF-RHF Final Energy: -1146.30940419018498

   => Energetics <=

    Nuclear Repulsion Energy =            741.7316864446164573
    One-Electron Energy =               -3066.3500119580658065
    Two-Electron Energy =                1178.3089213232644852
    DFT Exchange-Correlation Energy =       0.0000000000000000
    Empirical Dispersion Energy =           0.0000000000000000
    PCM Polarization Energy =               0.0000000000000000
    EFP Energy =                            0.0000000000000000
    Total Energy =                      -1146.3094041901847504
    Molecular point group: c1
  Basis Set: 6-31G*
  Basis Set:

  -Total Gradient:
     Atom            X                  Y                   Z
    ------   -----------------  -----------------  -----------------
       1       -0.000021497709    -0.000023443748     0.000006653485
       2        0.000686121671    -0.003748778521    -0.000765186543
       3       -0.000817943387     0.006727289909     0.001818092839
       4        0.000004839824     0.000104591651     0.000030468099
       5        0.000023058825    -0.000055858635    -0.000008081899
       6       -0.000745069133    -0.006717973285    -0.003390179297
       7       -0.000055830884     0.000043258908    -0.000053518746
       8       -0.000044768612    -0.000009839206     0.000020740847
       9        0.000910080477     0.003753332754     0.002331628971
      10       -0.000019718569    -0.000035348977    -0.000037324239
      11        0.000109083812     0.000006794730     0.000051061008
      12       -0.000028356381    -0.000044025725    -0.000004354541

  **** Optimization is complete! (in 10 steps) ****
    Final optimized geometry and variables:
    Molecular point group: c1

    Geometry (in Angstrom), charge = 0, multiplicity = 1:

    H           -2.540709424465    -0.045697357861     1.634899572479
    C           -2.005264439283    -0.011005541017     0.706096420937
    O           -0.693253548249     0.183730915979     0.996796128226
    F           -2.202635475343    -1.135261686201     0.033768580638
    F           -2.470784937000     0.980508723621    -0.052840495053
    C            0.208912291603     0.567938604421     0.015367883077
    C            0.918072792706    -0.635662645959    -0.601997363771
    CL           1.402021554258     1.619100694824     0.798740302963
    H           -0.256455725187     1.158466640306    -0.753765533149
    F            1.860958805022    -0.230869191982    -1.427066162316
    F            0.061892101948    -1.353902481155    -1.298366140527
    F            1.456768743922    -1.404612007322     0.312913907838

  Mulliken Charges: (a.u.)
   Center  Symbol    Alpha    Beta     Spin     Total
       1     H     0.40394  0.40394  0.00000  0.19211
       2     C     2.56259  2.56259  0.00000  0.87482
       3     O     4.30304  4.30304  0.00000 -0.60607
       4     F     4.67982  4.67982  0.00000 -0.35963
       5     F     4.68772  4.68772  0.00000 -0.37544
       6     C     3.05029  3.05029  0.00000 -0.10057
       7     C     2.43726  2.43726  0.00000  1.12548
       8    CL     8.49617  8.49617  0.00000  0.00767
       9     H     0.36488  0.36488  0.00000  0.27023
      10     F     4.67310  4.67310  0.00000 -0.34621
      11     F     4.67352  4.67352  0.00000 -0.34703
      12     F     4.66768  4.66768  0.00000 -0.33536

   Total alpha = 45.00000, Total beta = 45.00000, Total charge = -0.00000
