  ==> Input File <==

--------------------------------------------------------------------------
set {
	reference rhf
	basis cc-pvtz
}

set_num_threads( 4 )
memory 2 gb

molecule MOL {
0 1

H	 2.342730	 0.877684	 -1.045694
C	 2.360424	 0.000000	 -0.411793
C	 1.173749	 0.000000	 0.526870
H	 3.286567	 0.000000	 0.151574
H	 2.342730	 -0.877684	 -1.045694
O	 -0.000000	 0.000000	 -0.223739
H	 1.203779	 0.876757	 1.172538
H	 1.203779	 -0.876757	 1.172538
C	 -1.173749	 0.000000	 0.526870
C	 -1.987305	 1.225252	 0.171664
H	 -0.936785	 0.000000	 1.590044
H	 -1.746167	 -0.904340	 0.324390
H	 -1.427647	 2.127271	 0.385247
H	 -2.907096	 1.246110	 0.744964
H	 -2.237885	 1.221975	 -0.881745

	symmetry c1
}
set optking {
	frozen_dihedral = ("
		11 9 6 3
	")
}

ee = optimize('scf')
oeprop('DIPOLE', 'QUADRUPOLE', 'MULLIKEN_CHARGES')
f=open( 'psi4out.xyz', 'w' )
f.write( "15  " )
f.write( str(ee) + "\n" )
f.write( MOL.save_string_xyz() )
f.close()
--------------------------------------------------------------------------

    Molecular point group: c1
  Charge       = 0
  Multiplicity = 1
  Basis Set: CC-PVTZ
  Basis Set:
  @DF-RHF Final Energy:  -232.22937703208609
    Total Energy =                       -232.2293770320862905
    Molecular point group: c1
  Basis Set: CC-PVTZ
  Basis Set:
  Basis Set: CC-PVTZ
  Basis Set:
  @DF-RHF Final Energy:  -232.22974393353797
    Total Energy =                       -232.2297439335380318
  Basis Set: CC-PVTZ
  Basis Set:
  Basis Set: CC-PVTZ
  Basis Set:
  @DF-RHF Final Energy:  -232.22984579812939
    Total Energy =                       -232.2298457981293609
  Basis Set: CC-PVTZ
  Basis Set:
  Charge       = 0
  Multiplicity = 1
  Basis Set: CC-PVTZ
  Basis Set:

    Orbital Energies (a.u.)
    -----------------------

    Doubly Occupied:

       1A    -20.542040     2A    -11.267022     3A    -11.265799
       4A    -11.207327     5A    -11.206806     6A     -1.376510
       7A     -1.043521     8A     -0.984277     9A     -0.852795
      10A     -0.822462    11A     -0.672684    12A     -0.661889
      13A     -0.630059    14A     -0.578126    15A     -0.551985
      16A     -0.538415    17A     -0.522861    18A     -0.500276
      19A     -0.486405    20A     -0.463942    21A     -0.407257

  @DF-RHF Final Energy:  -232.22984665814391

   => Energetics <=

    Nuclear Repulsion Energy =            191.5967996415911898
    One-Electron Energy =                -694.4883795416541261
    Two-Electron Energy =                 270.6617332419187960
    DFT Exchange-Correlation Energy =       0.0000000000000000
    Empirical Dispersion Energy =           0.0000000000000000
    PCM Polarization Energy =               0.0000000000000000
    EFP Energy =                            0.0000000000000000
    Total Energy =                       -232.2298466581441403
    Molecular point group: c1
  Basis Set: CC-PVTZ
  Basis Set:

  -Total Gradient:
     Atom            X                  Y                   Z
    ------   -----------------  -----------------  -----------------
       1       -0.000000093616    -0.000004729508     0.000001134333
       2        0.000015688858     0.000016117043     0.000015818789
       3        0.000070078724     0.000432429882    -0.000032756026
       4        0.000036767804     0.000001538283    -0.000003973306
       5       -0.000010163049     0.000012481334     0.000018085572
       6       -0.000105178157    -0.000842419905     0.000044151004
       7       -0.000023040736    -0.000010429906    -0.000032959192
       8       -0.000001276477     0.000010519694     0.000010123920
       9        0.000104438073     0.001030232172    -0.000068798057
      10       -0.000039419705    -0.000036218950     0.000009853181
      11       -0.000032504144    -0.000600824774     0.000032114235
      12       -0.000033832412     0.000017586470     0.000004822390
      13        0.000020899765    -0.000029099165     0.000006611523
      14       -0.000006793844     0.000002259660    -0.000001355982
      15        0.000004428919     0.000000557671    -0.000002872385

  **** Optimization is complete! (in 4 steps) ****
    Final optimized geometry and variables:
    Molecular point group: c1

    Geometry (in Angstrom), charge = 0, multiplicity = 1:

    H            2.262973306878     0.629990020724    -1.169186598346
    C            2.289021060397    -0.255348221001    -0.546185917127
    C            1.119028610996    -0.263571422728     0.412884361264
    H            3.224943848481    -0.265385305614     0.001139229241
    H            2.256971845807    -1.125083613575    -1.190457206707
    O           -0.066377499939    -0.251681838476    -0.321798124122
    H            1.164727506373     0.605715383259     1.067013045837
    H            1.161030555256    -1.148011755239     1.046604148195
    C           -1.256149766471    -0.227485570137     0.415117848419
    C           -2.090229132407     0.981890826072     0.040018962042
    H           -1.044305661633    -0.221854464428     1.480458930212
    H           -1.808151631967    -1.138916620907     0.206810334121
    H           -1.565015842317     1.899928117440     0.276426812739
    H           -3.032060340145     0.976357161520     0.578322766257
    H           -2.301957816859     0.977747652437    -1.021998949461

  Mulliken Charges: (a.u.)
   Center  Symbol    Alpha    Beta     Spin     Total
       1     H     0.45181  0.45181  0.00000  0.09638
       2     C     3.13754  3.13754  0.00000 -0.27508
       3     C     2.96460  2.96460  0.00000  0.07081
       4     H     0.45930  0.45930  0.00000  0.08139
       5     H     0.45142  0.45142  0.00000  0.09717
       6     O     4.18535  4.18535  0.00000 -0.37070
       7     H     0.47458  0.47458  0.00000  0.05084
       8     H     0.47152  0.47152  0.00000  0.05695
       9     C     2.97549  2.97549  0.00000  0.04901
      10     C     3.13409  3.13409  0.00000 -0.26817
      11     H     0.47144  0.47144  0.00000  0.05712
      12     H     0.45804  0.45804  0.00000  0.08391
      13     H     0.45587  0.45587  0.00000  0.08827
      14     H     0.45812  0.45812  0.00000  0.08376
      15     H     0.45082  0.45082  0.00000  0.09835

   Total alpha = 21.00000, Total beta = 21.00000, Total charge = -0.00000
