  ==> Input File <==

--------------------------------------------------------------------------
set {
	reference rhf
	basis 6-31G*
}

set_num_threads( 4 )
memory 2 gb

molecule MOL {
0 1

H	 1.183750	 -2.277570	 -2.222563
O	 1.013926	 -1.983530	 -1.332907
C	 0.019205	 -1.097767	 -1.372688
C	 -0.318135	 -0.576402	 0.000164
O	 -0.509369	 -0.785766	 -2.389674
C	 -1.454360	 0.441875	 -0.000474
H	 -0.557750	 -1.434217	 0.622853
H	 0.590966	 -0.152464	 0.418273
C	 -2.826123	 -0.230780	 0.000056
H	 -1.357605	 1.085198	 -0.868380
H	 -1.357504	 1.086451	 0.866496
H	 -2.959731	 -0.858053	 -0.876869
H	 -3.619374	 0.509403	 -0.000080
H	 -2.959371	 -0.857318	 0.877556

	symmetry c1
}
set optking {
	frozen_dihedral = ("
		7 4 6 10
	")
}

ee = optimize('scf')
oeprop('DIPOLE', 'QUADRUPOLE', 'MULLIKEN_CHARGES')
f=open( 'psi4out.xyz', 'w' )
f.write( "14  " )
f.write( str(ee) + "\n" )
f.write( MOL.save_string_xyz() )
f.close()
--------------------------------------------------------------------------

    Molecular point group: c1
  Charge       = 0
  Multiplicity = 1
  Basis Set: 6-31G*
  Basis Set:
  @DF-RHF Final Energy:  -305.87946917235990
    Total Energy =                       -305.8794691723598476
    Molecular point group: c1
  Basis Set: 6-31G*
  Basis Set:
  Basis Set: 6-31G*
  Basis Set:
  @DF-RHF Final Energy:  -305.87969143134535
    Total Energy =                       -305.8796914313453499
  Basis Set: 6-31G*
  Basis Set:
  Basis Set: 6-31G*
  Basis Set:
  @DF-RHF Final Energy:  -305.87939003236875
    Total Energy =                       -305.8793900323684625
  Basis Set: 6-31G*
  Basis Set:
  Basis Set: 6-31G*
  Basis Set:
  @DF-RHF Final Energy:  -305.87973359740175
    Total Energy =                       -305.8797335974019234
  Basis Set: 6-31G*
  Basis Set:
  Basis Set: 6-31G*
  Basis Set:
  @DF-RHF Final Energy:  -305.87973562808338
    Total Energy =                       -305.8797356280830400
  Basis Set: 6-31G*
  Basis Set:
  Basis Set: 6-31G*
  Basis Set:
  @DF-RHF Final Energy:  -305.87973721590720
    Total Energy =                       -305.8797372159071983
  Basis Set: 6-31G*
  Basis Set:
  Charge       = 0
  Multiplicity = 1
  Basis Set: 6-31G*
  Basis Set:

    Orbital Energies (a.u.)
    -----------------------

    Doubly Occupied:

       1A    -20.613848     2A    -20.553156     3A    -11.382495
       4A    -11.241441     5A    -11.225021     6A    -11.211197
       7A     -1.476084     8A     -1.367015     9A     -1.081262
      10A     -0.976136    11A     -0.859540    12A     -0.787716
      13A     -0.702174    14A     -0.693048    15A     -0.659026
      16A     -0.610835    17A     -0.596853    18A     -0.564716
      19A     -0.557778    20A     -0.494372    21A     -0.489458
      22A     -0.485940    23A     -0.477179    24A     -0.444603

  @DF-RHF Final Energy:  -305.87973782027689

   => Energetics <=

    Nuclear Repulsion Energy =            243.9838994720126948
    One-Electron Energy =                -900.6254923978416400
    Two-Electron Energy =                 350.7618551055518310
    DFT Exchange-Correlation Energy =       0.0000000000000000
    Empirical Dispersion Energy =           0.0000000000000000
    PCM Polarization Energy =               0.0000000000000000
    EFP Energy =                            0.0000000000000000
    Total Energy =                       -305.8797378202771142
    Molecular point group: c1
  Basis Set: 6-31G*
  Basis Set:

  -Total Gradient:
     Atom            X                  Y                   Z
    ------   -----------------  -----------------  -----------------
       1       -0.000003887454     0.000003824771     0.000002155870
       2        0.000015010932     0.000001927208     0.000013331024
       3       -0.000030665658    -0.000007556677    -0.000073782139
       4        0.001058996143     0.001206511185     0.002471793476
       5       -0.000020854241     0.000012341778     0.000046265342
       6        0.001677016944     0.001877321278     0.001187615484
       7       -0.001138326371    -0.001283366955    -0.002180943392
       8       -0.000025764262     0.000020409956     0.000002512773
       9       -0.000026745146    -0.000097790789    -0.000022013813
      10       -0.001519101923    -0.001753289191    -0.001438366836
      11       -0.000002344101    -0.000015391925    -0.000024088330
      12        0.000004932216     0.000010503947     0.000013704118
      13        0.000019636894     0.000023806450     0.000011747584
      14       -0.000007903971     0.000000748969    -0.000009931158

  **** Optimization is complete! (in 7 steps) ****
    Final optimized geometry and variables:
    Molecular point group: c1

    Geometry (in Angstrom), charge = 0, multiplicity = 1:

    H            1.812160158321    -1.573333274187    -1.339552579779
    O            1.645262855085    -1.275039826256    -0.450743874681
    C            0.679101065654    -0.358829524774    -0.496038900085
    C            0.358456916343     0.176324188562     0.878487419410
    O            0.166652019758    -0.032630110501    -1.517222249331
    C           -0.798675238728     1.176815557176     0.886969771442
    H            0.140789228842    -0.686878630086     1.501037682857
    H            1.273302819541     0.613771969836     1.266740773271
    C           -2.169771103039     0.499554644666     0.866564187366
    H           -0.716022739546     1.819818953383     0.018944283484
    H           -0.715080066872     1.802356247876     1.770086084816
    H           -2.287108116787    -0.113621432042    -0.020319193841
    H           -2.964577493656     1.238445521116     0.864919082489
    H           -2.309110820710    -0.134081538522     1.738416934103

  Mulliken Charges: (a.u.)
   Center  Symbol    Alpha    Beta     Spin     Total
       1     H     0.26767  0.26767  0.00000  0.46465
       2     O     4.35029  4.35029  0.00000 -0.70058
       3     C     2.62574  2.62574  0.00000  0.74853
       4     C     3.20993  3.20993  0.00000 -0.41986
       5     O     4.27988  4.27988  0.00000 -0.55976
       6     C     3.15670  3.15670  0.00000 -0.31341
       7     H     0.39848  0.39848  0.00000  0.20304
       8     H     0.39563  0.39563  0.00000  0.20873
       9     C     3.24473  3.24473  0.00000 -0.48946
      10     H     0.40324  0.40324  0.00000  0.19351
      11     H     0.41723  0.41723  0.00000  0.16555
      12     H     0.40988  0.40988  0.00000  0.18025
      13     H     0.41676  0.41676  0.00000  0.16648
      14     H     0.42383  0.42383  0.00000  0.15233

   Total alpha = 24.00000, Total beta = 24.00000, Total charge = -0.00000
