  ==> Input File <==

--------------------------------------------------------------------------
set {
	reference rhf
	basis 6-31G*
}

set_num_threads( 4 )
memory 2 gb

molecule MOL {
0 1

H	 -2.819912	 -0.161707	 -0.826227
O	 -2.315789	 -0.143634	 -0.024262
C	 -0.945151	 -0.064130	 -0.333158
H	 -0.813375	 -0.223047	 -1.403232
C	 -0.232801	 -1.184051	 0.407206
C	 -0.355424	 1.302939	 0.054523
H	 -0.318824	 -0.992899	 1.473524
H	 -0.742411	 -2.122033	 0.217954
C	 1.248522	 -1.270719	 -0.013048
H	 -0.546144	 2.018388	 -0.742941
H	 -0.890929	 1.656788	 0.930149
C	 1.156425	 1.235120	 0.355905
H	 1.825384	 -1.683246	 0.809111
H	 1.357782	 -1.965923	 -0.840362
C	 1.828244	 0.099899	 -0.419275
H	 1.626109	 2.185622	 0.123525
H	 1.309438	 1.071213	 1.419539
H	 2.901447	 0.112642	 -0.255830
H	 1.681817	 0.263413	 -1.484607

	symmetry c1
}
set optking {
	frozen_dihedral = ("
		1 2 3 4
	")
}

ee = optimize('scf')
oeprop('DIPOLE', 'QUADRUPOLE', 'MULLIKEN_CHARGES')
f=open( 'psi4out.xyz', 'w' )
f.write( "19  " )
f.write( str(ee) + "\n" )
f.write( MOL.save_string_xyz() )
f.close()
--------------------------------------------------------------------------

    Molecular point group: c1
  Charge       = 0
  Multiplicity = 1
  Basis Set: 6-31G*
  Basis Set:
  @DF-RHF Final Energy:  -309.04626715772184
    Total Energy =                       -309.0462671577216156
    Molecular point group: c1
  Basis Set: 6-31G*
  Basis Set:
  Basis Set: 6-31G*
  Basis Set:
  @DF-RHF Final Energy:  -309.04659535840165
    Total Energy =                       -309.0465953584018166
  Basis Set: 6-31G*
  Basis Set:
  Basis Set: 6-31G*
  Basis Set:
  @DF-RHF Final Energy:  -309.04669511768799
    Total Energy =                       -309.0466951176878752
  Basis Set: 6-31G*
  Basis Set:
  Charge       = 0
  Multiplicity = 1
  Basis Set: 6-31G*
  Basis Set:

    Orbital Energies (a.u.)
    -----------------------

    Doubly Occupied:

       1A    -20.548677     2A    -11.270113     3A    -11.215152
       4A    -11.214598     5A    -11.213623     6A    -11.207787
       7A    -11.207679     8A     -1.357051     9A     -1.106993
      10A     -0.999307    11A     -0.987807    12A     -0.840928
      13A     -0.832160    14A     -0.730560    15A     -0.710480
      16A     -0.654188    17A     -0.624115    18A     -0.591522
      19A     -0.561062    20A     -0.543288    21A     -0.538498
      22A     -0.516340    23A     -0.496348    24A     -0.487128
      25A     -0.460660    26A     -0.448801    27A     -0.430265
      28A     -0.405074

  @DF-RHF Final Energy:  -309.04669637482857

   => Energetics <=

    Nuclear Repulsion Energy =            331.0050577691392846
    One-Electron Energy =               -1075.7031003725937808
    Two-Electron Energy =                 435.6513462286255844
    DFT Exchange-Correlation Energy =       0.0000000000000000
    Empirical Dispersion Energy =           0.0000000000000000
    PCM Polarization Energy =               0.0000000000000000
    EFP Energy =                            0.0000000000000000
    Total Energy =                       -309.0466963748289118
    Molecular point group: c1
  Basis Set: 6-31G*
  Basis Set:

  -Total Gradient:
     Atom            X                  Y                   Z
    ------   -----------------  -----------------  -----------------
       1        0.000005255042    -0.000573674689     0.000005894718
       2        0.000021517737     0.000816404390    -0.000089783694
       3       -0.000062469699    -0.000699864236     0.000186617247
       4       -0.000056126508     0.000517047550    -0.000064183261
       5        0.000066598345     0.000029463921     0.000016909905
       6       -0.000020785289     0.000016271932    -0.000030782875
       7       -0.000018265323     0.000000313316     0.000007314425
       8       -0.000012468480     0.000002065932    -0.000004312016
       9        0.000001328159     0.000022356821     0.000004835459
      10       -0.000026379218    -0.000004074230    -0.000016454541
      11       -0.000005350491    -0.000034989948    -0.000026701894
      12        0.000010016516    -0.000053503328     0.000029501595
      13        0.000023041890     0.000003125465    -0.000011233201
      14        0.000022843451     0.000032527916    -0.000012163233
      15        0.000022487737    -0.000008372193     0.000006796559
      16        0.000013594434    -0.000016445071    -0.000007929777
      17        0.000010337697    -0.000002413809     0.000012364782
      18        0.000007511821    -0.000017893028     0.000002076734
      19       -0.000002687823    -0.000028346712    -0.000008766932

  **** Optimization is complete! (in 4 steps) ****
    Final optimized geometry and variables:
    Molecular point group: c1

    Geometry (in Angstrom), charge = 0, multiplicity = 1:

    H           -2.840452700979    -0.099859940996    -0.803072673401
    O           -2.322429146378    -0.102146649072    -0.013136571271
    C           -0.946442253959    -0.068976193846    -0.330425576488
    H           -0.823689275999    -0.227749504690    -1.400151465323
    C           -0.224787945251    -1.189066837062     0.406115423851
    C           -0.358672286551     1.299256459105     0.048986875927
    H           -0.316296659230    -1.003429522316     1.473078258057
    H           -0.727532272674    -2.130671117284     0.213448598048
    C            1.259708844408    -1.266684837524    -0.006833608220
    H           -0.551856229109     2.007302661245    -0.752918711617
    H           -0.903959916044     1.655983724118     0.915990188837
    C            1.150996790153     1.236775703739     0.359528416233
    H            1.836416764637    -1.672538199773     0.818842858051
    H            1.378177050431    -1.963832799080    -0.831555919725
    C            1.831865751117     0.106468385951    -0.414357671383
    H            1.618387551740     2.189795662677     0.132123331324
    H            1.300379077119     1.071039684716     1.423667266053
    H            2.905068336295     0.124595964285    -0.251098461605
    H            1.684710305239     0.268205705195    -1.480161584401

  Mulliken Charges: (a.u.)
   Center  Symbol    Alpha    Beta     Spin     Total
       1     H     0.28029  0.28029  0.00000  0.43941
       2     O     4.38046  4.38046  0.00000 -0.76092
       3     C     2.91480  2.91480  0.00000  0.17040
       4     H     0.43045  0.43045  0.00000  0.13909
       5     C     3.16448  3.16448  0.00000 -0.32896
       6     C     3.16350  3.16350  0.00000 -0.32699
       7     H     0.41595  0.41595  0.00000  0.16811
       8     H     0.41441  0.41441  0.00000  0.17118
       9     C     3.16121  3.16121  0.00000 -0.32242
      10     H     0.42306  0.42306  0.00000  0.15387
      11     H     0.40867  0.40867  0.00000  0.18266
      12     C     3.16460  3.16460  0.00000 -0.32920
      13     H     0.41784  0.41784  0.00000  0.16432
      14     H     0.41994  0.41994  0.00000  0.16012
      15     C     3.16377  3.16377  0.00000 -0.32753
      16     H     0.41727  0.41727  0.00000  0.16546
      17     H     0.41938  0.41938  0.00000  0.16123
      18     H     0.41682  0.41682  0.00000  0.16636
      19     H     0.42310  0.42310  0.00000  0.15380

   Total alpha = 28.00000, Total beta = 28.00000, Total charge =  0.00000
