  ==> Input File <==

--------------------------------------------------------------------------
set {
	reference rhf
	basis 6-31G*
}

set_num_threads( 1 )
memory 2 gb

molecule MOL {
0 1

O	 3.557191	 1.088218	 0.852264
C	 2.878148	 0.120418	 0.728480
C	 1.399463	 0.039291	 1.021226
O	 3.347903	 -1.046386	 0.304773
C	 0.809375	 1.363596	 1.500944
H	 0.915463	 -0.318478	 0.118489
H	 1.259458	 -0.742893	 1.763037
C	 -0.666793	 1.272135	 1.902263
H	 0.933974	 2.113526	 0.725574
H	 1.387328	 1.712215	 2.349978
C	 -1.630839	 0.969304	 0.751602
H	 -0.952182	 2.219156	 2.354401
H	 -0.785063	 0.519121	 2.680075
C	 -3.098741	 0.997298	 1.182273
H	 -1.476063	 1.695278	 -0.045157
H	 -1.409065	 -0.005757	 0.323766
C	 -4.071003	 0.690917	 0.041672
H	 -3.332587	 1.975188	 1.599743
H	 -3.251863	 0.279175	 1.986358
C	 -5.534941	 0.724641	 0.479218
H	 -3.918652	 1.406982	 -0.763115
H	 -3.841620	 -0.288033	 -0.374046
H	 -6.199136	 0.503652	 -0.350611
H	 -5.805478	 1.702339	 0.867950
H	 -5.727601	 -0.005331	 1.260434
C	 4.728119	 -1.109107	 -0.004993
H	 4.882018	 -1.033965	 -1.071845
H	 5.068212	 -2.067527	 0.355250
H	 5.265056	 -0.311663	 0.488280

	symmetry c1
}
set optking {
	frozen_dihedral = ("
		21 17 14 11,
		17 14 11 15,
		15 11 8 5,
		6 3 5 9,
		11 8 5 9,
		1 2 4 26,
		6 3 2 1
	")
}

ee = energy('scf')
oeprop('DIPOLE', 'QUADRUPOLE', 'MULLIKEN_CHARGES')
f=open( 'psi4out.xyz', 'w' )
f.write( "29  " )
f.write( str(ee) + "\n" )
f.write( MOL.save_string_xyz() )
f.close()
--------------------------------------------------------------------------

    Molecular point group: c1

    Geometry (in Angstrom), charge = 0, multiplicity = 1:

       Center              X                  Y                   Z               Mass
    ------------   -----------------  -----------------  -----------------  -----------------
           O          3.360650303922     0.639745965615     0.067349009954    15.994914619560
           C          2.681607303922    -0.328054034385    -0.056434990046    12.000000000000
           C          1.202922303922    -0.409181034385     0.236311009954    12.000000000000
           O          3.151362303922    -1.494858034385    -0.480141990046    15.994914619560
           C          0.612834303922     0.915123965615     0.716029009954    12.000000000000
           H          0.718922303922    -0.766950034385    -0.666425990046     1.007825032070
           H          1.062917303922    -1.191365034385     0.978122009954     1.007825032070
           C         -0.863333696078     0.823662965615     1.117348009954    12.000000000000
           H          0.737433303922     1.665053965615    -0.059340990046     1.007825032070
           H          1.190787303922     1.263742965615     1.565063009954     1.007825032070
           C         -1.827379696078     0.520831965615    -0.033312990046    12.000000000000
           H         -1.148722696078     1.770683965615     1.569486009954     1.007825032070
           H         -0.981603696078     0.070648965615     1.895160009954     1.007825032070
           C         -3.295281696078     0.548825965615     0.397358009954    12.000000000000
           H         -1.672603696078     1.246805965615    -0.830071990046     1.007825032070
           H         -1.605605696078    -0.454229034385    -0.461148990046     1.007825032070
           C         -4.267543696078     0.242444965615    -0.743242990046    12.000000000000
           H         -3.529127696078     1.526715965615     0.814828009954     1.007825032070
           H         -3.448403696078    -0.169297034385     1.201443009954     1.007825032070
           C         -5.731481696078     0.276168965615    -0.305696990046    12.000000000000
           H         -4.115192696078     0.958509965615    -1.548029990046     1.007825032070
           H         -4.038160696078    -0.736505034385    -1.158960990046     1.007825032070
           H         -6.395676696078     0.055179965615    -1.135525990046     1.007825032070
           H         -6.002018696078     1.253866965615     0.083035009954     1.007825032070
           H         -5.924141696078    -0.453803034385     0.475519009954     1.007825032070
           C          4.531578303922    -1.557579034385    -0.789907990046    12.000000000000
           H          4.685477303922    -1.482437034385    -1.856759990046     1.007825032070
           H          4.871671303922    -2.515999034385    -0.429664990046     1.007825032070
           H          5.068515303922    -0.760135034385    -0.296634990046     1.007825032070

  Charge       = 0
  Multiplicity = 1
  Basis Set: 6-31G*
  Basis Set:

    Orbital Energies (a.u.)
    -----------------------

    Doubly Occupied:

       1A    -20.603274     2A    -20.544555     3A    -11.372954
       4A    -11.277047     5A    -11.235106     6A    -11.219241
       7A    -11.217746     8A    -11.216071     9A    -11.215894
      10A    -11.214509    11A    -11.209098    12A     -1.469350
      13A     -1.362667    14A     -1.098222    15A     -1.066964
      16A     -1.019536    17A     -0.976744    18A     -0.928288
      19A     -0.861568    20A     -0.799232    21A     -0.790479
      22A     -0.763476    23A     -0.703033    24A     -0.681346
      25A     -0.672534    26A     -0.651068    27A     -0.629191
      28A     -0.604365    29A     -0.594341    30A     -0.579409
      31A     -0.568532    32A     -0.549837    33A     -0.534004
      34A     -0.526303    35A     -0.514732    36A     -0.512740
      37A     -0.496784    38A     -0.477949    39A     -0.470277
      40A     -0.462396    41A     -0.458780    42A     -0.454280
      43A     -0.440869    44A     -0.435964

  @DF-RHF Final Energy:  -501.04199081792387

   => Energetics <=

    Nuclear Repulsion Energy =            610.2847802576310414
    One-Electron Energy =               -1891.6920265599062532
    Two-Electron Energy =                 780.3652554843522466
    DFT Exchange-Correlation Energy =       0.0000000000000000
    Empirical Dispersion Energy =           0.0000000000000000
    PCM Polarization Energy =               0.0000000000000000
    EFP Energy =                            0.0000000000000000
    Total Energy =                       -501.0419908179230788

  Mulliken Charges: (a.u.)
   Center  Symbol    Alpha    Beta     Spin     Total
       1     O     4.28656  4.28656  0.00000 -0.57311
       2     C     2.60458  2.60458  0.00000  0.79083
       3     C     3.21038  3.21038  0.00000 -0.42075
       4     O     4.30720  4.30720  0.00000 -0.61439
       5     C     3.15383  3.15383  0.00000 -0.30765
       6     H     0.39852  0.39852  0.00000  0.20297
       7     H     0.40114  0.40114  0.00000  0.19773
       8     C     3.15663  3.15663  0.00000 -0.31326
       9     H     0.41302  0.41302  0.00000  0.17396
      10     H     0.40873  0.40873  0.00000  0.18255
      11     C     3.15509  3.15509  0.00000 -0.31018
      12     H     0.41821  0.41821  0.00000  0.16358
      13     H     0.42385  0.42385  0.00000  0.15230
      14     C     3.15029  3.15029  0.00000 -0.30059
      15     H     0.42259  0.42259  0.00000  0.15482
      16     H     0.42360  0.42360  0.00000  0.15280
      17     C     3.15147  3.15147  0.00000 -0.30293
      18     H     0.42332  0.42332  0.00000  0.15337
      19     H     0.42397  0.42397  0.00000  0.15207
      20     C     3.23936  3.23936  0.00000 -0.47871
      21     H     0.42279  0.42279  0.00000  0.15441
      22     H     0.42341  0.42341  0.00000  0.15317
      23     H     0.41922  0.41922  0.00000  0.16157
      24     H     0.42154  0.42154  0.00000  0.15691
      25     H     0.42182  0.42182  0.00000  0.15635
      26     C     3.09958  3.09958  0.00000 -0.19917
      27     H     0.41352  0.41352  0.00000  0.17297
      28     H     0.41131  0.41131  0.00000  0.17737
      29     H     0.39449  0.39449  0.00000  0.21102

   Total alpha = 44.00000, Total beta = 44.00000, Total charge = -0.00000
