                              Psi4 1.0.54 Driver

  ==> Input File <==

--------------------------------------------------------------------------
set {
	reference rhf
	basis cc-pvtz
}

set_num_threads( 4 )
memory 2 gb

molecule MOL {
0 1

O	 -0.694481	 1.313155	 -0.204815
C	 -0.862519	 0.151932	 -0.046791
C	 -2.171428	 -0.477048	 0.339095
O	 0.085519	 -0.757083	 -0.192238
H	 -2.467997	 -1.191667	 -0.417688
H	 -2.923379	 0.287970	 0.444097
H	 -2.053854	 -1.015120	 1.270901
C	 0.139376	 -1.502500	 -1.402995
C	 0.907684	 -0.765795	 -2.480431
H	 -0.864770	 -1.727929	 -1.726552
H	 0.637697	 -2.422358	 -1.135997
H	 0.984916	 -1.390623	 -3.363084
H	 0.404305	 0.150740	 -2.756033
H	 1.909256	 -0.529040	 -2.142210

	symmetry c1
}
set optking {
	frozen_dihedral = ("
		8 4 2 1
	")
}

ee,wfn = optimize('scf', return_wfn=True)
oeprop( wfn, 'DIPOLE', 'QUADRUPOLE', 'MULLIKEN_CHARGES')
f=open( 'psi4out.xyz', 'w' )
f.write( "14  " )
f.write( str(ee) + "\n" )
f.write( MOL.save_string_xyz() )
f.close()
--------------------------------------------------------------------------

    Molecular point group: c1
  Charge       = 0
  Multiplicity = 1
  Basis Set: CC-PVTZ
  Basis Set:
  @DF-RHF Final Energy:  -305.96925785791478
    Total Energy =                       -305.9692578579146698
    Molecular point group: c1
  Basis Set: CC-PVTZ
  Basis Set:
  Basis Set: CC-PVTZ
  Basis Set:
  @DF-RHF Final Energy:  -305.91785729854928
    Total Energy =                       -305.9178572985493929
  Basis Set: CC-PVTZ
  Basis Set:
  Basis Set: CC-PVTZ
  Basis Set:
  @DF-RHF Final Energy:  -305.91375715952398
    Total Energy =                       -305.9137571595239251
  Basis Set: CC-PVTZ
  Basis Set:
  Basis Set: CC-PVTZ
  Basis Set:
  @DF-RHF Final Energy:  -305.91252625965143
    Total Energy =                       -305.9125262596513721
  Basis Set: CC-PVTZ
  Basis Set:
  @DF-RHF Final Energy:  -305.91472940644934
    Total Energy =                       -305.9147294064492257
  @DF-RHF Final Energy:  -305.93719253405573
    Total Energy =                       -305.9371925340556118
  @DF-RHF Final Energy:  -305.96752167530030
    Total Energy =                       -305.9675216753004747
  @DF-RHF Final Energy:  -305.94823189022566
    Total Energy =                       -305.9482318902255429
  @DF-RHF Final Energy:  -305.96996719942848
    Total Energy =                       -305.9699671994284245
  @DF-RHF Final Energy:  -305.97056531448544
    Total Energy =                       -305.9705653144857251
  @DF-RHF Final Energy:  -305.97114778573916
    Total Energy =                       -305.9711477857388218
  Basis Set: CC-PVTZ
  Basis Set:
  @DF-RHF Final Energy:  -305.97124082620326
    Total Energy =                       -305.9712408262032568
  Basis Set: CC-PVTZ
  Basis Set:
  Basis Set: CC-PVTZ
  Basis Set:
  @DF-RHF Final Energy:  -305.97127713005227
    Total Energy =                       -305.9712771300521581
  Basis Set: CC-PVTZ
  Basis Set:
  Basis Set: CC-PVTZ
  Basis Set:
  @DF-RHF Final Energy:  -305.97128414999179
    Total Energy =                       -305.9712841499916749
  Basis Set: CC-PVTZ
  Basis Set:
  Charge       = 0
  Multiplicity = 1
  Basis Set: CC-PVTZ
  Basis Set:

    Orbital Energies (a.u.)
    -----------------------

    Doubly Occupied:

       1A    -20.576488     2A    -20.544339     3A    -11.370596
       4A    -11.295283     5A    -11.236660     6A    -11.219015
       7A     -1.460595     8A     -1.369697     9A     -1.046864
      10A     -1.009221    11A     -0.886074    12A     -0.769872
      13A     -0.694420    14A     -0.682869    15A     -0.672980
      16A     -0.605953    17A     -0.597175    18A     -0.584544
      19A     -0.552207    20A     -0.543981    21A     -0.519718
      22A     -0.486650    23A     -0.455971    24A     -0.439883

  @DF-RHF Final Energy:  -305.97128502582621

   => Energetics <=

    Nuclear Repulsion Energy =            248.2720195793085907
    One-Electron Energy =                -909.2445014394813825
    Two-Electron Energy =                 355.0011968343467288
    DFT Exchange-Correlation Energy =       0.0000000000000000
    Empirical Dispersion Energy =           0.0000000000000000
    PCM Polarization Energy =               0.0000000000000000
    EFP Energy =                            0.0000000000000000
    Total Energy =                       -305.9712850258260914
    Molecular point group: c1
  Basis Set: CC-PVTZ
  Basis Set:

  -Total Gradient:
     Atom            X                  Y                   Z
    ------   -----------------  -----------------  -----------------
       1       -0.000216043137     0.000584825854     0.000360440154
       2        0.000333983538    -0.001018507039    -0.000189580824
       3       -0.000026020887     0.000032616101     0.000032865015
       4       -0.000119062871     0.000636553012    -0.000679196540
       5       -0.000016511442     0.000011211960    -0.000032089252
       6        0.000026909800     0.000007927898     0.000008558006
       7        0.000011727550    -0.000032598249    -0.000040164755
       8        0.000067298900    -0.000284818151     0.000536191511
       9       -0.000014836959     0.000017403934     0.000016817951
      10       -0.000008092877     0.000042542803    -0.000007328695
      11       -0.000052012500     0.000004192956    -0.000028010985
      12       -0.000009470732     0.000004016312     0.000004670327
      13        0.000033981422     0.000016428739     0.000017439839
      14       -0.000011849807    -0.000021796129    -0.000000611751

  **** Optimization is complete! (in 15 steps) ****
    Final optimized geometry and variables:
    Molecular point group: c1

    Geometry (in Angstrom), charge = 0, multiplicity = 1:

    O           -1.507392823477     0.379086096770    -0.703742607518
    C           -0.850272058445     0.145878724980     0.243533573795
    C           -1.342810303346    -0.622475725073     1.439965944775
    O            0.398556815980     0.633380512156     0.376466263179
    H           -0.657467112535    -1.418915043592     1.698721955915
    H           -2.321739789803    -1.027511047704     1.241107732319
    H           -1.387655541918     0.053320916402     2.285415343109
    C            1.497713769195    -0.213233440567     0.079572306699
    C            1.768182178611    -0.296460203274    -1.409180589064
    H            1.328743888325    -1.200562374769     0.496219828640
    H            2.338522483490     0.221565150227     0.598227629762
    H            2.642060754555    -0.914137141861    -1.585970834397
    H            0.929576785860    -0.728587462954    -1.939099211629
    H            1.952183055262     0.689840921326    -1.814231682619

  Mulliken Charges: (a.u.)
   Center  Symbol    Alpha    Beta     Spin     Total
       1     O     4.17114  4.17114  0.00000 -0.34228
       2     C     2.80287  2.80287  0.00000  0.39426
       3     C     3.14259  3.14259  0.00000 -0.28518
       4     O     4.17163  4.17163  0.00000 -0.34325
       5     H     0.45144  0.45144  0.00000  0.09712
       6     H     0.43681  0.43681  0.00000  0.12639
       7     H     0.44333  0.44333  0.00000  0.11334
       8     C     2.98605  2.98605  0.00000  0.02789
       9     C     3.13446  3.13446  0.00000 -0.26892
      10     H     0.46531  0.46531  0.00000  0.06937
      11     H     0.44426  0.44426  0.00000  0.11147
      12     H     0.45409  0.45409  0.00000  0.09182
      13     H     0.44894  0.44894  0.00000  0.10211
      14     H     0.44707  0.44707  0.00000  0.10585

   Total alpha = 24.00000, Total beta = 24.00000, Total charge = -0.00000

*** Psi4 exiting successfully. Buy a developer a beer!
