  ==> Input File <==

--------------------------------------------------------------------------
set {
	reference rhf
	basis 6-31G*
}

set_num_threads( 4 )
memory 2 gb

molecule MOL {
0 1

H	 -3.135461	 -1.215070	 0.001379
O	 -2.310168	 -0.871793	 -0.309793
C	 -2.026376	 0.340750	 0.341611
C	 -0.673256	 0.843270	 -0.132153
H	 -2.792215	 1.080697	 0.115987
H	 -2.013526	 0.200402	 1.421792
C	 0.486613	 -0.083066	 0.235839
H	 -0.715586	 0.970948	 -1.210718
H	 -0.508072	 1.829858	 0.297090
C	 1.726605	 0.675128	 0.712679
H	 0.740799	 -0.693641	 -0.624452
H	 0.163179	 -0.769008	 1.017960
C	 2.883714	 -0.250835	 1.085993
H	 2.051203	 1.360029	 -0.067875
H	 1.467558	 1.292067	 1.571005
H	 3.188954	 -0.856687	 0.237664
H	 3.749494	 0.314074	 1.418028
H	 2.601917	 -0.926465	 1.888879

	symmetry c1
}
set optking {
	frozen_dihedral = ("
		10 7 4 8
	")
}

ee = optimize('scf')
oeprop('DIPOLE', 'QUADRUPOLE', 'MULLIKEN_CHARGES')
f=open( 'psi4out.xyz', 'w' )
f.write( "18  " )
f.write( str(ee) + "\n" )
f.write( MOL.save_string_xyz() )
f.close()
--------------------------------------------------------------------------

    Molecular point group: c1
  Charge       = 0
  Multiplicity = 1
  Basis Set: 6-31G*
  Basis Set:
  @DF-RHF Final Energy:  -271.17576500758645
    Total Energy =                       -271.1757650075863921
    Molecular point group: c1
  Basis Set: 6-31G*
  Basis Set:
  Basis Set: 6-31G*
  Basis Set:
  @DF-RHF Final Energy:  -271.17597403608954
    Total Energy =                       -271.1759740360895421
  Basis Set: 6-31G*
  Basis Set:
  Basis Set: 6-31G*
  Basis Set:
  @DF-RHF Final Energy:  -271.17607076982085
    Total Energy =                       -271.1760707698209671
  Basis Set: 6-31G*
  Basis Set:
  Basis Set: 6-31G*
  Basis Set:
  @DF-RHF Final Energy:  -271.17607225180348
    Total Energy =                       -271.1760722518033049
  Basis Set: 6-31G*
  Basis Set:
  Charge       = 0
  Multiplicity = 1
  Basis Set: 6-31G*
  Basis Set:

    Orbital Energies (a.u.)
    -----------------------

    Doubly Occupied:

       1A    -20.552763     2A    -11.267684     3A    -11.211730
       4A    -11.211699     5A    -11.206954     6A    -11.204983
       7A     -1.359591     8A     -1.073562     9A     -1.008518
      10A     -0.912664    11A     -0.819458    12A     -0.783531
      13A     -0.702355    14A     -0.649541    15A     -0.619263
      16A     -0.575906    17A     -0.572356    18A     -0.557931
      19A     -0.522034    20A     -0.506804    21A     -0.484002
      22A     -0.467187    23A     -0.456813    24A     -0.447951
      25A     -0.428656

  @DF-RHF Final Energy:  -271.17607264549918

   => Energetics <=

    Nuclear Repulsion Energy =            249.1376368758407125
    One-Electron Energy =                -861.4195441783173237
    Two-Electron Energy =                 341.1058346569774358
    DFT Exchange-Correlation Energy =       0.0000000000000000
    Empirical Dispersion Energy =           0.0000000000000000
    PCM Polarization Energy =               0.0000000000000000
    EFP Energy =                            0.0000000000000000
    Total Energy =                       -271.1760726454991755
    Molecular point group: c1
  Basis Set: 6-31G*
  Basis Set:

  -Total Gradient:
     Atom            X                  Y                   Z
    ------   -----------------  -----------------  -----------------
       1        0.000008057433     0.000015301664     0.000007738114
       2        0.000057151490    -0.000028763315     0.000024659358
       3       -0.000088835946     0.000050514753    -0.000085272700
       4        0.002302392093     0.003263487757     0.001212282761
       5       -0.000024297168     0.000031901195     0.000024764771
       6        0.000031547413    -0.000008910814    -0.000028248992
       7        0.000651003328    -0.000503763062    -0.003303110657
       8       -0.002120902462    -0.002702913148    -0.000174784885
       9        0.000007270990    -0.000015171779     0.000006881258
      10       -0.000834127106    -0.000103284381     0.002309131410
      11        0.000007687380     0.000036175432    -0.000022408127
      12        0.000008111093    -0.000016503673     0.000027062801
      13        0.000013483930     0.000000458814     0.000015702538
      14       -0.000006069355    -0.000025646027    -0.000006968443
      15       -0.000022836874     0.000009272497    -0.000014939646
      16        0.000001844810     0.000007365628     0.000002345715
      17        0.000009546226    -0.000006819121     0.000011203015
      18       -0.000001027268    -0.000002702420    -0.000006038290

  **** Optimization is complete! (in 5 steps) ****
    Final optimized geometry and variables:
    Molecular point group: c1

    Geometry (in Angstrom), charge = 0, multiplicity = 1:

    H           -3.064790052927    -1.322580313321    -0.319196198296
    O           -2.244821896419    -0.961797489099    -0.624696602245
    C           -2.003478144887     0.269917375400     0.006787537366
    C           -0.646446752717     0.781080422522    -0.446203290843
    H           -2.777157990692     0.990301220882    -0.253936419266
    H           -2.013975878157     0.152666532268     1.089803100947
    C            0.515380567078    -0.155244086218    -0.064140252440
    H           -0.694162425590     0.896388208234    -1.524841586300
    H           -0.497716525614     1.769372935752    -0.017901509251
    C            1.767069593666     0.592564366438     0.400676262422
    H            0.758788107769    -0.799227317771    -0.902940185883
    H            0.195404403327    -0.820478741873     0.734632554284
    C            2.925050143781    -0.341215099909     0.749389423502
    H            2.085587301072     1.287794995902    -0.374039938550
    H            1.517456594388     1.199224683292     1.268922839721
    H            3.224132090326    -0.932300413662    -0.111530939853
    H            3.793918393849     0.216068912648     1.086240230166
    H            2.646856289683    -1.031165235481     1.541296458879

  Mulliken Charges: (a.u.)
   Center  Symbol    Alpha    Beta     Spin     Total
       1     H     0.28074  0.28074  0.00000  0.43852
       2     O     4.36936  4.36936  0.00000 -0.73872
       3     C     2.99978  2.99978  0.00000  0.00044
       4     C     3.16208  3.16208  0.00000 -0.32416
       5     H     0.42994  0.42994  0.00000  0.14011
       6     H     0.43301  0.43301  0.00000  0.13398
       7     C     3.14889  3.14889  0.00000 -0.29779
       8     H     0.41305  0.41305  0.00000  0.17390
       9     H     0.42176  0.42176  0.00000  0.15647
      10     C     3.15433  3.15433  0.00000 -0.30865
      11     H     0.41492  0.41492  0.00000  0.17015
      12     H     0.42033  0.42033  0.00000  0.15935
      13     C     3.23936  3.23936  0.00000 -0.47873
      14     H     0.42359  0.42359  0.00000  0.15281
      15     H     0.42524  0.42524  0.00000  0.14952
      16     H     0.42109  0.42109  0.00000  0.15781
      17     H     0.42039  0.42039  0.00000  0.15921
      18     H     0.42212  0.42212  0.00000  0.15577

   Total alpha = 25.00000, Total beta = 25.00000, Total charge = -0.00000
