  ==> Input File <==

--------------------------------------------------------------------------
set {
	reference rhf
	basis 6-31G*
}

set_num_threads( 1 )
memory 2 gb

molecule MOL {
0 1

H	 2.163286	 -4.932673	 1.084589
O	 2.980023	 -4.731164	 0.651684
C	 2.728573	 -4.331532	 -0.671615
C	 2.114894	 -2.939455	 -0.772844
H	 3.689058	 -4.344719	 -1.170583
H	 2.092886	 -5.058983	 -1.175099
C	 0.727401	 -2.823228	 -0.137060
H	 2.791574	 -2.229408	 -0.304544
H	 2.053513	 -2.671782	 -1.826386
C	 0.115918	 -1.429151	 -0.302766
H	 0.797443	 -3.065424	 0.919728
H	 0.061136	 -3.560950	 -0.584494
C	 -1.309753	 -1.282496	 0.241564
H	 0.761492	 -0.695738	 0.177011
H	 0.107643	 -1.178489	 -1.361444
C	 -2.037799	 -0.007733	 -0.193645
H	 -1.890610	 -2.142323	 -0.085726
H	 -1.285946	 -1.330893	 1.329189
C	 -3.489788	 0.042957	 0.286558
H	 -2.017067	 0.064384	 -1.280144
H	 -1.513726	 0.868678	 0.179924
C	 -4.216917	 1.317354	 -0.141063
H	 -4.025645	 -0.823308	 -0.095450
H	 -3.513059	 -0.038752	 1.371301
H	 -4.239342	 1.411634	 -1.223113
H	 -5.243387	 1.322503	 0.212445
H	 -3.726170	 2.201406	 0.256408

	symmetry c1
}
set optking {
	frozen_dihedral = ("
		14 10 7 4,
		10 7 4 8,
		8 4 3 2,
		10 13 16 20,
		20 16 19 22,
		4 3 2 1
	")
}

ee = energy('scf')
oeprop('DIPOLE', 'QUADRUPOLE', 'MULLIKEN_CHARGES')
f=open( 'psi4out.xyz', 'w' )
f.write( "27  " )
f.write( str(ee) + "\n" )
f.write( MOL.save_string_xyz() )
f.close()
--------------------------------------------------------------------------

    Molecular point group: c1

    Geometry (in Angstrom), charge = 0, multiplicity = 1:

       Center              X                  Y                   Z               Mass
    ------------   -----------------  -----------------  -----------------  -----------------
           H          2.392143849549    -3.092103940766     1.188105472904     1.007825032070
           O          3.208880849549    -2.890594940766     0.755200472904    15.994914619560
           C          2.957430849549    -2.490962940766    -0.568098527096    12.000000000000
           C          2.343751849549    -1.098885940766    -0.669327527096    12.000000000000
           H          3.917915849549    -2.504149940766    -1.067066527096     1.007825032070
           H          2.321743849549    -3.218413940766    -1.071582527096     1.007825032070
           C          0.956258849549    -0.982658940766    -0.033543527096    12.000000000000
           H          3.020431849549    -0.388838940766    -0.201027527096     1.007825032070
           H          2.282370849549    -0.831212940766    -1.722869527096     1.007825032070
           C          0.344775849549     0.411418059234    -0.199249527096    12.000000000000
           H          1.026300849549    -1.224854940766     1.023244472904     1.007825032070
           H          0.289993849549    -1.720380940766    -0.480977527096     1.007825032070
           C         -1.080895150451     0.558073059234     0.345080472904    12.000000000000
           H          0.990349849549     1.144831059234     0.280527472904     1.007825032070
           H          0.336500849549     0.662080059234    -1.257927527096     1.007825032070
           C         -1.808941150451     1.832836059234    -0.090128527096    12.000000000000
           H         -1.661752150451    -0.301753940766     0.017790472904     1.007825032070
           H         -1.057088150451     0.509676059234     1.432705472904     1.007825032070
           C         -3.260930150451     1.883526059234     0.390074472904    12.000000000000
           H         -1.788209150451     1.904953059234    -1.176627527096     1.007825032070
           H         -1.284868150451     2.709247059234     0.283440472904     1.007825032070
           C         -3.988059150451     3.157923059234    -0.037546527096    12.000000000000
           H         -3.796787150451     1.017261059234     0.008066472904     1.007825032070
           H         -3.284201150451     1.801817059234     1.474817472904     1.007825032070
           H         -4.010484150451     3.252203059234    -1.119596527096     1.007825032070
           H         -5.014529150451     3.163072059234     0.315961472904     1.007825032070
           H         -3.497312150451     4.041975059234     0.359924472904     1.007825032070

  Charge       = 0
  Multiplicity = 1
  Basis Set: 6-31G*
  Basis Set:

    Orbital Energies (a.u.)
    -----------------------

    Doubly Occupied:

       1A    -20.552360     2A    -11.267275     3A    -11.220905
       4A    -11.217112     5A    -11.216072     6A    -11.215581
       7A    -11.215549     8A    -11.214672     9A    -11.209317
      10A     -1.359130    11A     -1.094093    12A     -1.063018
      13A     -1.011634    14A     -0.950741    15A     -0.883489
      16A     -0.819970    17A     -0.791818    18A     -0.789949
      19A     -0.694326    20A     -0.659392    21A     -0.634182
      22A     -0.613715    23A     -0.600445    24A     -0.586367
      25A     -0.576037    26A     -0.555160    27A     -0.535476
      28A     -0.522856    29A     -0.510527    30A     -0.494074
      31A     -0.481478    32A     -0.474450    33A     -0.468645
      34A     -0.460813    35A     -0.460015    36A     -0.443795
      37A     -0.421387

  @DF-RHF Final Energy:  -388.28241164016396

   => Energetics <=

    Nuclear Repulsion Energy =            450.5716366905355130
    One-Electron Energy =               -1419.1363193022268661
    Two-Electron Energy =                 580.2822709715264864
    DFT Exchange-Correlation Energy =       0.0000000000000000
    Empirical Dispersion Energy =           0.0000000000000000
    PCM Polarization Energy =               0.0000000000000000
    EFP Energy =                            0.0000000000000000
    Total Energy =                       -388.2824116401648098

  Mulliken Charges: (a.u.)
   Center  Symbol    Alpha    Beta     Spin     Total
       1     H     0.27985  0.27985  0.00000  0.44031
       2     O     4.37098  4.37098  0.00000 -0.74195
       3     C     2.99741  2.99741  0.00000  0.00518
       4     C     3.16148  3.16148  0.00000 -0.32296
       5     H     0.41432  0.41432  0.00000  0.17137
       6     H     0.43198  0.43198  0.00000  0.13605
       7     C     3.16167  3.16167  0.00000 -0.32335
       8     H     0.41482  0.41482  0.00000  0.17035
       9     H     0.42402  0.42402  0.00000  0.15196
      10     C     3.15068  3.15068  0.00000 -0.30136
      11     H     0.42463  0.42463  0.00000  0.15073
      12     H     0.42492  0.42492  0.00000  0.15015
      13     C     3.15230  3.15230  0.00000 -0.30460
      14     H     0.42103  0.42103  0.00000  0.15793
      15     H     0.42381  0.42381  0.00000  0.15239
      16     C     3.15089  3.15089  0.00000 -0.30178
      17     H     0.42512  0.42512  0.00000  0.14975
      18     H     0.42308  0.42308  0.00000  0.15384
      19     C     3.15178  3.15178  0.00000 -0.30356
      20     H     0.42409  0.42409  0.00000  0.15183
      21     H     0.42314  0.42314  0.00000  0.15373
      22     C     3.23934  3.23934  0.00000 -0.47868
      23     H     0.42316  0.42316  0.00000  0.15368
      24     H     0.42289  0.42289  0.00000  0.15422
      25     H     0.42179  0.42179  0.00000  0.15643
      26     H     0.41921  0.41921  0.00000  0.16157
      27     H     0.42162  0.42162  0.00000  0.15676

   Total alpha = 37.00000, Total beta = 37.00000, Total charge =  0.00000
