  ==> Input File <==

--------------------------------------------------------------------------
set {
	reference rhf
	basis cc-pvtz
}

set_num_threads( 4 )
memory 2 gb

molecule MOL {
0 1

H	 2.867672	 -0.456275	 0.875795
C	 2.403497	 -0.020426	 0.000000
N	 0.989899	 -0.304564	 0.000000
H	 2.867672	 -0.456275	 -0.875795
H	 2.620366	 1.051270	 0.000000
C	 0.245327	 0.591562	 -0.860313
C	 0.427662	 -0.315562	 1.334667
H	 0.345120	 1.631995	 -0.535837
H	 0.635762	 0.523765	 -1.869120
C	 -1.222696	 0.210583	 -0.862604
H	 0.951882	 -1.048945	 1.936389
H	 0.541169	 0.656642	 1.824239
C	 -1.045046	 -0.673233	 1.275978
H	 -1.800008	 0.928510	 -1.428216
H	 -1.343588	 -0.768291	 -1.322267
O	 -1.742348	 0.196137	 0.433891
H	 -1.493946	 -0.594161	 2.256215
H	 -1.156745	 -1.697842	 0.926980

	symmetry c1
}
set optking {
	frozen_dihedral = ("
		6 3 2 5
	")
}

ee = optimize('scf')
oeprop('DIPOLE', 'QUADRUPOLE', 'MULLIKEN_CHARGES')
f=open( 'psi4out.xyz', 'w' )
f.write( "18  " )
f.write( str(ee) + "\n" )
f.write( MOL.save_string_xyz() )
f.close()
--------------------------------------------------------------------------

    Molecular point group: c1
  Charge       = 0
  Multiplicity = 1
  Basis Set: CC-PVTZ
  Basis Set:
  @DF-RHF Final Energy:  -325.14379211407993
    Total Energy =                       -325.1437921140800995
    Molecular point group: c1
  Basis Set: CC-PVTZ
  Basis Set:
  Basis Set: CC-PVTZ
  Basis Set:
  @DF-RHF Final Energy:  -325.14394696290532
    Total Energy =                       -325.1439469629055452
  Basis Set: CC-PVTZ
  Basis Set:
  Basis Set: CC-PVTZ
  Basis Set:
  @DF-RHF Final Energy:  -325.14396165565267
    Total Energy =                       -325.1439616556530723
  Basis Set: CC-PVTZ
  Basis Set:
  Charge       = 0
  Multiplicity = 1
  Basis Set: CC-PVTZ
  Basis Set:

    Orbital Energies (a.u.)
    -----------------------

    Doubly Occupied:

       1A    -20.547443     2A    -15.544772     3A    -11.264287
       4A    -11.264154     5A    -11.242563     6A    -11.242498
       7A    -11.239084     8A     -1.386459     9A     -1.233251
      10A     -1.038821    11A     -0.981822    12A     -0.883539
      13A     -0.869880    14A     -0.775252    15A     -0.684999
      16A     -0.646252    17A     -0.644737    18A     -0.634415
      19A     -0.630541    20A     -0.574001    21A     -0.557891
      22A     -0.541180    23A     -0.527728    24A     -0.501268
      25A     -0.484399    26A     -0.453748    27A     -0.410320
      28A     -0.356498

  @DF-RHF Final Energy:  -325.14396252109810

   => Energetics <=

    Nuclear Repulsion Energy =            341.8691837645505416
    One-Electron Energy =               -1119.7026845796222005
    Two-Electron Energy =                 452.6895382939740102
    DFT Exchange-Correlation Energy =       0.0000000000000000
    Empirical Dispersion Energy =           0.0000000000000000
    PCM Polarization Energy =               0.0000000000000000
    EFP Energy =                            0.0000000000000000
    Total Energy =                       -325.1439625210975919
    Molecular point group: c1
  Basis Set: CC-PVTZ
  Basis Set:

  -Total Gradient:
     Atom            X                  Y                   Z
    ------   -----------------  -----------------  -----------------
       1       -0.000020323473    -0.000014438312    -0.000002083613
       2       -0.000172597022     0.000769128055     0.006835880846
       3        0.000638274986    -0.002871906299    -0.004825568991
       4        0.000007067892    -0.000001112149    -0.000029185393
       5       -0.000009987291     0.000034973587    -0.004537574485
       6       -0.000413053129     0.002091122128     0.002649492013
       7        0.000031284332    -0.000032961494    -0.000111881338
       8        0.000008354074     0.000025164844    -0.000007043485
       9       -0.000002717972     0.000005284301     0.000000565540
      10       -0.000007432260    -0.000017133627    -0.000017794194
      11        0.000001283158     0.000007024717     0.000003295560
      12       -0.000001976330     0.000000413398    -0.000003451021
      13       -0.000034471688    -0.000000186266     0.000057507530
      14        0.000000297731     0.000001029157     0.000005791097
      15       -0.000013869996    -0.000007687243    -0.000002838748
      16        0.000008971869    -0.000005622501    -0.000013371320
      17       -0.000023678800    -0.000003532998     0.000009927017
      18        0.000004573911     0.000020440703    -0.000011667015

  **** Optimization is complete! (in 4 steps) ****
    Final optimized geometry and variables:
    Molecular point group: c1

    Geometry (in Angstrom), charge = 0, multiplicity = 1:

    H            2.884533071737    -0.438967537886     0.658369314440
    C            2.400312789134     0.017732408246    -0.193727127366
    N            0.984226775404    -0.277037188677    -0.188894901933
    H            2.857346696998    -0.385052168654    -1.091183587000
    H            2.607029718449     1.089611677840    -0.188635332275
    C            0.240929294361     0.625884706266    -1.044608413259
    C            0.415792701619    -0.269525373857     1.145881314163
    H            0.341908855198     1.661923168439    -0.708315857843
    H            0.635320567198     0.569375632613    -2.053331771635
    C           -1.227378137862     0.247184607963    -1.057355587879
    H            0.934121029348    -0.997306338519     1.758818991320
    H            0.525488854392     0.707815341014     1.625778341638
    C           -1.056629561213    -0.629173901672     1.084372760732
    H           -1.799240640039     0.967271663582    -1.625959841631
    H           -1.347436897034    -0.730739755375    -1.519274862468
    O           -1.754576628986     0.233249901987     0.235877467625
    H           -1.508138282518    -0.546364971008     2.063234036813
    H           -1.164021249092    -1.656125373800     0.740673703619

  Mulliken Charges: (a.u.)
   Center  Symbol    Alpha    Beta     Spin     Total
       1     H     0.45287  0.45287  0.00000  0.09427
       2     C     3.09465  3.09465  0.00000 -0.18930
       3     N     3.61841  3.61841  0.00000 -0.23682
       4     H     0.44971  0.44971  0.00000  0.10058
       5     H     0.46773  0.46773  0.00000  0.06455
       6     C     3.04249  3.04249  0.00000 -0.08498
       7     C     3.03975  3.03975  0.00000 -0.07950
       8     H     0.46770  0.46770  0.00000  0.06459
       9     H     0.45405  0.45405  0.00000  0.09191
      10     C     2.98360  2.98360  0.00000  0.03279
      11     H     0.45398  0.45398  0.00000  0.09204
      12     H     0.46952  0.46952  0.00000  0.06096
      13     C     2.98417  2.98417  0.00000  0.03165
      14     H     0.44992  0.44992  0.00000  0.10016
      15     H     0.46749  0.46749  0.00000  0.06502
      16     O     4.18649  4.18649  0.00000 -0.37297
      17     H     0.44979  0.44979  0.00000  0.10043
      18     H     0.46770  0.46770  0.00000  0.06461

   Total alpha = 28.00000, Total beta = 28.00000, Total charge = -0.00000
