  ==> Input File <==

--------------------------------------------------------------------------
set {
	reference rhf
	basis cc-pvtz
}

set_num_threads( 4 )
memory 2 gb

molecule MOL {
0 1

H	 3.459101	 0.139266	 -0.762951
C	 2.749156	 -0.051729	 0.031265
C	 1.322304	 0.099773	 -0.484271
H	 2.929445	 -1.053887	 0.403481
H	 2.954281	 0.646699	 0.834672
C	 0.308557	 -0.162619	 0.622645
H	 1.143368	 -0.594400	 -1.295960
H	 1.169532	 1.100095	 -0.870217
N	 -1.069352	 -0.004081	 0.085342
H	 0.371632	 -1.172932	 0.991288
H	 0.400391	 0.548875	 1.426218
O	 -1.330017	 -0.579312	 -0.917524
O	 -1.805101	 0.709829	 0.680277

	symmetry c1
}
set optking {
	frozen_dihedral = ("
		12 9 6 3
	")
}

ee = optimize('scf')
oeprop('DIPOLE', 'QUADRUPOLE', 'MULLIKEN_CHARGES')
f=open( 'psi4out.xyz', 'w' )
f.write( "13  " )
f.write( str(ee) + "\n" )
f.write( MOL.save_string_xyz() )
f.close()
--------------------------------------------------------------------------

    Molecular point group: c1
  Charge       = 0
  Multiplicity = 1
  Basis Set: CC-PVTZ
  Basis Set:
  @DF-RHF Final Energy:  -321.86057748964589
    Total Energy =                       -321.8605774896461753
    Molecular point group: c1
  Basis Set: CC-PVTZ
  Basis Set:
  Basis Set: CC-PVTZ
  Basis Set:
  @DF-RHF Final Energy:  -321.85655922394369
    Total Energy =                       -321.8565592239435773
  Basis Set: CC-PVTZ
  Basis Set:
  Basis Set: CC-PVTZ
  Basis Set:
  @DF-RHF Final Energy:  -321.86057138449257
    Total Energy =                       -321.8605713844926868
  Basis Set: CC-PVTZ
  Basis Set:
  Basis Set: CC-PVTZ
  Basis Set:
  @DF-RHF Final Energy:  -321.86105835517276
    Total Energy =                       -321.8610583551726450
  Basis Set: CC-PVTZ
  Basis Set:
  Basis Set: CC-PVTZ
  Basis Set:
  @DF-RHF Final Energy:  -321.86106315794939
    Total Energy =                       -321.8610631579495589
  Basis Set: CC-PVTZ
  Basis Set:
  Basis Set: CC-PVTZ
  Basis Set:
  @DF-RHF Final Energy:  -321.86106548492336
    Total Energy =                       -321.8610654849233015
  Basis Set: CC-PVTZ
  Basis Set:
  Charge       = 0
  Multiplicity = 1
  Basis Set: CC-PVTZ
  Basis Set:

    Orbital Energies (a.u.)
    -----------------------

    Doubly Occupied:

       1A    -20.592229     2A    -20.589500     3A    -15.837718
       4A    -11.298096     5A    -11.250508     6A    -11.235977
       7A     -1.636700     8A     -1.420828     9A     -1.132759
      10A     -1.027357    11A     -0.884531    12A     -0.830867
      13A     -0.763273    14A     -0.743432    15A     -0.729670
      16A     -0.666835    17A     -0.605204    18A     -0.583577
      19A     -0.551441    20A     -0.522048    21A     -0.510892
      22A     -0.487688    23A     -0.474461    24A     -0.454291

  @DF-RHF Final Energy:  -321.86106551159924

   => Energetics <=

    Nuclear Repulsion Energy =            247.7531519763244887
    One-Electron Energy =                -929.5686713094296465
    Two-Electron Energy =                 359.9544538215056946
    DFT Exchange-Correlation Energy =       0.0000000000000000
    Empirical Dispersion Energy =           0.0000000000000000
    PCM Polarization Energy =               0.0000000000000000
    EFP Energy =                            0.0000000000000000
    Total Energy =                       -321.8610655115994632
    Molecular point group: c1
  Basis Set: CC-PVTZ
  Basis Set:

  -Total Gradient:
     Atom            X                  Y                   Z
    ------   -----------------  -----------------  -----------------
       1       -0.000003674632    -0.000001248262    -0.000000333368
       2       -0.000005665670    -0.000007587348     0.000000601177
       3       -0.000006780951    -0.000408225160    -0.000104431061
       4        0.000002089699    -0.000002148739     0.000003013988
       5       -0.000000450341     0.000002735198    -0.000001513749
       6        0.000073634161     0.000749011681     0.000038112059
       7        0.000001874790     0.000003106947    -0.000000421589
       8       -0.000003212728     0.000001002011     0.000000184637
       9       -0.000212641097    -0.000804697309     0.000345015378
      10       -0.000002876210     0.000001430025     0.000000273198
      11        0.000006727313    -0.000002523686     0.000003763561
      12        0.000157769340     0.000459941174    -0.000295979035
      13       -0.000006793673     0.000009203471     0.000011714805

  **** Optimization is complete! (in 7 steps) ****
    Final optimized geometry and variables:
    Molecular point group: c1

    Geometry (in Angstrom), charge = 0, multiplicity = 1:

    H            3.487151132140     0.127879843828    -0.753162774621
    C            2.763712778923    -0.052334059852     0.031273902669
    C            1.345555130829     0.093319523507    -0.511265516375
    H            2.936768396810    -1.050634168633     0.417897968056
    H            2.958607689362     0.654038972516     0.830378691292
    C            0.320923158611    -0.154229029238     0.583294244239
    H            1.177954386471    -0.602841006211    -1.320012799952
    H            1.203839421007     1.091132366096    -0.911414856886
    N           -1.075116137969     0.003030471330     0.083672546481
    H            0.372405605626    -1.170389254910     0.948834521880
    H            0.414202777935     0.532197342885     1.406821826932
    O           -1.366450643676    -0.574610904391    -0.909690157967
    O           -1.806839368705     0.683294101605     0.719911503227

  Mulliken Charges: (a.u.)
   Center  Symbol    Alpha    Beta     Spin     Total
       1     H     0.44149  0.44149  0.00000  0.11701
       2     C     3.15160  3.15160  0.00000 -0.30321
       3     C     3.09554  3.09554  0.00000 -0.19109
       4     H     0.45236  0.45236  0.00000  0.09529
       5     H     0.45222  0.45222  0.00000  0.09555
       6     C     3.04120  3.04120  0.00000 -0.08240
       7     H     0.43318  0.43318  0.00000  0.13363
       8     H     0.44358  0.44358  0.00000  0.11284
       9     N     3.27654  3.27654  0.00000  0.44692
      10     H     0.43754  0.43754  0.00000  0.12491
      11     H     0.43206  0.43206  0.00000  0.13589
      12     O     4.17351  4.17351  0.00000 -0.34703
      13     O     4.16916  4.16916  0.00000 -0.33832

   Total alpha = 24.00000, Total beta = 24.00000, Total charge =  0.00000
