                              Psi4 1.0.54 Driver

  ==> Input File <==

--------------------------------------------------------------------------
set {
	reference rhf
	basis cc-pvtz
}

set_num_threads( 4 )
memory 2 gb

molecule MOL {
0 1

H	 -2.491538	 0.873787	 -1.004225
C	 -1.656252	 1.514099	 -1.254263
C	 -0.358444	 0.722990	 -1.305802
H	 -1.606821	 2.292611	 -0.504803
H	 -1.853631	 1.975218	 -2.214635
C	 0.000000	 0.039916	 0.000014
H	 0.474329	 1.364491	 -1.581233
H	 -0.402660	 -0.041997	 -2.076342
C	 1.286532	 -0.763243	 0.000268
O	 -0.686138	 0.128734	 0.965262
C	 2.547023	 0.087626	 -0.000114
H	 1.264245	 -1.421103	 -0.864380
H	 1.264290	 -1.420353	 0.865489
H	 2.584452	 0.725630	 -0.872909
H	 3.427035	 -0.544422	 0.000125
H	 2.584484	 0.726356	 0.872143

	symmetry c1
}
set optking {
	frozen_dihedral = ("
		3 6 9 12
	")
}

ee,wfn = optimize('scf', return_wfn=True)
oeprop( wfn, 'DIPOLE', 'QUADRUPOLE', 'MULLIKEN_CHARGES')
f=open( 'psi4out.xyz', 'w' )
f.write( "16  " )
f.write( str(ee) + "\n" )
f.write( MOL.save_string_xyz() )
f.close()
--------------------------------------------------------------------------

    Molecular point group: c1
  Charge       = 0
  Multiplicity = 1
  Basis Set: CC-PVTZ
  Basis Set:
  @DF-RHF Final Energy:  -270.12879702040220
    Total Energy =                       -270.1287970204022031
    Molecular point group: c1
  Basis Set: CC-PVTZ
  Basis Set:
  Basis Set: CC-PVTZ
  Basis Set:
  @DF-RHF Final Energy:  -270.12929709955523
    Total Energy =                       -270.1292970995554015
  Basis Set: CC-PVTZ
  Basis Set:
  Basis Set: CC-PVTZ
  Basis Set:
  @DF-RHF Final Energy:  -270.12933059253567
    Total Energy =                       -270.1293305925356663
  Basis Set: CC-PVTZ
  Basis Set:
  Basis Set: CC-PVTZ
  Basis Set:
  @DF-RHF Final Energy:  -270.12928811939253
    Total Energy =                       -270.1292881193925837
  Basis Set: CC-PVTZ
  Basis Set:
  Basis Set: CC-PVTZ
  Basis Set:
  @DF-RHF Final Energy:  -270.12933288245415
    Total Energy =                       -270.1293328824541504
  Basis Set: CC-PVTZ
  Basis Set:
  Charge       = 0
  Multiplicity = 1
  Basis Set: CC-PVTZ
  Basis Set:

    Orbital Energies (a.u.)
    -----------------------

    Doubly Occupied:

       1A    -20.538226     2A    -11.317063     3A    -11.231941
       4A    -11.230700     5A    -11.227333     6A    -11.211375
       7A     -1.397875     8A     -1.073041     9A     -1.036747
      10A     -0.911303    11A     -0.860419    12A     -0.726869
      13A     -0.664916    14A     -0.640998    15A     -0.630742
      16A     -0.607287    17A     -0.562097    18A     -0.542645
      19A     -0.534666    20A     -0.510732    21A     -0.505170
      22A     -0.497009    23A     -0.483280    24A     -0.398821

  @DF-RHF Final Energy:  -270.12933306138314

   => Energetics <=

    Nuclear Repulsion Energy =            240.8716178669347130
    One-Electron Energy =                -843.3193864628597112
    Two-Electron Energy =                 332.3184355345417771
    DFT Exchange-Correlation Energy =       0.0000000000000000
    Empirical Dispersion Energy =           0.0000000000000000
    PCM Polarization Energy =               0.0000000000000000
    EFP Energy =                            0.0000000000000000
    Total Energy =                       -270.1293330613832495
    Molecular point group: c1
  Basis Set: CC-PVTZ
  Basis Set:

  -Total Gradient:
     Atom            X                  Y                   Z
    ------   -----------------  -----------------  -----------------
       1        0.000002112036    -0.000003152683    -0.000000747359
       2        0.000007239456     0.000013206970     0.000001336322
       3        0.000319850240     0.000521884497     0.000206492128
       4       -0.000000145583    -0.000004068788    -0.000001906496
       5       -0.000002896672    -0.000000236201    -0.000001426868
       6       -0.000558605065    -0.000938415969    -0.000236032481
       7        0.000003971713     0.000004305639     0.000012043702
       8        0.000003756850     0.000010767389    -0.000000798558
       9        0.000673779971     0.001038820996    -0.000480923208
      10       -0.000021084382    -0.000004420284     0.000030308806
      11       -0.000018235785    -0.000003194421    -0.000004851619
      12       -0.000412807022    -0.000642189947     0.000480820062
      13       -0.000005920409    -0.000000441227     0.000000274386
      14        0.000003480525     0.000008957025    -0.000008408473
      15        0.000002858561    -0.000004034708     0.000001697342
      16        0.000002645570     0.000002211710     0.000002122317

  **** Optimization is complete! (in 6 steps) ****
    Final optimized geometry and variables:
    Molecular point group: c1

    Geometry (in Angstrom), charge = 0, multiplicity = 1:

    H           -2.672599634383     0.616358158991    -0.718342393492
    C           -1.831398613893     1.248557257039    -0.968481423731
    C           -0.545382680902     0.440437524118    -1.046248439869
    H           -1.762610744108     2.014949459154    -0.208025945633
    H           -2.032607566580     1.727028038157    -1.919579510505
    C           -0.188525244598    -0.273611751090     0.243166691252
    H            0.290408376449     1.074788437898    -1.324025615449
    H           -0.609530400873    -0.313437485440    -1.826912079808
    C            1.097358396199    -1.079637897686     0.262216393931
    O           -0.880443993204    -0.206903876938     1.206945373176
    C            2.353589917629    -0.204224400087     0.284209543559
    H            1.120020858077    -1.735565937869    -0.602491450612
    H            1.065836809449    -1.699035489602     1.147715958144
    H            2.455853706591     0.385018961483    -0.618455470607
    H            3.236366911707    -0.824725858936     0.372134380899
    H            2.336961894963     0.472341561832     1.130382365556

  Mulliken Charges: (a.u.)
   Center  Symbol    Alpha    Beta     Spin     Total
       1     H     0.44714  0.44714  0.00000  0.10572
       2     C     3.14097  3.14097  0.00000 -0.28193
       3     C     3.10658  3.10658  0.00000 -0.21316
       4     H     0.44815  0.44815  0.00000  0.10370
       5     H     0.45094  0.45094  0.00000  0.09812
       6     C     2.86311  2.86311  0.00000  0.27378
       7     H     0.44506  0.44506  0.00000  0.10988
       8     H     0.44590  0.44590  0.00000  0.10821
       9     C     3.09421  3.09421  0.00000 -0.18843
      10     O     4.17364  4.17364  0.00000 -0.34728
      11     C     3.15392  3.15392  0.00000 -0.30785
      12     H     0.45070  0.45070  0.00000  0.09860
      13     H     0.43713  0.43713  0.00000  0.12574
      14     H     0.45317  0.45317  0.00000  0.09366
      15     H     0.44364  0.44364  0.00000  0.11273
      16     H     0.44574  0.44574  0.00000  0.10852

   Total alpha = 24.00000, Total beta = 24.00000, Total charge = -0.00000

*** Psi4 exiting successfully. Buy a developer a beer!
