  ==> Input File <==

--------------------------------------------------------------------------
set {
	reference rhf
	basis 6-31G*
}

set_num_threads( 4 )
memory 2 gb

molecule MOL {
0 1

H	 -2.147938	 1.456581	 -1.786027
C	 -1.737895	 0.800679	 -1.041022
C	 -2.561303	 0.135735	 -0.148388
C	 -0.374827	 0.610937	 -0.963600
H	 -3.627062	 0.270430	 -0.192631
C	 -2.019708	 -0.705530	 0.805381
H	 0.288641	 1.109823	 -1.638654
C	 0.154804	 -0.237046	 -0.000077
H	 -2.675475	 -1.212521	 1.488774
C	 -0.648032	 -0.923920	 0.916812
N	 1.611208	 -0.370857	 -0.000034
C	 -0.165290	 -1.865701	 1.997988
O	 2.274126	 0.622059	 -0.008063
O	 2.068510	 -1.474748	 0.007823
H	 0.497280	 -1.367584	 2.692255
H	 -1.019463	 -2.245237	 2.544537
H	 0.379967	 -2.701867	 1.582482

	symmetry c1
}
set optking {
	frozen_dihedral = ("
		4 8 11 13
	")
}

ee = optimize('scf')
oeprop('DIPOLE', 'QUADRUPOLE', 'MULLIKEN_CHARGES')
f=open( 'psi4out.xyz', 'w' )
f.write( "17  " )
f.write( str(ee) + "\n" )
f.write( MOL.save_string_xyz() )
f.close()
--------------------------------------------------------------------------

    Molecular point group: c1
  Charge       = 0
  Multiplicity = 1
  Basis Set: 6-31G*
  Basis Set:
  @DF-RHF Final Energy:  -473.20340894967097
    Total Energy =                       -473.2034089496714842
    Molecular point group: c1
  Basis Set: 6-31G*
  Basis Set:
  Basis Set: 6-31G*
  Basis Set:
  @DF-RHF Final Energy:  -473.20449917036785
    Total Energy =                       -473.2044991703680807
  Basis Set: 6-31G*
  Basis Set:
  Basis Set: 6-31G*
  Basis Set:
  @DF-RHF Final Energy:  -473.20293465941904
    Total Energy =                       -473.2029346594190429
  Basis Set: 6-31G*
  Basis Set:
  Basis Set: 6-31G*
  Basis Set:
  @DF-RHF Final Energy:  -473.20493802767220
    Total Energy =                       -473.2049380276722559
  Basis Set: 6-31G*
  Basis Set:
  Basis Set: 6-31G*
  Basis Set:
  @DF-RHF Final Energy:  -473.20505417511134
    Total Energy =                       -473.2050541751111723
  Basis Set: 6-31G*
  Basis Set:
  Basis Set: 6-31G*
  Basis Set:
  @DF-RHF Final Energy:  -473.20507738673916
    Total Energy =                       -473.2050773867387079
  Basis Set: 6-31G*
  Basis Set:
  Charge       = 0
  Multiplicity = 1
  Basis Set: 6-31G*
  Basis Set:

    Orbital Energies (a.u.)
    -----------------------

    Doubly Occupied:

       1A    -20.602635     2A    -20.602439     3A    -15.852835
       4A    -11.301095     5A    -11.279148     6A    -11.267410
       7A    -11.261185     8A    -11.255316     9A    -11.254386
      10A    -11.236974    11A     -1.634218    12A     -1.417564
      13A     -1.201468    14A     -1.092105    15A     -1.072693
      16A     -0.979511    17A     -0.933678    18A     -0.851242
      19A     -0.820665    20A     -0.770688    21A     -0.733342
      22A     -0.727804    23A     -0.694858    24A     -0.656615
      25A     -0.636741    26A     -0.599444    27A     -0.595311
      28A     -0.567561    29A     -0.541159    30A     -0.523973
      31A     -0.520522    32A     -0.489575    33A     -0.480275
      34A     -0.448755    35A     -0.366036    36A     -0.353559

  @DF-RHF Final Energy:  -473.20507855772939

   => Energetics <=

    Nuclear Repulsion Energy =            510.0090118357237543
    One-Electron Energy =               -1655.1826098924320831
    Two-Electron Energy =                 671.9685194989793899
    DFT Exchange-Correlation Energy =       0.0000000000000000
    Empirical Dispersion Energy =           0.0000000000000000
    PCM Polarization Energy =               0.0000000000000000
    EFP Energy =                            0.0000000000000000
    Total Energy =                       -473.2050785577288252
    Molecular point group: c1
  Basis Set: 6-31G*
  Basis Set:

  -Total Gradient:
     Atom            X                  Y                   Z
    ------   -----------------  -----------------  -----------------
       1        0.000002188381    -0.000001097537    -0.000003260891
       2       -0.000125735181     0.000053482948     0.000113122573
       3       -0.000000125455     0.000062736420    -0.000143809475
       4       -0.000116329229    -0.002594479291    -0.001917198754
       5       -0.000002083819    -0.000009660784    -0.000005156894
       6        0.000144736941    -0.000067695229     0.000071455387
       7        0.000017327180     0.000028979163     0.000000384778
       8        0.000357238440     0.003561106024     0.003980554241
       9       -0.000007497985     0.000002555834    -0.000002528716
      10       -0.000115461409     0.000009554611     0.000068546573
      11       -0.000023455121    -0.001131559362    -0.005743001106
      12        0.000004018219     0.000028587994     0.000019427332
      13       -0.000102029699     0.000083469553     0.003603155232
      14       -0.000028493399     0.000010187685    -0.000018733526
      15       -0.000015274998    -0.000006495649    -0.000007537656
      16        0.000000716646    -0.000005537726     0.000002601833
      17        0.000010260481    -0.000024134659    -0.000018020931

  **** Optimization is complete! (in 7 steps) ****
    Final optimized geometry and variables:
    Molecular point group: c1

    Geometry (in Angstrom), charge = 0, multiplicity = 1:

    H           -2.097515773940     1.805404809230    -1.995526867374
    C           -1.690649759751     1.157833621936    -1.241425198470
    C           -2.522707723885     0.477174952588    -0.368746517804
    C           -0.322741331799     1.000115872359    -1.129284517358
    H           -3.588661542321     0.597396508395    -0.438380423281
    C           -1.992158897288    -0.357817457709     0.600132640758
    H            0.353923140299     1.525012525674    -1.775545384086
    C            0.179842829508     0.153543982731    -0.159731407847
    H           -2.653439019541    -0.870158078578     1.275121300999
    C           -0.621725912799    -0.560380831534     0.723448206744
    N            1.630674309212    -0.009726788689    -0.133912100196
    C           -0.082688820026    -1.494945370446     1.782108612339
    O            2.292943979419     0.983436385388    -0.137064081531
    O            2.064273022745    -1.121353773258    -0.103651317189
    H            0.769869514089    -1.072449799993     2.299099212958
    H           -0.853200244622    -1.700859108225     2.514307722572
    H            0.236502094925    -2.431659519780     1.343092349957

  Mulliken Charges: (a.u.)
   Center  Symbol    Alpha    Beta     Spin     Total
       1     H     0.38961  0.38961  0.00000  0.22078
       2     C     3.11104  3.11104  0.00000 -0.22208
       3     C     3.08477  3.08477  0.00000 -0.16953
       4     C     3.08277  3.08277  0.00000 -0.16554
       5     H     0.39044  0.39044  0.00000  0.21913
       6     C     3.12203  3.12203  0.00000 -0.24406
       7     H     0.37214  0.37214  0.00000  0.25572
       8     C     2.91843  2.91843  0.00000  0.16314
       9     H     0.39271  0.39271  0.00000  0.21457
      10     C     2.96499  2.96499  0.00000  0.07002
      11     N     3.26276  3.26276  0.00000  0.47449
      12     C     3.24732  3.24732  0.00000 -0.49463
      13     O     4.22609  4.22609  0.00000 -0.45219
      14     O     4.22768  4.22768  0.00000 -0.45537
      15     H     0.40311  0.40311  0.00000  0.19378
      16     H     0.41174  0.41174  0.00000  0.17652
      17     H     0.39237  0.39237  0.00000  0.21526

   Total alpha = 36.00000, Total beta = 36.00000, Total charge = -0.00000
