  ==> Input File <==

--------------------------------------------------------------------------
set {
	reference rhf
	basis cc-pvtz
}

set_num_threads( 4 )
memory 2 gb

molecule MOL {
0 1

H	 -1.088256	 -1.364742	 0.152233
O	 -1.432053	 -0.565244	 -0.200812
C	 -0.727158	 0.534527	 0.310686
C	 0.680222	 0.664433	 -0.252229
H	 -1.306802	 1.408001	 0.044211
H	 -0.690821	 0.490158	 1.397609
C	 0.847874	 1.816273	 -1.238739
H	 1.373678	 0.785103	 0.573476
H	 0.932193	 -0.271407	 -0.743516
H	 0.662622	 2.774979	 -0.766840
H	 1.855905	 1.844743	 -1.634486
H	 0.167091	 1.717156	 -2.078779

	symmetry c1
}
set optking {
	frozen_dihedral = ("
		8 4 3 2
	")
}

ee = optimize('scf')
oeprop('DIPOLE', 'QUADRUPOLE', 'MULLIKEN_CHARGES')
f=open( 'psi4out.xyz', 'w' )
f.write( "12  " )
f.write( str(ee) + "\n" )
f.write( MOL.save_string_xyz() )
f.close()
--------------------------------------------------------------------------

    Molecular point group: c1
  Charge       = 0
  Multiplicity = 1
  Basis Set: CC-PVTZ
  Basis Set:
  @DF-RHF Final Energy:  -193.18487617147215
    Total Energy =                       -193.1848761714720411
    Molecular point group: c1
  Basis Set: CC-PVTZ
  Basis Set:
  Basis Set: CC-PVTZ
  Basis Set:
  @DF-RHF Final Energy:  -193.18523426533289
    Total Energy =                       -193.1852342653329231
  Basis Set: CC-PVTZ
  Basis Set:
  Basis Set: CC-PVTZ
  Basis Set:
  @DF-RHF Final Energy:  -193.18529952109165
    Total Energy =                       -193.1852995210916788
  Basis Set: CC-PVTZ
  Basis Set:
  Basis Set: CC-PVTZ
  Basis Set:
  @DF-RHF Final Energy:  -193.18530256763174
    Total Energy =                       -193.1853025676316520
  Basis Set: CC-PVTZ
  Basis Set:
  Charge       = 0
  Multiplicity = 1
  Basis Set: CC-PVTZ
  Basis Set:

    Orbital Energies (a.u.)
    -----------------------

    Doubly Occupied:

       1A    -20.545398     2A    -11.265935     3A    -11.217391
       4A    -11.210681     5A     -1.363326     6A     -1.049564
       7A     -0.919248     8A     -0.820116     9A     -0.686740
      10A     -0.627517    11A     -0.623741    12A     -0.575918
      13A     -0.534297    14A     -0.521502    15A     -0.487049
      16A     -0.465921    17A     -0.430069

  @DF-RHF Final Energy:  -193.18530290899980

   => Energetics <=

    Nuclear Repulsion Energy =            131.4900396029007652
    One-Electron Energy =                -522.6618654137984095
    Two-Electron Energy =                 197.9865229018978710
    DFT Exchange-Correlation Energy =       0.0000000000000000
    Empirical Dispersion Energy =           0.0000000000000000
    PCM Polarization Energy =               0.0000000000000000
    EFP Energy =                            0.0000000000000000
    Total Energy =                       -193.1853029089997733
    Molecular point group: c1
  Basis Set: CC-PVTZ
  Basis Set:

  -Total Gradient:
     Atom            X                  Y                   Z
    ------   -----------------  -----------------  -----------------
       1        0.000009869118    -0.000011052802     0.000001615327
       2        0.000769681110    -0.001290468241     0.001721456116
       3       -0.000966827212     0.001159567562    -0.002262124560
       4       -0.000098612846     0.003121154373     0.000387425937
       5        0.000011811820    -0.000017381352    -0.000016660823
       6       -0.000018853523    -0.000040973873    -0.000000861993
       7        0.000028339875    -0.000002901982     0.000027833996
       8        0.000281544471    -0.002863582090     0.000136475282
       9        0.000003846737    -0.000023552992    -0.000011919609
      10       -0.000002120946    -0.000015876409     0.000003911167
      11       -0.000019478237     0.000017046425     0.000013024301
      12        0.000000799633    -0.000031978619    -0.000000175142

  **** Optimization is complete! (in 5 steps) ****
    Final optimized geometry and variables:
    Molecular point group: c1

    Geometry (in Angstrom), charge = 0, multiplicity = 1:

    H           -0.849068613378    -1.930537025682     0.410146672633
    O           -1.256236414541    -1.127613104291     0.141136321059
    C           -0.543646641889    -0.035868743652     0.661606406249
    C            0.879814572488     0.089545332146     0.095490212469
    H           -1.127763754225     0.840140229415     0.414886136811
    H           -0.511738271340    -0.102447884655     1.745574541120
    C            1.045363893031     1.222967925443    -0.910665468081
    H            1.591279971207     0.200626504816     0.907370499999
    H            1.128643078696    -0.850963020671    -0.386182118002
    H            0.841679432776     2.184999514516    -0.452472575161
    H            2.053354218576     1.253087773516    -1.307693402873
    H            0.361334719737     1.100344645093    -1.743047609323

  Mulliken Charges: (a.u.)
   Center  Symbol    Alpha    Beta     Spin     Total
       1     H     0.39451  0.39451  0.00000  0.21099
       2     O     4.20332  4.20332  0.00000 -0.40663
       3     C     2.96923  2.96923  0.00000  0.06154
       4     C     3.08728  3.08728  0.00000 -0.17457
       5     H     0.45891  0.45891  0.00000  0.08218
       6     H     0.46802  0.46802  0.00000  0.06395
       7     C     3.15067  3.15067  0.00000 -0.30134
       8     H     0.45426  0.45426  0.00000  0.09148
       9     H     0.45840  0.45840  0.00000  0.08320
      10     H     0.45572  0.45572  0.00000  0.08855
      11     H     0.45009  0.45009  0.00000  0.09982
      12     H     0.44959  0.44959  0.00000  0.10083

   Total alpha = 17.00000, Total beta = 17.00000, Total charge =  0.00000
