  ==> Input File <==

--------------------------------------------------------------------------
set {
	reference rhf
	basis 6-31G*
}

set_num_threads( 4 )
memory 2 gb

molecule MOL {
0 1

H	 1.353092	 -3.772952	 4.108713
C	 1.340385	 -3.355343	 3.107119
C	 0.113006	 -2.470006	 2.895735
H	 2.259067	 -2.791009	 2.973787
H	 1.356606	 -4.183539	 2.404214
C	 0.056087	 -1.862958	 1.497646
H	 0.102204	 -1.664321	 3.623158
H	 -0.787853	 -3.056305	 3.069222
N	 -1.103938	 -1.007187	 1.344499
H	 0.942827	 -1.256472	 1.333844
H	 0.085820	 -2.662406	 0.749731
C	 -1.217365	 -0.386708	 0.039277
H	 -1.934551	 -1.535072	 1.535448
C	 -2.452633	 0.504241	 -0.042481
H	 -0.328508	 0.217335	 -0.122044
H	 -1.242288	 -1.122707	 -0.771320
C	 -3.758029	 -0.289423	 -0.010781
H	 -2.394220	 1.093569	 -0.952170
H	 -2.440793	 1.210787	 0.785871
H	 -3.816659	 -0.981993	 -0.845726
H	 -4.617837	 0.370165	 -0.069296
H	 -3.847478	 -0.867502	 0.904682

	symmetry c1
}
set optking {
	frozen_dihedral = ("
		15 12 14 18
	")
}

ee = optimize('scf')
oeprop('DIPOLE', 'QUADRUPOLE', 'MULLIKEN_CHARGES')
f=open( 'psi4out.xyz', 'w' )
f.write( "22  " )
f.write( str(ee) + "\n" )
f.write( MOL.save_string_xyz() )
f.close()
--------------------------------------------------------------------------

    Molecular point group: c1
  Charge       = 0
  Multiplicity = 1
  Basis Set: 6-31G*
  Basis Set:
  @DF-RHF Final Energy:  -290.38160008633173
    Total Energy =                       -290.3816000863318436
    Molecular point group: c1
  Basis Set: 6-31G*
  Basis Set:
  Basis Set: 6-31G*
  Basis Set:
  @DF-RHF Final Energy:  -290.38191298869236
    Total Energy =                       -290.3819129886928749
  Basis Set: 6-31G*
  Basis Set:
  Basis Set: 6-31G*
  Basis Set:
  @DF-RHF Final Energy:  -290.38204546052168
    Total Energy =                       -290.3820454605215673
  Basis Set: 6-31G*
  Basis Set:
  Basis Set: 6-31G*
  Basis Set:
  @DF-RHF Final Energy:  -290.38204945538683
    Total Energy =                       -290.3820494553865501
  Basis Set: 6-31G*
  Basis Set:
  Charge       = 0
  Multiplicity = 1
  Basis Set: 6-31G*
  Basis Set:

    Orbital Energies (a.u.)
    -----------------------

    Doubly Occupied:

       1A    -15.533467     2A    -11.238040     3A    -11.238021
       4A    -11.213646     5A    -11.213181     6A    -11.210626
       7A    -11.209787     8A     -1.205648     9A     -1.058730
      10A     -1.023783    11A     -0.928755    12A     -0.878779
      13A     -0.805430    14A     -0.789448    15A     -0.668187
      16A     -0.634569    17A     -0.621987    18A     -0.586739
      19A     -0.574091    20A     -0.572511    21A     -0.546386
      22A     -0.528401    23A     -0.506488    24A     -0.486830
      25A     -0.479799    26A     -0.471766    27A     -0.467216
      28A     -0.451072    29A     -0.358750

  @DF-RHF Final Energy:  -290.38204980310223

   => Energetics <=

    Nuclear Repulsion Energy =            316.9893998447666377
    One-Electron Energy =               -1019.7386360401001184
    Two-Electron Energy =                 412.3671863922315310
    DFT Exchange-Correlation Energy =       0.0000000000000000
    Empirical Dispersion Energy =           0.0000000000000000
    PCM Polarization Energy =               0.0000000000000000
    EFP Energy =                            0.0000000000000000
    Total Energy =                       -290.3820498031018928
    Molecular point group: c1
  Basis Set: 6-31G*
  Basis Set:

  -Total Gradient:
     Atom            X                  Y                   Z
    ------   -----------------  -----------------  -----------------
       1       -0.000002278962     0.000002437053    -0.000000809468
       2       -0.000001350744     0.000005441720    -0.000003976223
       3        0.000002555919    -0.000006007419     0.000003201852
       4        0.000002973280    -0.000000291763     0.000000061314
       5       -0.000000465537    -0.000000211488    -0.000000266315
       6       -0.000015321673    -0.000000464587     0.000011039294
       7       -0.000000818296     0.000000106258     0.000001382930
       8       -0.000001625813     0.000001027578    -0.000000436911
       9        0.000023308012    -0.000005563662    -0.000016860362
      10       -0.000002294159     0.000003714209    -0.000002063279
      11       -0.000002380009    -0.000001212500    -0.000003579892
      12        0.000176028710     0.000353434026     0.001249714528
      13       -0.000012951602     0.000001277694     0.000005460435
      14       -0.000589188407    -0.000873158938    -0.000777231686
      15       -0.000058674987    -0.000163798463    -0.000938258752
      16        0.000011235355    -0.000011503890    -0.000005455013
      17        0.000009407309     0.000007018052    -0.000015798822
      18        0.000461268964     0.000673512709     0.000473675487
      19       -0.000008362868     0.000017061482     0.000010914477
      20        0.000001136525    -0.000004320266     0.000010053516
      21        0.000002348343     0.000005390973    -0.000001809354
      22        0.000005450640    -0.000003888778     0.000001042243

  **** Optimization is complete! (in 5 steps) ****
    Final optimized geometry and variables:
    Molecular point group: c1

    Geometry (in Angstrom), charge = 0, multiplicity = 1:

    H            2.402192070358    -2.484664943566     2.845430394127
    C            2.387484459281    -2.054597916232     1.849136329555
    C            1.134318086646    -1.207039947684     1.634415265645
    H            3.288652559581    -1.458936086109     1.734045109595
    H            2.438899539440    -2.872521620921     1.135970336385
    C            1.074494762388    -0.582985132775     0.243987596476
    H            1.088430676489    -0.412199923705     2.372311435552
    H            0.251176500632    -1.824898062030     1.788954662308
    N           -0.110724743100     0.237933589928     0.088647295084
    H            1.943525042525     0.053044448708     0.098871727750
    H            1.137846586407    -1.370980190571    -0.513921579109
    C           -0.225493848838     0.867765540367    -1.212769325827
    H           -0.921754158529    -0.322101943301     0.266317598455
    C           -1.443702363964     1.784471380221    -1.305967633396
    H            0.670291946428     1.459641190503    -1.375143896155
    H           -0.259000084761     0.135494331738    -2.027074216173
    C           -2.786580140034     1.052245550739    -1.291465444762
    H           -1.364053241667     2.364618495208    -2.222146830299
    H           -1.403966417897     2.492228592274    -0.483342391422
    H           -2.842390019604     0.317032797823    -2.089985902270
    H           -3.607562083358     1.749135059638    -1.427195662537
    H           -2.956999495408     0.537804442393    -0.350530647030

  Mulliken Charges: (a.u.)
   Center  Symbol    Alpha    Beta     Spin     Total
       1     H     0.41772  0.41772  0.00000  0.16456
       2     C     3.24328  3.24328  0.00000 -0.48657
       3     C     3.15570  3.15570  0.00000 -0.31140
       4     H     0.42066  0.42066  0.00000  0.15868
       5     H     0.42164  0.42164  0.00000  0.15673
       6     C     3.04681  3.04681  0.00000 -0.09362
       7     H     0.41298  0.41298  0.00000  0.17404
       8     H     0.42678  0.42678  0.00000  0.14644
       9     N     3.85817  3.85817  0.00000 -0.71635
      10     H     0.42179  0.42179  0.00000  0.15643
      11     H     0.43622  0.43622  0.00000  0.12756
      12     C     3.05252  3.05252  0.00000 -0.10504
      13     H     0.33205  0.33205  0.00000  0.33591
      14     C     3.15439  3.15439  0.00000 -0.30878
      15     H     0.41994  0.41994  0.00000  0.16012
      16     H     0.43671  0.43671  0.00000  0.12658
      17     C     3.24565  3.24565  0.00000 -0.49130
      18     H     0.42220  0.42220  0.00000  0.15560
      19     H     0.41372  0.41372  0.00000  0.17255
      20     H     0.42218  0.42218  0.00000  0.15565
      21     H     0.41683  0.41683  0.00000  0.16635
      22     H     0.42207  0.42207  0.00000  0.15585

   Total alpha = 29.00000, Total beta = 29.00000, Total charge = -0.00000
