                              Psi4 1.0.54 Driver

  ==> Input File <==

--------------------------------------------------------------------------
set {
	reference rhf
	basis cc-pvtz
}

set_num_threads( 4 )
memory 2 gb

molecule MOL {
0 1

H	 -3.144994	 -1.202467	 -0.018751
O	 -2.321472	 -0.864941	 -0.318626
C	 -2.021813	 0.336996	 0.342658
C	 -0.669613	 0.837286	 -0.127252
H	 -2.780861	 1.084746	 0.127159
H	 -2.006390	 0.184138	 1.420053
C	 0.490865	 -0.082543	 0.241244
H	 -0.708709	 0.967192	 -1.204587
H	 -0.507562	 1.822272	 0.303070
C	 1.839800	 0.429565	 -0.255472
H	 0.305636	 -1.070211	 -0.165276
H	 0.527397	 -0.195943	 1.322876
C	 1.877415	 1.944385	 -0.427783
H	 2.616002	 0.128099	 0.442619
H	 2.081302	 -0.046165	 -1.202598
H	 1.674435	 2.449053	 0.510847
H	 2.847717	 2.276626	 -0.779116
H	 1.134695	 2.275216	 -1.146367

	symmetry c1
}
set optking {
	frozen_dihedral = ("
		14 10 7 11
	")
}

ee,wfn = optimize('scf', return_wfn=True)
oeprop( wfn, 'DIPOLE', 'QUADRUPOLE', 'MULLIKEN_CHARGES')
f=open( 'psi4out.xyz', 'w' )
f.write( "18  " )
f.write( str(ee) + "\n" )
f.write( MOL.save_string_xyz() )
f.close()
--------------------------------------------------------------------------

    Molecular point group: c1
  Charge       = 0
  Multiplicity = 1
  Basis Set: CC-PVTZ
  Basis Set:
  @DF-RHF Final Energy:  -271.27734463405613
    Total Energy =                       -271.2773446340564760
    Molecular point group: c1
  Basis Set: CC-PVTZ
  Basis Set:
  Basis Set: CC-PVTZ
  Basis Set:
  @DF-RHF Final Energy:  -271.25964881729089
    Total Energy =                       -271.2596488172908948
  Basis Set: CC-PVTZ
  Basis Set:
  Basis Set: CC-PVTZ
  Basis Set:
  @DF-RHF Final Energy:  -271.27932669476263
    Total Energy =                       -271.2793266947627444
  Basis Set: CC-PVTZ
  Basis Set:
  Basis Set: CC-PVTZ
  Basis Set:
  @DF-RHF Final Energy:  -271.28018546300672
    Total Energy =                       -271.2801854630065463
  Basis Set: CC-PVTZ
  Basis Set:
  Basis Set: CC-PVTZ
  Basis Set:
  @DF-RHF Final Energy:  -271.28024714803178
    Total Energy =                       -271.2802471480316626
  Basis Set: CC-PVTZ
  Basis Set:
  Basis Set: CC-PVTZ
  Basis Set:
  @DF-RHF Final Energy:  -271.28026638143308
    Total Energy =                       -271.2802663814330231
  Basis Set: CC-PVTZ
  Basis Set:
  Basis Set: CC-PVTZ
  Basis Set:
  @DF-RHF Final Energy:  -271.28027326697418
    Total Energy =                       -271.2802732669742340
  Basis Set: CC-PVTZ
  Basis Set:
  Charge       = 0
  Multiplicity = 1
  Basis Set: CC-PVTZ
  Basis Set:

    Orbital Energies (a.u.)
    -----------------------

    Doubly Occupied:

       1A    -20.546225     2A    -11.265642     3A    -11.209687
       4A    -11.209537     5A    -11.205207     6A    -11.203020
       7A     -1.364090     8A     -1.074286     9A     -1.006244
      10A     -0.915888    11A     -0.833345    12A     -0.766426
      13A     -0.708843    14A     -0.636641    15A     -0.627360
      16A     -0.602314    17A     -0.565551    18A     -0.551654
      19A     -0.527244    20A     -0.506806    21A     -0.493545
      22A     -0.462460    23A     -0.452614    24A     -0.449644
      25A     -0.428855

  @DF-RHF Final Energy:  -271.28027358510337

   => Energetics <=

    Nuclear Repulsion Energy =            252.3629409813233053
    One-Electron Energy =                -868.0601713192922944
    Two-Electron Energy =                 344.4169567528653033
    DFT Exchange-Correlation Energy =       0.0000000000000000
    Empirical Dispersion Energy =           0.0000000000000000
    PCM Polarization Energy =               0.0000000000000000
    EFP Energy =                            0.0000000000000000
    Total Energy =                       -271.2802735851037141
    Molecular point group: c1
  Basis Set: CC-PVTZ
  Basis Set:

  -Total Gradient:
     Atom            X                  Y                   Z
    ------   -----------------  -----------------  -----------------
       1        0.000003782645     0.000003421874     0.000000773526
       2        0.000011359097    -0.000017442015     0.000009766555
       3        0.000001148937     0.000038235182    -0.000005679383
       4       -0.000023403322     0.000009259266     0.000021582515
       5       -0.000000644048     0.000001611100     0.000000390162
       6        0.000001551516    -0.000011852229    -0.000010465804
       7        0.001863867840    -0.003065442375     0.007133875755
       8        0.000009495310     0.000000234126     0.000003495717
       9       -0.000025860283    -0.000018362378    -0.000009371097
      10        0.000724992538    -0.005522163229    -0.005674591153
      11       -0.001675885151     0.003426131255    -0.005183606486
      12        0.000005656295     0.000003915060    -0.000003387036
      13        0.000010376841     0.000014796199    -0.000005802217
      14       -0.000912271510     0.005138391298     0.003716412739
      15        0.000002909521    -0.000002043760     0.000005027931
      16        0.000022522196    -0.000002474417     0.000002421524
      17       -0.000011361176    -0.000000212603    -0.000006077308
      18       -0.000008237248     0.000003997640     0.000005234058

  **** Optimization is complete! (in 8 steps) ****
    Final optimized geometry and variables:
    Molecular point group: c1

    Geometry (in Angstrom), charge = 0, multiplicity = 1:

    H           -2.963264816560    -1.466901849101    -0.726227141806
    O           -2.093892750833    -1.122094988371    -0.810741913235
    C           -1.925488177482    -0.019803082373     0.042965602546
    C           -0.500844648720     0.488711198740    -0.073855482403
    H           -2.616894756790     0.774051931130    -0.227972312235
    H           -2.135027566749    -0.301865946889     1.073065567052
    C            0.536421771216    -0.519643840162     0.425983015721
    H           -0.313956077897     0.731232009283    -1.115602250176
    H           -0.435211840209     1.416848463971     0.483828050727
    C            2.009008794080    -0.112704304197     0.219860173456
    H            0.352820584512    -1.434667986066    -0.122180433949
    H            0.351915708345    -0.718206815495     1.477411672822
    C            2.304290716329     1.386887218905     0.292472410499
    H            2.598902812864    -0.574869902751     1.004720387585
    H            2.367440827346    -0.496739620485    -0.728518519098
    H            1.979786132491     1.809382428962     1.238070008120
    H            3.370920808583     1.561495290018     0.207244049809
    H            1.819294467550     1.941327641398    -0.501339163949

  Mulliken Charges: (a.u.)
   Center  Symbol    Alpha    Beta     Spin     Total
       1     H     0.39565  0.39565  0.00000  0.20869
       2     O     4.19894  4.19894  0.00000 -0.39788
       3     C     2.97402  2.97402  0.00000  0.05196
       4     C     3.09445  3.09445  0.00000 -0.18889
       5     H     0.46502  0.46502  0.00000  0.06996
       6     H     0.47376  0.47376  0.00000  0.05248
       7     C     3.09615  3.09615  0.00000 -0.19230
       8     H     0.45101  0.45101  0.00000  0.09798
       9     H     0.45132  0.45132  0.00000  0.09736
      10     C     3.08841  3.08841  0.00000 -0.17683
      11     H     0.44185  0.44185  0.00000  0.11631
      12     H     0.45611  0.45611  0.00000  0.08778
      13     C     3.15787  3.15787  0.00000 -0.31574
      14     H     0.45217  0.45217  0.00000  0.09566
      15     H     0.45053  0.45053  0.00000  0.09895
      16     H     0.45498  0.45498  0.00000  0.09004
      17     H     0.44556  0.44556  0.00000  0.10888
      18     H     0.45221  0.45221  0.00000  0.09558

   Total alpha = 25.00000, Total beta = 25.00000, Total charge = -0.00000

*** Psi4 exiting successfully. Buy a developer a beer!
