                              Psi4 1.0.54 Driver

  ==> Input File <==

--------------------------------------------------------------------------
set {
	reference rhf
	basis cc-pvtz
}

set_num_threads( 4 )
memory 2 gb

molecule MOL {
0 1

O	 -2.081319	 -0.951530	 -0.502732
N	 -1.613558	 0.006676	 0.014756
C	 -0.329345	 -0.171618	 0.743966
O	 -2.068523	 1.100482	 -0.024385
C	 -0.515188	 -1.186300	 1.865113
H	 -0.064178	 0.800940	 1.123751
H	 0.385334	 -0.509100	 0.012138
C	 0.781762	 -1.401909	 2.640740
H	 -1.292498	 -0.834140	 2.533194
H	 -0.852195	 -2.124008	 1.438655
C	 0.624956	 -2.419436	 3.765254
H	 1.116869	 -0.455150	 3.054005
H	 1.559199	 -1.733704	 1.958897
H	 -0.122968	 -2.098079	 4.481520
H	 0.320435	 -3.385536	 3.378429
H	 1.558270	 -2.554487	 4.298027

	symmetry c1
}
set optking {
	frozen_dihedral = ("
		5 3 2 1
	")
}

ee,wfn = optimize('scf', return_wfn=True)
oeprop( wfn, 'DIPOLE', 'QUADRUPOLE', 'MULLIKEN_CHARGES')
f=open( 'psi4out.xyz', 'w' )
f.write( "16  " )
f.write( str(ee) + "\n" )
f.write( MOL.save_string_xyz() )
f.close()
--------------------------------------------------------------------------

    Molecular point group: c1
  Charge       = 0
  Multiplicity = 1
  Basis Set: CC-PVTZ
  Basis Set:
  @DF-RHF Final Energy:  -360.90896605506816
    Total Energy =                       -360.9089660550680492
    Molecular point group: c1
  Basis Set: CC-PVTZ
  Basis Set:
  Basis Set: CC-PVTZ
  Basis Set:
  @DF-RHF Final Energy:  -360.90373485442331
    Total Energy =                       -360.9037348544232486
  Basis Set: CC-PVTZ
  Basis Set:
  Basis Set: CC-PVTZ
  Basis Set:
  @DF-RHF Final Energy:  -360.90893323273781
    Total Energy =                       -360.9089332327377520
  Basis Set: CC-PVTZ
  Basis Set:
  Basis Set: CC-PVTZ
  Basis Set:
  @DF-RHF Final Energy:  -360.90914682666681
    Total Energy =                       -360.9091468266666425
  Basis Set: CC-PVTZ
  Basis Set:
  @DF-RHF Final Energy:  -360.90883375719733
    Total Energy =                       -360.9088337571976126
  Basis Set: CC-PVTZ
  Basis Set:
  @DF-RHF Final Energy:  -360.90922568202382
    Total Energy =                       -360.9092256820238163
  Basis Set: CC-PVTZ
  Basis Set:
  Basis Set: CC-PVTZ
  Basis Set:
  @DF-RHF Final Energy:  -360.90922739852232
    Total Energy =                       -360.9092273985221482
  Basis Set: CC-PVTZ
  Basis Set:
  Basis Set: CC-PVTZ
  Basis Set:
  @DF-RHF Final Energy:  -360.90922857915916
    Total Energy =                       -360.9092285791593895
  Basis Set: CC-PVTZ
  Basis Set:
  Charge       = 0
  Multiplicity = 1
  Basis Set: CC-PVTZ
  Basis Set:

    Orbital Energies (a.u.)
    -----------------------

    Doubly Occupied:

       1A    -20.591848     2A    -20.588294     3A    -15.836722
       4A    -11.296757     5A    -11.248360     6A    -11.241117
       7A    -11.225321     8A     -1.635708     9A     -1.419893
      10A     -1.135627    11A     -1.059660    12A     -0.948830
      13A     -0.843484    14A     -0.826963    15A     -0.758868
      16A     -0.740758    17A     -0.728988    18A     -0.676391
      19A     -0.615443    20A     -0.606709    21A     -0.567090
      22A     -0.540249    23A     -0.517828    24A     -0.503507
      25A     -0.495849    26A     -0.486348    27A     -0.469656
      28A     -0.453073

  @DF-RHF Final Energy:  -360.90922861441391

   => Energetics <=

    Nuclear Repulsion Energy =            312.7843399221058007
    One-Electron Energy =               -1111.2684536145352467
    Two-Electron Energy =                 437.5748850780156545
    DFT Exchange-Correlation Energy =       0.0000000000000000
    Empirical Dispersion Energy =           0.0000000000000000
    PCM Polarization Energy =               0.0000000000000000
    EFP Energy =                            0.0000000000000000
    Total Energy =                       -360.9092286144137915
    Molecular point group: c1
  Basis Set: CC-PVTZ
  Basis Set:

  -Total Gradient:
     Atom            X                  Y                   Z
    ------   -----------------  -----------------  -----------------
       1       -0.000257601333    -0.000144419799     0.000462428571
       2        0.000382580282     0.000080721339    -0.000731983425
       3       -0.000240697489     0.000360283449     0.000528080065
       4        0.000028452664    -0.000002256922     0.000018541309
       5        0.000095694175    -0.000290227557    -0.000257789636
       6       -0.000002437470     0.000001681403    -0.000003844236
       7       -0.000005620405     0.000001668277    -0.000002706080
       8        0.000004581618    -0.000006943557    -0.000013227804
       9       -0.000004246699    -0.000001208289    -0.000002278246
      10        0.000001674191    -0.000002530556     0.000001710232
      11       -0.000004301795     0.000003623010     0.000004072495
      12       -0.000002115824    -0.000001504033    -0.000002817512
      13        0.000004348000    -0.000002106148     0.000000371593
      14       -0.000001808850    -0.000001598460     0.000000823774
      15        0.000002237626     0.000001585794    -0.000001441388
      16       -0.000000738695     0.000003232049     0.000000060286

  **** Optimization is complete! (in 9 steps) ****
    Final optimized geometry and variables:
    Molecular point group: c1

    Geometry (in Angstrom), charge = 0, multiplicity = 1:

    O           -1.319933160148    -0.217453756491    -1.710184994091
    N           -0.847740968357     0.728105409979    -1.172510582313
    C            0.430450692155     0.521422768172    -0.435469830852
    O           -1.309100368301     1.819035878088    -1.174315752677
    C            0.261059437591    -0.505575713096     0.673618996575
    H            0.715973585706     1.490121455793    -0.064207598397
    H            1.136395425157     0.184000254975    -1.180024256273
    C            1.564577043711    -0.707681156533     1.442462624709
    H           -0.517188155774    -0.170357538573     1.351624715828
    H           -0.068453626242    -1.441215293673     0.242687239176
    C            1.425182543017    -1.729897750596     2.565041395948
    H            1.893677060502     0.240760538579     1.856683177560
    H            2.341645907007    -1.029961209075     0.755265231712
    H            0.677458939281    -1.418899997846     3.286173801144
    H            1.129116701727    -2.698119045181     2.177100881411
    H            2.362606200395    -1.856004992534     3.092824473045

  Mulliken Charges: (a.u.)
   Center  Symbol    Alpha    Beta     Spin     Total
       1     O     4.17460  4.17460  0.00000 -0.34920
       2     N     3.27655  3.27655  0.00000  0.44691
       3     C     3.04186  3.04186  0.00000 -0.08373
       4     O     4.16934  4.16934  0.00000 -0.33868
       5     C     3.10102  3.10102  0.00000 -0.20204
       6     H     0.43202  0.43202  0.00000  0.13596
       7     H     0.43642  0.43642  0.00000  0.12717
       8     C     3.09373  3.09373  0.00000 -0.18746
       9     H     0.44291  0.44291  0.00000  0.11417
      10     H     0.43305  0.43305  0.00000  0.13390
      11     C     3.14811  3.14811  0.00000 -0.29621
      12     H     0.45051  0.45051  0.00000  0.09899
      13     H     0.45095  0.45095  0.00000  0.09810
      14     H     0.45207  0.45207  0.00000  0.09586
      15     H     0.45152  0.45152  0.00000  0.09696
      16     H     0.44535  0.44535  0.00000  0.10930

   Total alpha = 28.00000, Total beta = 28.00000, Total charge = -0.00000

*** Psi4 exiting successfully. Buy a developer a beer!
