  ==> Input File <==

--------------------------------------------------------------------------
set {
	reference rhf
	basis cc-pvtz
}

set_num_threads( 4 )
memory 2 gb

molecule MOL {
0 1

O	 -0.694481	 1.313155	 -0.204815
C	 -0.862519	 0.151932	 -0.046791
C	 -2.171428	 -0.477048	 0.339095
O	 0.085519	 -0.757083	 -0.192238
H	 -2.467997	 -1.191667	 -0.417688
H	 -2.923379	 0.287970	 0.444097
H	 -2.053854	 -1.015120	 1.270901
C	 1.327536	 -0.365364	 -0.765325
C	 2.266731	 0.210909	 0.273771
H	 1.145269	 0.341669	 -1.559492
H	 1.731980	 -1.272742	 -1.188221
H	 3.222933	 0.435034	 -0.185465
H	 1.867555	 1.125288	 0.690846
H	 2.432085	 -0.498621	 1.075531

	symmetry c1
}
set optking {
	frozen_dihedral = ("
		8 4 2 1
	")
}

ee = optimize('scf')
oeprop('DIPOLE', 'QUADRUPOLE', 'MULLIKEN_CHARGES')
f=open( 'psi4out.xyz', 'w' )
f.write( "14  " )
f.write( str(ee) + "\n" )
f.write( MOL.save_string_xyz() )
f.close()
--------------------------------------------------------------------------

    Molecular point group: c1
  Charge       = 0
  Multiplicity = 1
  Basis Set: CC-PVTZ
  Basis Set:
  @DF-RHF Final Energy:  -305.99053449360656
    Total Energy =                       -305.9905344936066172
    Molecular point group: c1
  Basis Set: CC-PVTZ
  Basis Set:
  Basis Set: CC-PVTZ
  Basis Set:
  @DF-RHF Final Energy:  -305.98937171840583
    Total Energy =                       -305.9893717184057778
  Basis Set: CC-PVTZ
  Basis Set:
  Basis Set: CC-PVTZ
  Basis Set:
  @DF-RHF Final Energy:  -305.99063729016109
    Total Energy =                       -305.9906372901607483
  Basis Set: CC-PVTZ
  Basis Set:
  Basis Set: CC-PVTZ
  Basis Set:
  @DF-RHF Final Energy:  -305.99065711347430
    Total Energy =                       -305.9906571134741853
  Basis Set: CC-PVTZ
  Basis Set:
  Basis Set: CC-PVTZ
  Basis Set:
  @DF-RHF Final Energy:  -305.99066453623925
    Total Energy =                       -305.9906645362391373
  Basis Set: CC-PVTZ
  Basis Set:
  Basis Set: CC-PVTZ
  Basis Set:
  @DF-RHF Final Energy:  -305.99066713760010
    Total Energy =                       -305.9906671375999849
  Basis Set: CC-PVTZ
  Basis Set:
  Charge       = 0
  Multiplicity = 1
  Basis Set: CC-PVTZ
  Basis Set:

    Orbital Energies (a.u.)
    -----------------------

    Doubly Occupied:

       1A    -20.593934     2A    -20.533379     3A    -11.368134
       4A    -11.283604     5A    -11.231684     6A    -11.216001
       7A     -1.470359     8A     -1.365833     9A     -1.055941
      10A     -0.999151    11A     -0.882813    12A     -0.768756
      13A     -0.701268    14A     -0.685377    15A     -0.659208
      16A     -0.612005    17A     -0.586635    18A     -0.571117
      19A     -0.561361    20A     -0.529930    21A     -0.516891
      22A     -0.495607    23A     -0.453728    24A     -0.442618

  @DF-RHF Final Energy:  -305.99066808943201

   => Energetics <=

    Nuclear Repulsion Energy =            248.8543654808062229
    One-Electron Energy =                -910.5193929021704662
    Two-Electron Energy =                 355.6743593319320098
    DFT Exchange-Correlation Energy =       0.0000000000000000
    Empirical Dispersion Energy =           0.0000000000000000
    PCM Polarization Energy =               0.0000000000000000
    EFP Energy =                            0.0000000000000000
    Total Energy =                       -305.9906680894322335
    Molecular point group: c1
  Basis Set: CC-PVTZ
  Basis Set:

  -Total Gradient:
     Atom            X                  Y                   Z
    ------   -----------------  -----------------  -----------------
       1        0.000666412109     0.000472307034     0.002987099309
       2       -0.001438696504    -0.001011467055    -0.005568154281
       3       -0.000030324707    -0.000018511151    -0.000098555549
       4        0.001612667378     0.001236946348     0.004819112288
       5        0.000009626804    -0.000017843987     0.000027807162
       6        0.000005375898     0.000001909577     0.000009024632
       7        0.000006795660     0.000021259951     0.000024292312
       8       -0.000837215172    -0.000664072921    -0.002235085857
       9        0.000042075219    -0.000040617018     0.000017118136
      10       -0.000007544606    -0.000002028981     0.000005722860
      11       -0.000015305436    -0.000004499381     0.000003198058
      12       -0.000005871513     0.000007496696     0.000002510072
      13       -0.000004238315     0.000012573448     0.000005130717
      14       -0.000003756815     0.000006547445     0.000000780141

  **** Optimization is complete! (in 7 steps) ****
    Final optimized geometry and variables:
    Molecular point group: c1

    Geometry (in Angstrom), charge = 0, multiplicity = 1:

    O           -0.727992512695     1.290994363299    -0.187404949923
    C           -0.873832156689     0.135667705361     0.025630917988
    C           -2.166470749741    -0.496678823499     0.457653098298
    O            0.095422245586    -0.758501447159    -0.064088355289
    H           -2.480204985015    -1.220071709831    -0.284071872410
    H           -2.920429811795     0.264440170478     0.575594085326
    H           -2.018728792845    -1.025563192935     1.390151597642
    C            1.336369937477    -0.368341730545    -0.641437141598
    C            2.289866684675     0.182605905700     0.398263488885
    H            1.152490893597     0.354869735512    -1.420697567916
    H            1.729485977145    -1.271455319813    -1.084042123206
    H            3.244320304927     0.406026174674    -0.065096895576
    H            1.900404853810     1.092338612077     0.833887211280
    H            2.455398371017    -0.541611286476     1.186703858515

  Mulliken Charges: (a.u.)
   Center  Symbol    Alpha    Beta     Spin     Total
       1     O     4.19869  4.19869  0.00000 -0.39737
       2     C     2.80270  2.80270  0.00000  0.39460
       3     C     3.13816  3.13816  0.00000 -0.27633
       4     O     4.15731  4.15731  0.00000 -0.31461
       5     H     0.44636  0.44636  0.00000  0.10728
       6     H     0.43836  0.43836  0.00000  0.12328
       7     H     0.44515  0.44515  0.00000  0.10971
       8     C     2.98488  2.98488  0.00000  0.03024
       9     C     3.14639  3.14639  0.00000 -0.29278
      10     H     0.45037  0.45037  0.00000  0.09926
      11     H     0.44483  0.44483  0.00000  0.11033
      12     H     0.45224  0.45224  0.00000  0.09553
      13     H     0.44191  0.44191  0.00000  0.11618
      14     H     0.45266  0.45266  0.00000  0.09468

   Total alpha = 24.00000, Total beta = 24.00000, Total charge =  0.00000
