  ==> Input File <==

--------------------------------------------------------------------------
set {
	reference rhf
	basis 6-31G*
}

set_num_threads( 4 )
memory 2 gb

molecule MOL {
0 1

H	 2.310713	 -0.853862	 0.665572
C	 1.565778	 -0.086878	 0.802908
O	 0.464886	 -0.454746	 -0.000158
H	 1.973138	 0.867711	 0.491712
H	 1.286997	 -0.041719	 1.848998
C	 -0.590998	 0.343045	 0.000118
O	 -1.699443	 -0.054298	 0.000227
H	 -0.340329	 1.404368	 0.000207

	symmetry c1
}
set optking {
	frozen_dihedral = ("
		2 3 6 7
	")
}

ee = optimize('scf')
oeprop('DIPOLE', 'QUADRUPOLE', 'MULLIKEN_CHARGES')
f=open( 'psi4out.xyz', 'w' )
f.write( "8  " )
f.write( str(ee) + "\n" )
f.write( MOL.save_string_xyz() )
f.close()
--------------------------------------------------------------------------

    Molecular point group: c1
  Charge       = 0
  Multiplicity = 1
  Basis Set: 6-31G*
  Basis Set:
  @DF-RHF Final Energy:  -227.77483294843998
    Total Energy =                       -227.7748329484398937
    Molecular point group: c1
  Basis Set: 6-31G*
  Basis Set:
  Basis Set: 6-31G*
  Basis Set:
  @DF-RHF Final Energy:  -227.77475729767050
    Total Energy =                       -227.7747572976703054
  Basis Set: 6-31G*
  Basis Set:
  Basis Set: 6-31G*
  Basis Set:
  @DF-RHF Final Energy:  -227.77493935618176
    Total Energy =                       -227.7749393561817612
  Basis Set: 6-31G*
  Basis Set:
  Basis Set: 6-31G*
  Basis Set:
  @DF-RHF Final Energy:  -227.77512747645824
    Total Energy =                       -227.7751274764583798
  Basis Set: 6-31G*
  Basis Set:
  Basis Set: 6-31G*
  Basis Set:
  @DF-RHF Final Energy:  -227.77512939112972
    Total Energy =                       -227.7751293911297239
  Basis Set: 6-31G*
  Basis Set:
  Charge       = 0
  Multiplicity = 1
  Basis Set: 6-31G*
  Basis Set:

    Orbital Energies (a.u.)
    -----------------------

    Doubly Occupied:

       1A    -20.610638     2A    -20.564230     3A    -11.383095
       4A    -11.303977     5A     -1.474466     6A     -1.384313
       7A     -0.991167     8A     -0.846319     9A     -0.738201
      10A     -0.684876    11A     -0.679474    12A     -0.614454
      13A     -0.569341    14A     -0.528372    15A     -0.466865
      16A     -0.455002

  @DF-RHF Final Energy:  -227.77512965519014

   => Energetics <=

    Nuclear Repulsion Energy =            121.2894687233748527
    One-Electron Energy =                -551.5396166386206005
    Two-Electron Energy =                 202.4750182600557480
    DFT Exchange-Correlation Energy =       0.0000000000000000
    Empirical Dispersion Energy =           0.0000000000000000
    PCM Polarization Energy =               0.0000000000000000
    EFP Energy =                            0.0000000000000000
    Total Energy =                       -227.7751296551899998
    Molecular point group: c1
  Basis Set: 6-31G*
  Basis Set:

  -Total Gradient:
     Atom            X                  Y                   Z
    ------   -----------------  -----------------  -----------------
       1       -0.000026884729    -0.000005030564    -0.000021305284
       2       -0.001749026909    -0.001731147839     0.003648403526
       3        0.002613416708     0.002940500460    -0.002622753715
       4       -0.000004391674    -0.000011572092    -0.000011390953
       5        0.000005492087    -0.000003637189     0.000002212958
       6       -0.000906175759    -0.001788116645    -0.006563020082
       7        0.000062488244     0.000609846618     0.005574268373
       8        0.000005082035    -0.000010842747    -0.000006414820

  **** Optimization is complete! (in 6 steps) ****
    Final optimized geometry and variables:
    Molecular point group: c1

    Geometry (in Angstrom), charge = 0, multiplicity = 1:

    H            2.409508388600    -0.726064969628     0.361623472110
    C            1.612300281856    -0.035524495744     0.585165571532
    O            0.493495166333    -0.448001608434    -0.168962421510
    H            1.922075191232     0.968672056037     0.313409463134
    H            1.386945996132    -0.071506697147     1.643479987911
    C           -0.526257984035     0.401068795567    -0.252862548872
    O           -1.655023470212     0.072186874186    -0.203668280217
    H           -0.215552076481     1.440878810999    -0.361268437187

  Mulliken Charges: (a.u.)
   Center  Symbol    Alpha    Beta     Spin     Total
       1     H     0.39836  0.39836  0.00000  0.20328
       2     C     3.09746  3.09746  0.00000 -0.19492
       3     O     4.28223  4.28223  0.00000 -0.56447
       4     H     0.41843  0.41843  0.00000  0.16314
       5     H     0.40924  0.40924  0.00000  0.18151
       6     C     2.72729  2.72729  0.00000  0.54542
       7     O     4.23647  4.23647  0.00000 -0.47294
       8     H     0.43051  0.43051  0.00000  0.13898

   Total alpha = 16.00000, Total beta = 16.00000, Total charge =  0.00000
