                              Psi4 1.0.54 Driver

  ==> Input File <==

--------------------------------------------------------------------------
set {
	reference rhf
	basis cc-pvtz
}

set_num_threads( 4 )
memory 2 gb

molecule MOL {
0 1

O	 2.679593	 1.650158	 -1.081217
C	 2.552685	 0.619707	 -1.657563
C	 1.258494	 -0.167920	 -1.634187
C	 3.685689	 0.021054	 -2.460147
C	 0.146762	 0.470026	 -0.813269
H	 0.943168	 -0.310103	 -2.665410
H	 1.488266	 -1.164275	 -1.263394
C	 -1.135460	 -0.357614	 -0.818824
H	 -0.054155	 1.463312	 -1.198144
H	 0.491522	 0.608496	 0.205112
C	 -2.258482	 0.271340	 0.000669
H	 -1.474016	 -0.494483	 -1.843481
H	 -0.925950	 -1.353032	 -0.433453
C	 -3.544441	 -0.550271	 -0.000253
H	 -2.468794	 1.266303	 -0.383948
H	 -1.921294	 0.407834	 1.025267
C	 -4.804551	 0.308747	 0.000556
H	 -3.553737	 -1.201524	 -0.870151
H	 -3.553831	 -1.203282	 0.868313
H	 -4.842050	 0.949078	 -0.874436
H	 -5.698404	 -0.304480	 -0.000254
H	 -4.842277	 0.947103	 0.876982
H	 3.386135	 -0.103402	 -3.494954
H	 4.551221	 0.663263	 -2.407109
H	 3.936503	 -0.961986	 -2.077048

	symmetry c1
}
set optking {
	frozen_dihedral = ("
		15 11 14 18
	")
}

ee,wfn = optimize('scf', return_wfn=True)
oeprop( wfn, 'DIPOLE', 'QUADRUPOLE', 'MULLIKEN_CHARGES')
f=open( 'psi4out.xyz', 'w' )
f.write( "25  " )
f.write( str(ee) + "\n" )
f.write( MOL.save_string_xyz() )
f.close()
--------------------------------------------------------------------------

    Molecular point group: c1
  Charge       = 0
  Multiplicity = 1
  Basis Set: CC-PVTZ
  Basis Set:
  @DF-RHF Final Energy:  -387.27091356219779
    Total Energy =                       -387.2709135621980749
    Molecular point group: c1
  Basis Set: CC-PVTZ
  Basis Set:
  Basis Set: CC-PVTZ
  Basis Set:
  @DF-RHF Final Energy:  -387.27083080111117
    Total Energy =                       -387.2708308011115150
  Basis Set: CC-PVTZ
  Basis Set:
  Basis Set: CC-PVTZ
  Basis Set:
  @DF-RHF Final Energy:  -387.27126142847652
    Total Energy =                       -387.2712614284764641
  Basis Set: CC-PVTZ
  Basis Set:
  Basis Set: CC-PVTZ
  Basis Set:
  @DF-RHF Final Energy:  -387.27122028985229
    Total Energy =                       -387.2712202898524083
  Basis Set: CC-PVTZ
  Basis Set:
  Basis Set: CC-PVTZ
  Basis Set:
  @DF-RHF Final Energy:  -387.27124425275338
    Total Energy =                       -387.2712442527533767
  Basis Set: CC-PVTZ
  Basis Set:
  Basis Set: CC-PVTZ
  Basis Set:
  @DF-RHF Final Energy:  -387.27127326023617
    Total Energy =                       -387.2712732602362848
  Basis Set: CC-PVTZ
  Basis Set:
  Charge       = 0
  Multiplicity = 1
  Basis Set: CC-PVTZ
  Basis Set:

    Orbital Energies (a.u.)
    -----------------------

    Doubly Occupied:

       1A    -20.538928     2A    -11.320561     3A    -11.230267
       4A    -11.226627     5A    -11.215702     6A    -11.214763
       7A    -11.213296     8A    -11.211263     9A    -11.207103
      10A     -1.398985    11A     -1.094619    12A     -1.056707
      13A     -1.015592    14A     -0.970446    15A     -0.891660
      16A     -0.816063    17A     -0.791887    18A     -0.731071
      19A     -0.660784    20A     -0.654722    21A     -0.629715
      22A     -0.626385    23A     -0.598641    24A     -0.586819
      25A     -0.569420    26A     -0.559576    27A     -0.538696
      28A     -0.528771    29A     -0.514614    30A     -0.493552
      31A     -0.488209    32A     -0.475818    33A     -0.465253
      34A     -0.456388    35A     -0.452217    36A     -0.401489

  @DF-RHF Final Energy:  -387.27127379124545

   => Energetics <=

    Nuclear Repulsion Energy =            439.1384474589951878
    One-Electron Energy =               -1395.1262239417669662
    Two-Electron Energy =                 568.7165026915262160
    DFT Exchange-Correlation Energy =       0.0000000000000000
    Empirical Dispersion Energy =           0.0000000000000000
    PCM Polarization Energy =               0.0000000000000000
    EFP Energy =                            0.0000000000000000
    Total Energy =                       -387.2712737912455623
    Molecular point group: c1
  Basis Set: CC-PVTZ
  Basis Set:

  -Total Gradient:
     Atom            X                  Y                   Z
    ------   -----------------  -----------------  -----------------
       1       -0.000016075863    -0.000007859153    -0.000018042802
       2        0.000019815432    -0.000021180462     0.000026221870
       3        0.000005462107     0.000025082298    -0.000022352008
       4       -0.000003232203     0.000009592587    -0.000011531483
       5        0.000006568939    -0.000006671474    -0.000000435235
       6        0.000004588716    -0.000003305604    -0.000007126549
       7        0.000001711378     0.000010242951     0.000002041396
       8        0.000025034695    -0.000013324680     0.000039036405
       9       -0.000002354885    -0.000000103617     0.000006111970
      10       -0.000010671265    -0.000008439649    -0.000004147779
      11        0.001354670576    -0.002162644636    -0.004546914746
      12        0.000005136927     0.000002793063     0.000016407522
      13        0.000003842237    -0.000002080103     0.000000767795
      14       -0.002561659216     0.004298259204    -0.001614652012
      15       -0.000727945800     0.001141883423     0.004080659503
      16        0.000019507821    -0.000013395222    -0.000024137178
      17       -0.000025908593    -0.000015693870     0.000033526685
      18        0.001927664844    -0.003250790515     0.002041587833
      19       -0.000021462569     0.000022182176    -0.000001732092
      20        0.000005513241    -0.000030816029     0.000016608966
      21        0.000004820637     0.000020332635     0.000004391445
      22       -0.000010398111     0.000006823828    -0.000018934486
      23        0.000004146062    -0.000003736037     0.000003325294
      24       -0.000006770264    -0.000003183997     0.000000198275
      25       -0.000002004843     0.000006032886    -0.000000878590

  **** Optimization is complete! (in 7 steps) ****
    Final optimized geometry and variables:
    Molecular point group: c1

    Geometry (in Angstrom), charge = 0, multiplicity = 1:

    O            2.912793452396     1.266139946295    -0.024019281228
    C            2.742925477733     0.290994325865    -0.679890678129
    C            1.411305452840    -0.430350825572    -0.729895738062
    C            3.855408315051    -0.299982234894    -1.516258167356
    C            0.321079824260     0.198364425648     0.126263058979
    H            1.103873621962    -0.477863555743    -1.772124441110
    H            1.586759311168    -1.462204537423    -0.434015981941
    C           -0.999619240535    -0.561393253218     0.045362799865
    H            0.173641161525     1.226586777594    -0.184108357782
    H            0.658309309715     0.242634395390     1.155501940096
    C           -2.105867416078     0.065399483968     0.886737133945
    H           -1.326812267341    -0.613155097520    -0.990638953003
    H           -0.847368564252    -1.589942390279     0.366211732272
    C           -3.422300633552    -0.725337804910     0.872853224795
    H           -2.287291704722     1.088102053654     0.567083358295
    H           -1.759936942483     0.154737079840     1.913352939487
    C           -4.663863303186     0.147654611563     1.007407379370
    H           -3.480087024751    -1.327440552210    -0.029441533105
    H           -3.407346271009    -1.446221038126     1.685550841601
    H           -4.750729898715     0.834127666226     0.171938609711
    H           -5.566247359018    -0.452120467057     1.040296164269
    H           -4.626990776399     0.739504082944     1.916191775082
    H            3.563492909642    -0.328764193999    -2.560269598613
    H            4.750920497727     0.291836185088    -1.405557939100
    H            4.052289670997    -1.321048702043    -1.208543290344

  Mulliken Charges: (a.u.)
   Center  Symbol    Alpha    Beta     Spin     Total
       1     O     4.17074  4.17074  0.00000 -0.34147
       2     C     2.86218  2.86218  0.00000  0.27565
       3     C     3.11373  3.11373  0.00000 -0.22746
       4     C     3.15128  3.15128  0.00000 -0.30255
       5     C     3.08349  3.08349  0.00000 -0.16698
       6     H     0.44561  0.44561  0.00000  0.10879
       7     H     0.44559  0.44559  0.00000  0.10883
       8     C     3.09071  3.09071  0.00000 -0.18142
       9     H     0.44573  0.44573  0.00000  0.10854
      10     H     0.44595  0.44595  0.00000  0.10810
      11     C     3.09008  3.09008  0.00000 -0.18017
      12     H     0.45555  0.45555  0.00000  0.08891
      13     H     0.45488  0.45488  0.00000  0.09024
      14     C     3.08606  3.08606  0.00000 -0.17212
      15     H     0.45342  0.45342  0.00000  0.09316
      16     H     0.45262  0.45262  0.00000  0.09475
      17     C     3.14834  3.14834  0.00000 -0.29667
      18     H     0.45583  0.45583  0.00000  0.08835
      19     H     0.45347  0.45347  0.00000  0.09306
      20     H     0.45541  0.45541  0.00000  0.08917
      21     H     0.44937  0.44937  0.00000  0.10125
      22     H     0.45385  0.45385  0.00000  0.09230
      23     H     0.45039  0.45039  0.00000  0.09922
      24     H     0.43536  0.43536  0.00000  0.12928
      25     H     0.45037  0.45037  0.00000  0.09927

   Total alpha = 36.00000, Total beta = 36.00000, Total charge =  0.00000

*** Psi4 exiting successfully. Buy a developer a beer!
