  ==> Input File <==

--------------------------------------------------------------------------
set {
	reference rhf
	basis 6-31G*
}

set_num_threads( 4 )
memory 2 gb

molecule MOL {
0 1

H	 0.855364	 4.565546	 -1.509301
C	 1.710082	 4.644456	 -0.826035
C	 1.441788	 4.188217	 0.585516
O	 2.750128	 5.065628	 -1.216764
C	 0.835025	 2.779410	 0.643451
H	 2.367739	 4.246745	 1.145782
H	 0.741144	 4.898160	 1.023391
C	 1.794696	 1.681859	 0.176854
H	 0.527544	 2.579178	 1.665530
H	 -0.073292	 2.752321	 0.043465
C	 1.180775	 0.282413	 0.250794
H	 2.696430	 1.715497	 0.784794
H	 2.113287	 1.880008	 -0.844800
C	 2.148627	 -0.814315	 -0.201312
H	 0.855170	 0.094241	 1.270747
H	 0.285135	 0.248479	 -0.368126
C	 3.580890	 -0.659131	 0.322722
H	 2.166869	 -0.852443	 -1.289387
H	 1.762857	 -1.776509	 0.128956
C	 4.324889	 0.564933	 -0.213704
H	 4.142010	 -1.551473	 0.056605
H	 3.564836	 -0.624694	 1.410140
H	 4.342616	 0.565491	 -1.300421
H	 3.866655	 1.493402	 0.110242
H	 5.353900	 0.572371	 0.132816

	symmetry c1
}
set optking {
	frozen_dihedral = ("
		8 11 14 18
	")
}

ee = optimize('scf')
oeprop('DIPOLE', 'QUADRUPOLE', 'MULLIKEN_CHARGES')
f=open( 'psi4out.xyz', 'w' )
f.write( "25  " )
f.write( str(ee) + "\n" )
f.write( MOL.save_string_xyz() )
f.close()
--------------------------------------------------------------------------

    Molecular point group: c1
  Charge       = 0
  Multiplicity = 1
  Basis Set: 6-31G*
  Basis Set:
  @DF-RHF Final Energy:  -387.08862653510744
    Total Energy =                       -387.0886265351075508
    Molecular point group: c1
  Basis Set: 6-31G*
  Basis Set:
  Basis Set: 6-31G*
  Basis Set:
  @DF-RHF Final Energy:  -387.10778820269041
    Total Energy =                       -387.1077882026913812
  Basis Set: 6-31G*
  Basis Set:
  Basis Set: 6-31G*
  Basis Set:
  @DF-RHF Final Energy:  -387.11335644167235
    Total Energy =                       -387.1133564416711579
  Basis Set: 6-31G*
  Basis Set:
  Basis Set: 6-31G*
  Basis Set:
  @DF-RHF Final Energy:  -387.11462640119549
    Total Energy =                       -387.1146264011961193
  Basis Set: 6-31G*
  Basis Set:
  @DF-RHF Final Energy:  -387.11495424507075
    Total Energy =                       -387.1149542450709760
  @DF-RHF Final Energy:  -387.11534360608505
    Total Energy =                       -387.1153436060847071
  @DF-RHF Final Energy:  -387.11554666952401
    Total Energy =                       -387.1155466695232690
  @DF-RHF Final Energy:  -387.11578492364305
    Total Energy =                       -387.1157849236434458
  @DF-RHF Final Energy:  -387.11590055457236
    Total Energy =                       -387.1159005545729315
  @DF-RHF Final Energy:  -387.11593618468032
    Total Energy =                       -387.1159361846797538
  @DF-RHF Final Energy:  -387.11593637817623
    Total Energy =                       -387.1159363781760021
  Basis Set: 6-31G*
  Basis Set:
  @DF-RHF Final Energy:  -387.11594294497752
    Total Energy =                       -387.1159429449772915
  Basis Set: 6-31G*
  Basis Set:
  Basis Set: 6-31G*
  Basis Set:
  @DF-RHF Final Energy:  -387.11594114124262
    Total Energy =                       -387.1159411412426152
  Basis Set: 6-31G*
  Basis Set:
  Basis Set: 6-31G*
  Basis Set:
  @DF-RHF Final Energy:  -387.11594319631610
    Total Energy =                       -387.1159431963167208
  Basis Set: 6-31G*
  Basis Set:
  Charge       = 0
  Multiplicity = 1
  Basis Set: 6-31G*
  Basis Set:

    Orbital Energies (a.u.)
    -----------------------

    Doubly Occupied:

       1A    -20.562162     2A    -11.326302     3A    -11.235428
       4A    -11.234776     5A    -11.223493     6A    -11.221023
       7A    -11.217766     8A    -11.217138     9A    -11.207301
      10A     -1.402095    11A     -1.103361    12A     -1.066537
      13A     -1.010253    14A     -0.947098    15A     -0.872570
      16A     -0.825565    17A     -0.788750    18A     -0.774994
      19A     -0.665536    20A     -0.659575    21A     -0.627490
      22A     -0.623543    23A     -0.608130    24A     -0.593274
      25A     -0.569620    26A     -0.555026    27A     -0.533510
      28A     -0.521387    29A     -0.516086    30A     -0.494398
      31A     -0.487032    32A     -0.485940    33A     -0.457948
      34A     -0.450996    35A     -0.441774    36A     -0.409638

  @DF-RHF Final Energy:  -387.11594347944146

   => Energetics <=

    Nuclear Repulsion Energy =            450.5079406011382730
    One-Electron Energy =               -1417.3727339316492362
    Two-Electron Energy =                 579.7488498510690533
    DFT Exchange-Correlation Energy =       0.0000000000000000
    Empirical Dispersion Energy =           0.0000000000000000
    PCM Polarization Energy =               0.0000000000000000
    EFP Energy =                            0.0000000000000000
    Total Energy =                       -387.1159434794419667
    Molecular point group: c1
  Basis Set: 6-31G*
  Basis Set:

  -Total Gradient:
     Atom            X                  Y                   Z
    ------   -----------------  -----------------  -----------------
       1        0.000000809516    -0.000000770859    -0.000000426657
       2        0.000000620992     0.000002099852    -0.000000397902
       3       -0.000002574633    -0.000006012316    -0.000003916987
       4       -0.000000746990     0.000001722238     0.000000174128
       5        0.000000342690     0.000001756361     0.000002430656
       6       -0.000000174632    -0.000000430145    -0.000000643096
       7        0.000001104119     0.000002205054     0.000000872898
       8        0.001057229781    -0.000343614942     0.003174384140
       9       -0.000000560083    -0.000000293771     0.000000930627
      10        0.000000975971     0.000000067698     0.000000424208
      11       -0.002340073175    -0.000208175470    -0.004609401536
      12        0.000001467319    -0.000001245073     0.000001130763
      13       -0.000000157972     0.000000149571    -0.000001150237
      14        0.004647914243     0.003499548025     0.001458397811
      15        0.000000471113     0.000000832396    -0.000000476318
      16       -0.000000681262    -0.000000078966    -0.000000188261
      17       -0.000000118287    -0.000000750658    -0.000004255918
      18       -0.003363753052    -0.002948432264    -0.000019937110
      19       -0.000001009727    -0.000000739730    -0.000000039473
      20        0.000000280709     0.000000295844     0.000002690603
      21        0.000000689177     0.000000087449     0.000000441333
      22       -0.000001298235     0.000001588682    -0.000001061652
      23       -0.000001266037    -0.000000707468     0.000000215893
      24       -0.000000067554     0.000001046048     0.000000378969
      25        0.000000576007    -0.000000147561    -0.000000576878

  **** Optimization is complete! (in 15 steps) ****
    Final optimized geometry and variables:
    Molecular point group: c1

    Geometry (in Angstrom), charge = 0, multiplicity = 1:

    H           -1.448888052870     2.676111873402    -1.417322223942
    C           -0.649805073609     2.780535789578    -0.672803002313
    C           -0.987140465371     2.260555091173     0.701389576655
    O            0.385663405109     3.279315179277    -0.974414878704
    C           -1.492955782849     0.811354435585     0.673860359652
    H           -0.110824518352     2.364606180704     1.330753189105
    H           -1.767075351068     2.904647201444     1.105473578895
    C           -0.424380724559    -0.200204873978     0.248997056206
    H           -1.858660682016     0.555752882074     1.664232545325
    H           -2.350869752167     0.740963819745     0.007356551735
    C           -0.951297378489    -1.636972167533     0.269358477257
    H            0.428225869071    -0.107229957961     0.914871167949
    H           -0.063359739857     0.046483192330    -0.747652334991
    C            0.021282088704    -2.744011737212    -0.174301322110
    H           -1.275235272177    -1.856725362909     1.285725009086
    H           -1.843995407260    -1.700677596156    -0.348794728225
    C            1.441627904898    -2.713509498192     0.415314796998
    H            0.062781928418    -2.783861891946    -1.261228083412
    H           -0.442609256062    -3.684745303103     0.113670943349
    C            2.466199776257    -1.914671771502    -0.394584296761
    H            1.801577284615    -3.736268726450     0.487298410452
    H            1.405872491227    -2.341012751758     1.437001678608
    H            2.552242986280    -2.313542413306    -1.401406551300
    H            2.206185464915    -0.866375974162    -0.478820153059
    H            3.447799322854    -1.972909118524     0.066167871130

  Mulliken Charges: (a.u.)
   Center  Symbol    Alpha    Beta     Spin     Total
       1     H     0.43252  0.43252  0.00000  0.13496
       2     C     2.83089  2.83089  0.00000  0.33822
       3     C     3.20793  3.20793  0.00000 -0.41585
       4     O     4.23782  4.23782  0.00000 -0.47565
       5     C     3.16627  3.16627  0.00000 -0.33254
       6     H     0.39993  0.39993  0.00000  0.20015
       7     H     0.40671  0.40671  0.00000  0.18659
       8     C     3.15832  3.15832  0.00000 -0.31663
       9     H     0.41290  0.41290  0.00000  0.17420
      10     H     0.41958  0.41958  0.00000  0.16085
      11     C     3.15252  3.15252  0.00000 -0.30505
      12     H     0.41574  0.41574  0.00000  0.16852
      13     H     0.41842  0.41842  0.00000  0.16316
      14     C     3.15465  3.15465  0.00000 -0.30929
      15     H     0.42388  0.42388  0.00000  0.15225
      16     H     0.42183  0.42183  0.00000  0.15633
      17     C     3.15771  3.15771  0.00000 -0.31541
      18     H     0.42178  0.42178  0.00000  0.15643
      19     H     0.42005  0.42005  0.00000  0.15991
      20     C     3.24151  3.24151  0.00000 -0.48301
      21     H     0.41945  0.41945  0.00000  0.16110
      22     H     0.42245  0.42245  0.00000  0.15510
      23     H     0.42155  0.42155  0.00000  0.15690
      24     H     0.41584  0.41584  0.00000  0.16833
      25     H     0.41978  0.41978  0.00000  0.16044

   Total alpha = 36.00000, Total beta = 36.00000, Total charge =  0.00000
