  ==> Input File <==

--------------------------------------------------------------------------
set {
	reference rhf
	basis 6-31G*
}

set_num_threads( 1 )
memory 2 gb

molecule MOL {
0 1

O	 2.862325	 1.357334	 0.000267
C	 2.843464	 0.164689	 -0.000222
C	 1.546494	 -0.624492	 -0.000609
C	 4.124123	 -0.644674	 -0.000428
C	 0.291004	 0.242674	 0.000989
H	 1.557904	 -1.283758	 -0.867573
H	 1.558622	 -1.285963	 0.864672
C	 -0.994322	 -0.586602	 0.000262
H	 0.309117	 0.896430	 -0.865270
H	 0.309661	 0.894078	 0.869017
C	 -2.259874	 0.272531	 0.000494
H	 -1.004862	 -1.240012	 -0.870939
H	 -1.005220	 -1.241071	 0.870675
C	 -3.471197	 -0.433814	 -0.610888
H	 -2.068440	 1.194614	 -0.545524
H	 -2.493873	 0.567468	 1.021892
C	 -4.731405	 0.430792	 -0.607274
H	 -3.238909	 -0.728059	 -1.632302
H	 -3.664472	 -1.354941	 -0.064968
H	 -4.581101	 1.345056	 -1.174443
H	 -5.572173	 -0.096720	 -1.047208
H	 -5.010364	 0.712778	 0.404067
H	 4.165367	 -1.288615	 -0.874074
H	 4.976217	 0.020734	 -0.001915
H	 4.166763	 -1.286207	 0.874930

	symmetry c1
}
set optking {
	frozen_dihedral = ("
		9 5 8 12,
		15 11 14 18,
		1 2 3 6,
		9 5 3 6
	")
}

ee = energy('scf')
oeprop('DIPOLE', 'QUADRUPOLE', 'MULLIKEN_CHARGES')
f=open( 'psi4out.xyz', 'w' )
f.write( "25  " )
f.write( str(ee) + "\n" )
f.write( MOL.save_string_xyz() )
f.close()
--------------------------------------------------------------------------

    Molecular point group: c1

    Geometry (in Angstrom), charge = 0, multiplicity = 1:

       Center              X                  Y                   Z               Mass
    ------------   -----------------  -----------------  -----------------  -----------------
           O          2.844563637791     1.331133287631     0.138189014216    15.994914619560
           C          2.825702637791     0.138488287631     0.137700014216    12.000000000000
           C          1.528732637791    -0.650692712369     0.137313014216    12.000000000000
           C          4.106361637791    -0.670874712369     0.137494014216    12.000000000000
           C          0.273242637791     0.216473287631     0.138911014216    12.000000000000
           H          1.540142637791    -1.309958712369    -0.729650985784     1.007825032070
           H          1.540860637791    -1.312163712369     1.002594014216     1.007825032070
           C         -1.012083362209    -0.612802712369     0.138184014216    12.000000000000
           H          0.291355637791     0.870229287631    -0.727347985784     1.007825032070
           H          0.291899637791     0.867877287631     1.006939014216     1.007825032070
           C         -2.277635362209     0.246330287631     0.138416014216    12.000000000000
           H         -1.022623362209    -1.266212712369    -0.733016985784     1.007825032070
           H         -1.022981362209    -1.267271712369     1.008597014216     1.007825032070
           C         -3.488958362209    -0.460014712369    -0.472965985784    12.000000000000
           H         -2.086201362209     1.168413287631    -0.407601985784     1.007825032070
           H         -2.511634362209     0.541267287631     1.159814014216     1.007825032070
           C         -4.749166362209     0.404591287631    -0.469351985784    12.000000000000
           H         -3.256670362209    -0.754259712369    -1.494379985784     1.007825032070
           H         -3.682233362209    -1.381141712369     0.072954014216     1.007825032070
           H         -4.598862362209     1.318855287631    -1.036520985784     1.007825032070
           H         -5.589934362209    -0.122920712369    -0.909285985784     1.007825032070
           H         -5.028125362209     0.686577287631     0.541989014216     1.007825032070
           H          4.147605637791    -1.314815712369    -0.736151985784     1.007825032070
           H          4.958455637791    -0.005466712369     0.136007014216     1.007825032070
           H          4.149001637791    -1.312407712369     1.012852014216     1.007825032070

  Charge       = 0
  Multiplicity = 1
  Basis Set: 6-31G*
  Basis Set:

    Orbital Energies (a.u.)
    -----------------------

    Doubly Occupied:

       1A    -20.550491     2A    -11.326280     3A    -11.231701
       4A    -11.228310     5A    -11.217053     6A    -11.216105
       7A    -11.215474     8A    -11.212880     9A    -11.208061
      10A     -1.395774    11A     -1.093640    12A     -1.056192
      13A     -1.014405    14A     -0.969150    15A     -0.890505
      16A     -0.814791    17A     -0.790635    18A     -0.729987
      19A     -0.659889    20A     -0.651903    21A     -0.632537
      22A     -0.623252    23A     -0.597169    24A     -0.583664
      25A     -0.566289    26A     -0.561096    27A     -0.539268
      28A     -0.528133    29A     -0.511051    30A     -0.489249
      31A     -0.487808    32A     -0.475320    33A     -0.463881
      34A     -0.459648    35A     -0.449860    36A     -0.399373

  @DF-RHF Final Energy:  -387.13437691299430

   => Energetics <=

    Nuclear Repulsion Energy =            438.7805948895855863
    One-Electron Energy =               -1394.1483219571941845
    Two-Electron Energy =                 568.2333501546129355
    DFT Exchange-Correlation Energy =       0.0000000000000000
    Empirical Dispersion Energy =           0.0000000000000000
    PCM Polarization Energy =               0.0000000000000000
    EFP Energy =                            0.0000000000000000
    Total Energy =                       -387.1343769129956627

  Mulliken Charges: (a.u.)
   Center  Symbol    Alpha    Beta     Spin     Total
       1     O     4.26120  4.26120  0.00000 -0.52240
       2     C     2.73570  2.73570  0.00000  0.52859
       3     C     3.21105  3.21105  0.00000 -0.42210
       4     C     3.28663  3.28663  0.00000 -0.57327
       5     C     3.14920  3.14920  0.00000 -0.29841
       6     H     0.40994  0.40994  0.00000  0.18012
       7     H     0.41005  0.41005  0.00000  0.17991
       8     C     3.15469  3.15469  0.00000 -0.30937
       9     H     0.41196  0.41196  0.00000  0.17607
      10     H     0.41196  0.41196  0.00000  0.17607
      11     C     3.15175  3.15175  0.00000 -0.30350
      12     H     0.42441  0.42441  0.00000  0.15117
      13     H     0.42352  0.42352  0.00000  0.15296
      14     C     3.15251  3.15251  0.00000 -0.30501
      15     H     0.42107  0.42107  0.00000  0.15786
      16     H     0.42182  0.42182  0.00000  0.15635
      17     C     3.23962  3.23962  0.00000 -0.47925
      18     H     0.42317  0.42317  0.00000  0.15365
      19     H     0.42350  0.42350  0.00000  0.15301
      20     H     0.42108  0.42108  0.00000  0.15783
      21     H     0.41959  0.41959  0.00000  0.16082
      22     H     0.42162  0.42162  0.00000  0.15676
      23     H     0.40875  0.40875  0.00000  0.18250
      24     H     0.39648  0.39648  0.00000  0.20703
      25     H     0.40870  0.40870  0.00000  0.18260

   Total alpha = 36.00000, Total beta = 36.00000, Total charge = -0.00000
