                              Psi4 1.0.54 Driver

  ==> Input File <==

--------------------------------------------------------------------------
set {
	reference rhf
	basis cc-pvtz
}

set_num_threads( 4 )
memory 2 gb

molecule MOL {
0 1

O	 -1.278239	 1.034789	 -0.784693
C	 -1.204115	 0.062668	 -0.112312
C	 -2.386398	 -0.667698	 0.460323
O	 -0.068058	 -0.518372	 0.226882
H	 -2.382952	 -1.693172	 0.114333
H	 -3.296656	 -0.175702	 0.158400
H	 -2.312537	 -0.685191	 1.540100
C	 0.368539	 -1.678508	 -0.488848
C	 1.241852	 -2.463998	 0.468984
C	 1.099520	 -1.260310	 -1.751933
H	 -0.505729	 -2.254745	 -0.750944
H	 0.686128	 -2.737552	 1.356727
H	 1.593266	 -3.370959	 -0.008134
H	 2.102855	 -1.879671	 0.770929
H	 1.441476	 -2.137371	 -2.288897
H	 0.446948	 -0.697758	 -2.404875
H	 1.962572	 -0.651493	 -1.507463

	symmetry c1
}
set optking {
	frozen_dihedral = ("
		8 4 2 1
	")
}

ee,wfn = optimize('scf', return_wfn=True)
oeprop( wfn, 'DIPOLE', 'QUADRUPOLE', 'MULLIKEN_CHARGES')
f=open( 'psi4out.xyz', 'w' )
f.write( "17  " )
f.write( str(ee) + "\n" )
f.write( MOL.save_string_xyz() )
f.close()
--------------------------------------------------------------------------

    Molecular point group: c1
  Charge       = 0
  Multiplicity = 1
  Basis Set: CC-PVTZ
  Basis Set:
  @DF-RHF Final Energy:  -345.02207702518621
    Total Energy =                       -345.0220770251860358
    Molecular point group: c1
  Basis Set: CC-PVTZ
  Basis Set:
  Basis Set: CC-PVTZ
  Basis Set:
  @DF-RHF Final Energy:  -344.94769930597528
    Total Energy =                       -344.9476993059754477
  Basis Set: CC-PVTZ
  Basis Set:
  Basis Set: CC-PVTZ
  Basis Set:
  @DF-RHF Final Energy:  -344.93347044428378
    Total Energy =                       -344.9334704442836710
  Basis Set: CC-PVTZ
  Basis Set:
  Basis Set: CC-PVTZ
  Basis Set:
  @DF-RHF Final Energy:  -344.92663504534585
    Total Energy =                       -344.9266350453453924
  Basis Set: CC-PVTZ
  Basis Set:
  @DF-RHF Final Energy:  -344.92705010812733
    Total Energy =                       -344.9270501081275597
  @DF-RHF Final Energy:  -344.95513468968034
    Total Energy =                       -344.9551346896806763
  @DF-RHF Final Energy:  -345.00782113739325
    Total Energy =                       -345.0078211373933641
  @DF-RHF Final Energy:  -345.00680761684043
    Total Energy =                       -345.0068076168405469
  @DF-RHF Final Energy:  -345.02295694129538
    Total Energy =                       -345.0229569412955470
  @DF-RHF Final Energy:  -345.02339522371636
    Total Energy =                       -345.0233952237164203
  @DF-RHF Final Energy:  -345.02375190667817
    Total Energy =                       -345.0237519066782852
  @DF-RHF Final Energy:  -345.02405993804194
    Total Energy =                       -345.0240599380423419
  Basis Set: CC-PVTZ
  Basis Set:
  @DF-RHF Final Energy:  -345.02409665663799
    Total Energy =                       -345.0240966566379939
  Basis Set: CC-PVTZ
  Basis Set:
  Basis Set: CC-PVTZ
  Basis Set:
  @DF-RHF Final Energy:  -345.02410769886762
    Total Energy =                       -345.0241076988676241
  Basis Set: CC-PVTZ
  Basis Set:
  Basis Set: CC-PVTZ
  Basis Set:
  @DF-RHF Final Energy:  -345.02410962521088
    Total Energy =                       -345.0241096252111106
  Basis Set: CC-PVTZ
  Basis Set:
  Charge       = 0
  Multiplicity = 1
  Basis Set: CC-PVTZ
  Basis Set:

    Orbital Energies (a.u.)
    -----------------------

    Doubly Occupied:

       1A    -20.573295     2A    -20.542650     3A    -11.369083
       4A    -11.300208     5A    -11.235569     6A    -11.220990
       7A    -11.215791     8A     -1.458758     9A     -1.368188
      10A     -1.074401    11A     -1.011905    12A     -0.951725
      13A     -0.849242    14A     -0.770953    15A     -0.695312
      16A     -0.676687    17A     -0.655653    18A     -0.620163
      19A     -0.591751    20A     -0.590314    21A     -0.556889
      22A     -0.551995    23A     -0.545567    24A     -0.520997
      25A     -0.509707    26A     -0.481601    27A     -0.450189
      28A     -0.437477

  @DF-RHF Final Energy:  -345.02411049745933

   => Energetics <=

    Nuclear Repulsion Energy =            322.9332569676913636
    One-Electron Energy =               -1110.2606172651671841
    Two-Electron Energy =                 442.3032498000164878
    DFT Exchange-Correlation Energy =       0.0000000000000000
    Empirical Dispersion Energy =           0.0000000000000000
    PCM Polarization Energy =               0.0000000000000000
    EFP Energy =                            0.0000000000000000
    Total Energy =                       -345.0241104974593327
    Molecular point group: c1
  Basis Set: CC-PVTZ
  Basis Set:

  -Total Gradient:
     Atom            X                  Y                   Z
    ------   -----------------  -----------------  -----------------
       1       -0.000543163037     0.000504968676     0.000032829570
       2        0.000765300408    -0.000689648604     0.000374195737
       3       -0.000096521842     0.000083548830    -0.000036526045
       4       -0.000109983085     0.000060192126    -0.000866604725
       5        0.000043117452    -0.000031401408    -0.000013032059
       6        0.000023367405     0.000038973919    -0.000008784877
       7        0.000035875611    -0.000058746656    -0.000030087308
       8       -0.000108772593     0.000137250654     0.000526878974
       9       -0.000030036812    -0.000049065364     0.000019646982
      10       -0.000071984976     0.000003965193     0.000012929353
      11        0.000012856030    -0.000006866509     0.000007667404
      12       -0.000002063296    -0.000009622226    -0.000026661100
      13        0.000010876769     0.000006076180    -0.000004371725
      14        0.000005141218     0.000006179547    -0.000011618770
      15        0.000038483661    -0.000010390843     0.000011196315
      16        0.000033947295     0.000022120355     0.000000582589
      17       -0.000006440206    -0.000007533871     0.000011759682

  **** Optimization is complete! (in 16 steps) ****
    Final optimized geometry and variables:
    Molecular point group: c1

    Geometry (in Angstrom), charge = 0, multiplicity = 1:

    O           -1.485843227307    -1.032614216717    -1.030277157309
    C           -1.135562995621    -0.487634403017    -0.047966673822
    C           -1.658454728218    -0.816525207479     1.324477331145
    O           -0.286916167059     0.555896223622    -0.079850800537
    H           -0.846045703683    -0.970402777022     2.022698562047
    H           -2.280680874278    -1.695708183405     1.281798804033
    H           -2.236944405228     0.027134653030     1.681040813926
    C            1.094745576118     0.340280657064     0.207732936054
    C            1.659324305564     1.678612780469     0.637796537710
    C            1.802143974251    -0.238720321505    -1.005504512951
    H            1.172069388156    -0.359052043950     1.034978647506
    H            1.137790779947     2.051081580211     1.509847520907
    H            2.711413629007     1.582729889918     0.877943455651
    H            1.552162141166     2.403159036279    -0.159996922005
    H            2.847529198343    -0.412903573123    -0.776488573828
    H            1.357057629355    -1.176865497975    -1.308093631416
    H            1.738458813668     0.448876150686    -1.839590710186

  Mulliken Charges: (a.u.)
   Center  Symbol    Alpha    Beta     Spin     Total
       1     O     4.17254  4.17254  0.00000 -0.34508
       2     C     2.80742  2.80742  0.00000  0.38515
       3     C     3.14556  3.14556  0.00000 -0.29111
       4     O     4.17672  4.17672  0.00000 -0.35343
       5     H     0.45124  0.45124  0.00000  0.09751
       6     H     0.43617  0.43617  0.00000  0.12766
       7     H     0.44317  0.44317  0.00000  0.11366
       8     C     2.93713  2.93713  0.00000  0.12574
       9     C     3.13777  3.13777  0.00000 -0.27555
      10     C     3.13947  3.13947  0.00000 -0.27893
      11     H     0.45753  0.45753  0.00000  0.08495
      12     H     0.44689  0.44689  0.00000  0.10622
      13     H     0.45509  0.45509  0.00000  0.08981
      14     H     0.44784  0.44784  0.00000  0.10433
      15     H     0.45263  0.45263  0.00000  0.09474
      16     H     0.44373  0.44373  0.00000  0.11254
      17     H     0.44910  0.44910  0.00000  0.10179

   Total alpha = 28.00000, Total beta = 28.00000, Total charge = -0.00000

*** Psi4 exiting successfully. Buy a developer a beer!
