  ==> Input File <==

--------------------------------------------------------------------------
set {
	reference rhf
	basis 6-31G*
}

set_num_threads( 4 )
memory 2 gb

molecule MOL {
0 1

O	 0.726526	 0.267520	 -0.942983
C	 0.028650	 0.075053	 -0.000277
C	 -1.233602	 -0.752807	 0.000328
O	 0.275887	 0.576768	 1.202660
C	 -2.501530	 0.091881	 0.000126
H	 -1.193807	 -1.406641	 -0.865785
H	 -1.193516	 -1.405779	 0.867015
H	 -2.545121	 0.729328	 -0.874513
H	 -3.377167	 -0.548497	 0.000561
H	 -2.544818	 0.730135	 0.874258
C	 1.436005	 1.377483	 1.338937
H	 2.321232	 0.808058	 1.094927
H	 1.462309	 1.685199	 2.372611
H	 1.379594	 2.241221	 0.692217

	symmetry c1
}
set optking {
	frozen_dihedral = ("
		4 2 3 6
	")
}

ee = optimize('scf')
oeprop('DIPOLE', 'QUADRUPOLE', 'MULLIKEN_CHARGES')
f=open( 'psi4out.xyz', 'w' )
f.write( "14  " )
f.write( str(ee) + "\n" )
f.write( MOL.save_string_xyz() )
f.close()
--------------------------------------------------------------------------

    Molecular point group: c1
  Charge       = 0
  Multiplicity = 1
  Basis Set: 6-31G*
  Basis Set:
  @DF-RHF Final Energy:  -305.87011406600595
    Total Energy =                       -305.8701140660060673
    Molecular point group: c1
  Basis Set: 6-31G*
  Basis Set:
  Basis Set: 6-31G*
  Basis Set:
  @DF-RHF Final Energy:  -305.87048141974844
    Total Energy =                       -305.8704814197481028
  Basis Set: 6-31G*
  Basis Set:
  Basis Set: 6-31G*
  Basis Set:
  @DF-RHF Final Energy:  -305.86963015083506
    Total Energy =                       -305.8696301508350643
  Basis Set: 6-31G*
  Basis Set:
  Basis Set: 6-31G*
  Basis Set:
  @DF-RHF Final Energy:  -305.87056274912788
    Total Energy =                       -305.8705627491279415
  Basis Set: 6-31G*
  Basis Set:
  Basis Set: 6-31G*
  Basis Set:
  @DF-RHF Final Energy:  -305.87056567421826
    Total Energy =                       -305.8705656742179144
  Basis Set: 6-31G*
  Basis Set:
  Charge       = 0
  Multiplicity = 1
  Basis Set: 6-31G*
  Basis Set:

    Orbital Energies (a.u.)
    -----------------------

    Doubly Occupied:

       1A    -20.605234     2A    -20.544367     3A    -11.371700
       4A    -11.281347     5A    -11.237309     6A    -11.227512
       7A     -1.469598     8A     -1.362292     9A     -1.067673
      10A     -0.976817    11A     -0.884143    12A     -0.774108
      13A     -0.696916    14A     -0.678964    15A     -0.673422
      16A     -0.617584    17A     -0.594262    18A     -0.568762
      19A     -0.543324    20A     -0.518298    21A     -0.510625
      22A     -0.505829    23A     -0.455629    24A     -0.434360

  @DF-RHF Final Energy:  -305.87056601464940

   => Energetics <=

    Nuclear Repulsion Energy =            248.1528444522738255
    One-Electron Energy =                -908.8466705908483618
    Two-Electron Energy =                 354.8232601239253086
    DFT Exchange-Correlation Energy =       0.0000000000000000
    Empirical Dispersion Energy =           0.0000000000000000
    PCM Polarization Energy =               0.0000000000000000
    EFP Energy =                            0.0000000000000000
    Total Energy =                       -305.8705660146492278
    Molecular point group: c1
  Basis Set: 6-31G*
  Basis Set:

  -Total Gradient:
     Atom            X                  Y                   Z
    ------   -----------------  -----------------  -----------------
       1       -0.000021732564     0.000004800036     0.000039805542
       2       -0.000212475255     0.000316252643    -0.000109645221
       3       -0.000195129983     0.000293322271    -0.000289571397
       4        0.000200315765    -0.000269202763     0.000079491214
       5        0.000008245730    -0.000014320911     0.000027844662
       6        0.000217730088    -0.000323033151     0.000226159168
       7       -0.000018943756     0.000008666075     0.000005111965
       8        0.000013500793    -0.000012210884     0.000000755807
       9        0.000010159755    -0.000000137147    -0.000000915115
      10       -0.000010978936     0.000014732343     0.000010290487
      11        0.000014697415    -0.000041976986     0.000013480597
      12        0.000004314314     0.000011819921     0.000002552786
      13        0.000001037646     0.000010032038     0.000000709514
      14       -0.000010741011     0.000001256515    -0.000006070010

  **** Optimization is complete! (in 6 steps) ****
    Final optimized geometry and variables:
    Molecular point group: c1

    Geometry (in Angstrom), charge = 0, multiplicity = 1:

    O            0.885710179653    -0.001157367503    -1.226240697883
    C            0.219480415124    -0.230248451284    -0.268461178294
    C           -1.035171323038    -1.067439929965    -0.269055411732
    O            0.488187008744     0.255302135271     0.936948051807
    C           -2.290224268608    -0.185797263861    -0.287521195715
    H           -1.001730786607    -1.701431203489    -1.145063506824
    H           -1.038295284926    -1.694864679216     0.614594281031
    H           -2.303391245662     0.450095007169    -1.166107451474
    H           -3.180434997902    -0.804271748086    -0.307513496188
    H           -2.336247326013     0.444380724567     0.593142479862
    C            1.623375877034     1.093955059084     1.053090709160
    H            2.519478909003     0.560267791700     0.771201006286
    H            1.671366621487     1.384052991612     2.091094095890
    H            1.516850173991     1.966383177827     0.424549729187

  Mulliken Charges: (a.u.)
   Center  Symbol    Alpha    Beta     Spin     Total
       1     O     4.28428  4.28428  0.00000 -0.56856
       2     C     2.61724  2.61724  0.00000  0.76551
       3     C     3.19405  3.19405  0.00000 -0.38809
       4     O     4.30265  4.30265  0.00000 -0.60530
       5     C     3.25140  3.25140  0.00000 -0.50279
       6     H     0.39889  0.39889  0.00000  0.20222
       7     H     0.40356  0.40356  0.00000  0.19288
       8     H     0.40925  0.40925  0.00000  0.18149
       9     H     0.41139  0.41139  0.00000  0.17722
      10     H     0.40869  0.40869  0.00000  0.18262
      11     C     3.09251  3.09251  0.00000 -0.18502
      12     H     0.40836  0.40836  0.00000  0.18327
      13     H     0.40869  0.40869  0.00000  0.18262
      14     H     0.40904  0.40904  0.00000  0.18192

   Total alpha = 24.00000, Total beta = 24.00000, Total charge =  0.00000
