  ==> Input File <==

--------------------------------------------------------------------------
set {
	reference rhf
	basis 6-31G*
}

set_num_threads( 4 )
memory 2 gb

molecule MOL {
0 1

H	 0.959040	 1.556914	 -0.290110
O	 0.055946	 1.300438	 -0.164479
C	 0.004957	 -0.004114	 0.366649
C	 1.201664	 -0.828089	 -0.095740
C	 -1.317755	 -0.601827	 -0.081511
H	 0.013527	 0.048298	 1.454924
H	 1.216388	 -0.895289	 -1.178704
H	 2.135132	 -0.372895	 0.226467
H	 1.166770	 -1.832878	 0.313827
H	 -1.355732	 -0.658248	 -1.164429
H	 -2.141614	 0.017037	 0.254547
H	 -1.447303	 -1.600817	 0.322594

	symmetry c1
}
set optking {
	frozen_dihedral = ("
		1 2 3 4
	")
}

ee = optimize('scf')
oeprop('DIPOLE', 'QUADRUPOLE', 'MULLIKEN_CHARGES')
f=open( 'psi4out.xyz', 'w' )
f.write( "12  " )
f.write( str(ee) + "\n" )
f.write( MOL.save_string_xyz() )
f.close()
--------------------------------------------------------------------------

    Molecular point group: c1
  Charge       = 0
  Multiplicity = 1
  Basis Set: 6-31G*
  Basis Set:
  @DF-RHF Final Energy:  -193.11402791828505
    Total Energy =                       -193.1140279182849042
    Molecular point group: c1
  Basis Set: 6-31G*
  Basis Set:
  Basis Set: 6-31G*
  Basis Set:
  @DF-RHF Final Energy:  -193.11409570780825
    Total Energy =                       -193.1140957078082749
  Basis Set: 6-31G*
  Basis Set:
  Basis Set: 6-31G*
  Basis Set:
  @DF-RHF Final Energy:  -193.11412817145330
    Total Energy =                       -193.1141281714533875
  Basis Set: 6-31G*
  Basis Set:
  Charge       = 0
  Multiplicity = 1
  Basis Set: 6-31G*
  Basis Set:

    Orbital Energies (a.u.)
    -----------------------

    Doubly Occupied:

       1A    -20.549724     2A    -11.275422     3A    -11.218258
       4A    -11.206421     5A     -1.359236     6A     -1.042517
       7A     -0.942900     8A     -0.806148     9A     -0.685691
      10A     -0.638134    11A     -0.606544    12A     -0.547881
      13A     -0.536949    14A     -0.525227    15A     -0.512805
      16A     -0.468772    17A     -0.427787

  @DF-RHF Final Energy:  -193.11412848572510

   => Energetics <=

    Nuclear Repulsion Energy =            135.5310227724236540
    One-Electron Energy =                -530.5894729008142576
    Two-Electron Energy =                 201.9443216426656136
    DFT Exchange-Correlation Energy =       0.0000000000000000
    Empirical Dispersion Energy =           0.0000000000000000
    PCM Polarization Energy =               0.0000000000000000
    EFP Energy =                            0.0000000000000000
    Total Energy =                       -193.1141284857250184
    Molecular point group: c1
  Basis Set: 6-31G*
  Basis Set:

  -Total Gradient:
     Atom            X                  Y                   Z
    ------   -----------------  -----------------  -----------------
       1       -0.000028092001    -0.000791181011    -0.002048094032
       2        0.000357667588     0.001160352446     0.002959918977
       3       -0.001045224652    -0.000774893966    -0.002023841391
       4        0.000741090897     0.000435140708     0.001158760076
       5       -0.000009712266    -0.000015631204    -0.000015447737
       6        0.000013934894    -0.000022097069    -0.000014759424
       7       -0.000040726037    -0.000010997174     0.000002395026
       8        0.000013812106     0.000007059323    -0.000017436154
       9        0.000001162808     0.000009763334     0.000000673742
      10       -0.000007149298    -0.000001865017    -0.000002134051
      11        0.000002890567     0.000001856286    -0.000003369193
      12        0.000000345393     0.000002493342     0.000003334160

  **** Optimization is complete! (in 4 steps) ****
    Final optimized geometry and variables:
    Molecular point group: c1

    Geometry (in Angstrom), charge = 0, multiplicity = 1:

    H            0.954443195051     1.577540891524    -0.264317235904
    O            0.054517807688     1.309645095445    -0.146362696632
    C            0.003159292101    -0.004102634218     0.365258462667
    C            1.201512341661    -0.825623269896    -0.095433372275
    C           -1.321929784103    -0.603266846870    -0.074762700926
    H            0.019763213600     0.043945997903     1.453133893943
    H            1.223530096701    -0.894318425641    -1.179143123104
    H            2.133358681963    -0.373793762722     0.237024592790
    H            1.162734466061    -1.831121869613     0.310312197852
    H           -1.357660564958    -0.688046086521    -1.155987942834
    H           -2.141229335632     0.032095534370     0.241640737712
    H           -1.464004215504    -1.588921139091     0.357644633873

  Mulliken Charges: (a.u.)
   Center  Symbol    Alpha    Beta     Spin     Total
       1     H     0.28112  0.28112  0.00000  0.43776
       2     O     4.37644  4.37644  0.00000 -0.75288
       3     C     2.90790  2.90790  0.00000  0.18421
       4     C     3.26070  3.26070  0.00000 -0.52141
       5     C     3.23956  3.23956  0.00000 -0.47911
       6     H     0.42868  0.42868  0.00000  0.14263
       7     H     0.41478  0.41478  0.00000  0.17044
       8     H     0.42261  0.42261  0.00000  0.15478
       9     H     0.41596  0.41596  0.00000  0.16808
      10     H     0.41749  0.41749  0.00000  0.16502
      11     H     0.41047  0.41047  0.00000  0.17905
      12     H     0.42429  0.42429  0.00000  0.15142

   Total alpha = 17.00000, Total beta = 17.00000, Total charge =  0.00000
