  ==> Input File <==

--------------------------------------------------------------------------
set {
	reference rhf
	basis 6-31G*
}

set_num_threads( 4 )
memory 2 gb

molecule MOL {
0 1

O	 -0.689226	 -1.591502	 -1.727397
C	 -1.538570	 -1.407419	 -0.915397
C	 -2.796594	 -2.231117	 -0.814573
O	 -1.481751	 -0.454642	 0.000584
H	 -2.522197	 -3.268195	 -0.662788
H	 -3.432968	 -1.897759	 -0.008138
H	 -3.330306	 -2.167672	 -1.755321
C	 -0.334255	 0.388708	 0.000906
C	 0.891947	 -0.504646	 0.000751
H	 -0.365390	 1.025305	 -0.873475
H	 -0.365484	 1.024911	 0.875569
C	 2.191998	 0.301789	 0.000897
H	 0.855148	 -1.151283	 -0.871571
H	 0.855132	 -1.151660	 0.872805
C	 3.441114	 -0.581407	 0.000108
H	 2.215074	 0.954890	 -0.869742
H	 2.215465	 0.953923	 0.872248
C	 4.739576	 0.224112	 -0.001102
H	 3.419457	 -1.233487	 -0.870178
H	 3.420834	 -1.233096	 0.870717
H	 4.804918	 0.861552	 -0.878265
H	 5.606527	 -0.429058	 -0.001824
H	 4.806469	 0.861674	 0.875853

	symmetry c1
}
set optking {
	frozen_dihedral = ("
		2 4 8 10
	")
}

ee = optimize('scf')
oeprop('DIPOLE', 'QUADRUPOLE', 'MULLIKEN_CHARGES')
f=open( 'psi4out.xyz', 'w' )
f.write( "23  " )
f.write( str(ee) + "\n" )
f.write( MOL.save_string_xyz() )
f.close()
--------------------------------------------------------------------------

    Molecular point group: c1
  Charge       = 0
  Multiplicity = 1
  Basis Set: 6-31G*
  Basis Set:
  @DF-RHF Final Energy:  -422.95938855450873
    Total Energy =                       -422.9593885545082230
    Molecular point group: c1
  Basis Set: 6-31G*
  Basis Set:
  Basis Set: 6-31G*
  Basis Set:
  @DF-RHF Final Energy:  -422.97284562271227
    Total Energy =                       -422.9728456227122706
  Basis Set: 6-31G*
  Basis Set:
  Basis Set: 6-31G*
  Basis Set:
  @DF-RHF Final Energy:  -422.97492559523783
    Total Energy =                       -422.9749255952375506
  Basis Set: 6-31G*
  Basis Set:
  Basis Set: 6-31G*
  Basis Set:
  @DF-RHF Final Energy:  -422.97181015887008
    Total Energy =                       -422.9718101588700847
  Basis Set: 6-31G*
  Basis Set:
  @DF-RHF Final Energy:  -422.97539900410732
    Total Energy =                       -422.9753990041072029
  @DF-RHF Final Energy:  -422.97547811839672
    Total Energy =                       -422.9754781183967225
  @DF-RHF Final Energy:  -422.97548486837280
    Total Energy =                       -422.9754848683730870
  @DF-RHF Final Energy:  -422.97548737306170
    Total Energy =                       -422.9754873730616964
  @DF-RHF Final Energy:  -422.97548953525256
    Total Energy =                       -422.9754895352519952
  @DF-RHF Final Energy:  -422.97549745443308
    Total Energy =                       -422.9754974544330253
  @DF-RHF Final Energy:  -422.97413567251243
    Total Energy =                       -422.9741356725128298
  @DF-RHF Final Energy:  -422.97220687408714
    Total Energy =                       -422.9722068740866234
  @DF-RHF Final Energy:  -422.97538556747509
    Total Energy =                       -422.9753855674749730
  @DF-RHF Final Energy:  -422.97556371261919
    Total Energy =                       -422.9755637126195325
  @DF-RHF Final Energy:  -422.97562771220151
    Total Energy =                       -422.9756277122010033
  @DF-RHF Final Energy:  -422.97564888303822
    Total Energy =                       -422.9756488830382750
  @DF-RHF Final Energy:  -422.97565143879962
    Total Energy =                       -422.9756514387992183
  @DF-RHF Final Energy:  -422.97564934611148
    Total Energy =                       -422.9756493461113678
  @DF-RHF Final Energy:  -422.97464383829458
    Total Energy =                       -422.9746438382948099
  @DF-RHF Final Energy:  -422.97325139120454
    Total Energy =                       -422.9732513912041441
  @DF-RHF Final Energy:  -422.97564587327361
    Total Energy =                       -422.9756458732726969
  @DF-RHF Final Energy:  -422.97554645809635
    Total Energy =                       -422.9755464580966873
  @DF-RHF Final Energy:  -422.97554272342956
    Total Energy =                       -422.9755427234301806
  @DF-RHF Final Energy:  -422.97546706071364
    Total Energy =                       -422.9754670607138678
  @DF-RHF Final Energy:  -422.97555088352055
    Total Energy =                       -422.9755508835198725
  @DF-RHF Final Energy:  -422.97555721061866
    Total Energy =                       -422.9755572106181489
  @DF-RHF Final Energy:  -422.97555795612419
    Total Energy =                       -422.9755579561243621
  @DF-RHF Final Energy:  -422.97556413798372
    Total Energy =                       -422.9755641379836106
  @DF-RHF Final Energy:  -422.97555247588286
    Total Energy =                       -422.9755524758829779
  @DF-RHF Final Energy:  -422.97559080546432
    Total Energy =                       -422.9755908054644351
  @DF-RHF Final Energy:  -422.97561053175366
    Total Energy =                       -422.9756105317536594
  @DF-RHF Final Energy:  -422.97562771689996
    Total Energy =                       -422.9756277169001351
  @DF-RHF Final Energy:  -422.97560907798555
    Total Energy =                       -422.9756090779854958
  @DF-RHF Final Energy:  -422.97559191742749
    Total Energy =                       -422.9755919174278915
  @DF-RHF Final Energy:  -422.97555716071616
    Total Energy =                       -422.9755571607154252
  @DF-RHF Final Energy:  -422.97552290220460
    Total Energy =                       -422.9755229022044887
  Basis Set: 6-31G*
  Basis Set:
  @DF-RHF Final Energy:  -422.97562326330768
    Total Energy =                       -422.9756232633080799
  Basis Set: 6-31G*
  Basis Set:
  Basis Set: 6-31G*
  Basis Set:
  @DF-RHF Final Energy:  -422.97561562270124
    Total Energy =                       -422.9756156227012980
  Basis Set: 6-31G*
  Basis Set:
  Basis Set: 6-31G*
  Basis Set:
  @DF-RHF Final Energy:  -422.97561677611606
    Total Energy =                       -422.9756167761158849
  Basis Set: 6-31G*
  Basis Set:
  Charge       = 0
  Multiplicity = 1
  Basis Set: 6-31G*
  Basis Set:

    Orbital Energies (a.u.)
    -----------------------

    Doubly Occupied:

       1A    -20.601509     2A    -20.541523     3A    -11.375057
       4A    -11.284225     5A    -11.232055     6A    -11.222048
       7A    -11.219351     8A    -11.219065     9A    -11.211544
      10A     -1.465541    11A     -1.361183    12A     -1.090496
      13A     -1.040981    14A     -1.002388    15A     -0.931973
      16A     -0.855392    17A     -0.799192    18A     -0.756839
      19A     -0.697594    20A     -0.678033    21A     -0.660633
      22A     -0.647421    23A     -0.606536    24A     -0.590063
      25A     -0.582134    26A     -0.569857    27A     -0.552281
      28A     -0.538732    29A     -0.521072    30A     -0.514174
      31A     -0.486956    32A     -0.475277    33A     -0.470149
      34A     -0.468506    35A     -0.440180    36A     -0.432184

  @DF-RHF Final Energy:  -422.97562584327454

   => Energetics <=

    Nuclear Repulsion Energy =            458.2869358064923517
    One-Electron Energy =               -1484.2408336226621941
    Two-Electron Energy =                 602.9782719728949587
    DFT Exchange-Correlation Energy =       0.0000000000000000
    Empirical Dispersion Energy =           0.0000000000000000
    PCM Polarization Energy =               0.0000000000000000
    EFP Energy =                            0.0000000000000000
    Total Energy =                       -422.9756258432749974
    Molecular point group: c1
  Basis Set: 6-31G*
  Basis Set:

  -Total Gradient:
     Atom            X                  Y                   Z
    ------   -----------------  -----------------  -----------------
       1        0.001227012706    -0.000780526289    -0.002810760972
       2        0.000046084366    -0.003776162954     0.006091848182
       3        0.001591633535    -0.000301243371     0.000496257083
       4       -0.002489234496     0.006812996639    -0.004619237121
       5        0.000138092399     0.000223635083    -0.000407750601
       6       -0.000186662894     0.000251554018     0.000342401883
       7       -0.000117548642     0.000402357513    -0.000502166949
       8        0.000067787412    -0.005534570576    -0.002171138640
       9       -0.002993081973    -0.000587849550     0.001825058720
      10       -0.001358987103     0.002817900709     0.004712262520
      11        0.000858283624     0.000546465613     0.000254278419
      12        0.001508231686     0.000143922952     0.000413363616
      13        0.001837790954    -0.001321756429    -0.001394953673
      14       -0.000561040954     0.001130549735    -0.000956837662
      15        0.000923489596     0.000248335277    -0.001441881375
      16       -0.000460984008    -0.000053316694    -0.000253476617
      17       -0.000144537944    -0.000245851366    -0.000807399061
      18        0.000428849002    -0.000919670501     0.000502323242
      19        0.000249864826     0.000256523661     0.000191446273
      20       -0.000271659458    -0.000055619576    -0.000082721150
      21       -0.000201501380     0.000376832063    -0.000205189394
      22       -0.000361997996    -0.000130935890     0.000367791403
      23        0.000270116741     0.000496429933     0.000456481876

    Molecular point group: c1

    Geometry (in Angstrom), charge = 0, multiplicity = 1:

    O           -1.614135267322    -0.885701572558    -1.583624128570
    C           -2.202277568076    -0.727831913522    -0.561510045446
    C           -3.381386851170    -1.554253842154    -0.131629735068
    O           -1.901275830250     0.195452001620     0.338482611203
    H           -3.012466063280    -2.418304344342     0.412819062795
    H           -4.037954783072    -0.992867854304     0.518727848129
    H           -3.917582914914    -1.903766895970    -1.003271773656
    C           -0.687900899587     0.930938278332     0.232875400724
    C            0.571144673801     0.074206121710     0.223971012353
    H           -0.749138702311     1.601228288493    -0.613063918661
    H           -0.692292578253     1.548012920098     1.120356348131
    C            1.829860939545     0.937115293114     0.399543984321
    H            0.645754812615    -0.497851287439    -0.692857525954
    H            0.501058027993    -0.635429734288     1.045184803423
    C            3.124408853951     0.120726959603     0.379513743306
    H            1.867600020523     1.685775007104    -0.389352259142
    H            1.766076791939     1.483180545169     1.336614523383
    C            4.364568501484     0.945091041135     0.725575749339
    H            3.250993036276    -0.329545847217    -0.601948262843
    H            3.034704957339    -0.701312447912     1.086057249466
    H            4.509973291334     1.753537561223     0.013815556395
    H            5.258593364083     0.329715477254     0.714442116919
    H            4.282926865156     1.388128570602     1.711867292330

  Mulliken Charges: (a.u.)
   Center  Symbol    Alpha    Beta     Spin     Total
       1     O     4.28472  4.28472  0.00000 -0.56943
       2     C     2.61482  2.61482  0.00000  0.77035
       3     C     3.28515  3.28515  0.00000 -0.57030
       4     O     4.31494  4.31494  0.00000 -0.62989
       5     H     0.39959  0.39959  0.00000  0.20083
       6     H     0.40018  0.40018  0.00000  0.19965
       7     H     0.39741  0.39741  0.00000  0.20518
       8     C     2.99117  2.99117  0.00000  0.01767
       9     C     3.18036  3.18036  0.00000 -0.36072
      10     H     0.41044  0.41044  0.00000  0.17913
      11     H     0.41114  0.41114  0.00000  0.17773
      12     C     3.16021  3.16021  0.00000 -0.32043
      13     H     0.39402  0.39402  0.00000  0.21195
      14     H     0.41871  0.41871  0.00000  0.16257
      15     C     3.15131  3.15131  0.00000 -0.30263
      16     H     0.42043  0.42043  0.00000  0.15914
      17     H     0.42367  0.42367  0.00000  0.15267
      18     C     3.23987  3.23987  0.00000 -0.47974
      19     H     0.41886  0.41886  0.00000  0.16229
      20     H     0.42218  0.42218  0.00000  0.15564
      21     H     0.42104  0.42104  0.00000  0.15791
      22     H     0.41801  0.41801  0.00000  0.16399
      23     H     0.42177  0.42177  0.00000  0.15646

   Total alpha = 36.00000, Total beta = 36.00000, Total charge =  0.00000
