  ==> Input File <==

--------------------------------------------------------------------------
set {
	reference rhf
	basis cc-pvtz
}

set_num_threads( 4 )
memory 2 gb

molecule MOL {
0 1

H	 2.739626	 -0.064113	 0.903667
N	 2.326826	 -0.066186	 0.000000
C	 0.934676	 -0.005420	 0.000000
H	 2.768264	 0.591977	 -0.599147
C	 0.226436	 -0.001077	 -1.195129
C	 0.226436	 -0.001077	 1.195129
H	 0.759091	 -0.011439	 -2.128123
C	 -1.153391	 0.009141	 -1.189028
H	 0.759091	 -0.011439	 2.128123
C	 -1.153391	 0.009141	 1.189028
H	 -1.680905	 0.012964	 -2.124348
C	 -1.857876	 0.014675	 0.000000
H	 -1.680905	 0.012964	 2.124348
H	 -2.930222	 0.022904	 0.000000

	symmetry c1
}
set optking {
	frozen_dihedral = ("
		1 2 3 5
	")
}

ee = optimize('scf')
oeprop('DIPOLE', 'QUADRUPOLE', 'MULLIKEN_CHARGES')
f=open( 'psi4out.xyz', 'w' )
f.write( "14  " )
f.write( str(ee) + "\n" )
f.write( MOL.save_string_xyz() )
f.close()
--------------------------------------------------------------------------

    Molecular point group: c1
  Charge       = 0
  Multiplicity = 1
  Basis Set: CC-PVTZ
  Basis Set:
  @DF-RHF Final Energy:  -285.83237181113469
    Total Energy =                       -285.8323718111349194
    Molecular point group: c1
  Basis Set: CC-PVTZ
  Basis Set:
  Basis Set: CC-PVTZ
  Basis Set:
  @DF-RHF Final Energy:  -285.83252820611051
    Total Energy =                       -285.8325282061107373
  Basis Set: CC-PVTZ
  Basis Set:
  Basis Set: CC-PVTZ
  Basis Set:
  @DF-RHF Final Energy:  -285.83255988069936
    Total Energy =                       -285.8325598806994208
  Basis Set: CC-PVTZ
  Basis Set:
  Basis Set: CC-PVTZ
  Basis Set:
  @DF-RHF Final Energy:  -285.83256642931093
    Total Energy =                       -285.8325664293111004
  Basis Set: CC-PVTZ
  Basis Set:
  Basis Set: CC-PVTZ
  Basis Set:
  @DF-RHF Final Energy:  -285.83256883505300
    Total Energy =                       -285.8325688350531095
  Basis Set: CC-PVTZ
  Basis Set:
  Charge       = 0
  Multiplicity = 1
  Basis Set: CC-PVTZ
  Basis Set:

    Orbital Energies (a.u.)
    -----------------------

    Doubly Occupied:

       1A    -15.553335     2A    -11.269595     3A    -11.226851
       4A    -11.226570     5A    -11.216242     6A    -11.215123
       7A    -11.212024     8A     -1.224183     9A     -1.130199
      10A     -1.013198    11A     -0.987829    12A     -0.832069
      13A     -0.813237    14A     -0.707969    15A     -0.688172
      16A     -0.654169    17A     -0.603550    18A     -0.595852
      19A     -0.582094    20A     -0.527664    21A     -0.506245
      22A     -0.487995    23A     -0.443949    24A     -0.335777
      25A     -0.296361

  @DF-RHF Final Energy:  -285.83256919047801

   => Energetics <=

    Nuclear Repulsion Energy =            273.6626345458192873
    One-Electron Energy =                -928.2899056275067551
    Two-Electron Energy =                 368.7947018912096837
    DFT Exchange-Correlation Energy =       0.0000000000000000
    Empirical Dispersion Energy =           0.0000000000000000
    PCM Polarization Energy =               0.0000000000000000
    EFP Energy =                            0.0000000000000000
    Total Energy =                       -285.8325691904777841
    Molecular point group: c1
  Basis Set: CC-PVTZ
  Basis Set:

  -Total Gradient:
     Atom            X                  Y                   Z
    ------   -----------------  -----------------  -----------------
       1       -0.000151496463    -0.003255322563     0.000104520458
       2        0.000184775983     0.002987495697    -0.000121197154
       3        0.000070774954     0.002696269855     0.000067147089
       4        0.000002339281     0.000020949845     0.000003475035
       5       -0.000229547276    -0.002440549992     0.000003448404
       6        0.000128689428     0.000004819482    -0.000054298207
       7        0.000008381409     0.000003350214     0.000008113936
       8        0.000114261479    -0.000019083374    -0.000072878352
       9       -0.000009256309    -0.000001127224    -0.000001054817
      10       -0.000114888789    -0.000022224818    -0.000063524508
      11       -0.000010062727     0.000000030375     0.000004237006
      12        0.000006290832     0.000018783614     0.000125851394
      13       -0.000000145302     0.000004674384     0.000001440298
      14       -0.000000116505     0.000001934504    -0.000005280582

  **** Optimization is complete! (in 6 steps) ****
    Final optimized geometry and variables:
    Molecular point group: c1

    Geometry (in Angstrom), charge = 0, multiplicity = 1:

    H            2.755739863562    -0.051971723906     0.888747625341
    N            2.327668553605    -0.059471949122    -0.006551685703
    C            0.934118517958     0.005698886955     0.004894301431
    H            2.779919861879     0.546506423335    -0.650150987984
    C            0.230149022587     0.001707126515    -1.194453917437
    C            0.221724432503    -0.001703214497     1.195197316554
    H            0.770275772598    -0.020728562290    -2.122376241231
    C           -1.147958736835     0.017162908449    -1.194556118633
    H            0.749361772185    -0.003680232458     2.131192473679
    C           -1.160376025767    -0.005386936208     1.184363041271
    H           -1.672654822882     0.020610027644    -2.131434436069
    C           -1.857753858469     0.010589177629    -0.006431405743
    H           -1.691751089190    -0.012729125520     2.117444472564
    H           -2.930199038401     0.014117027045    -0.011573752592

  Mulliken Charges: (a.u.)
   Center  Symbol    Alpha    Beta     Spin     Total
       1     H     0.42260  0.42260  0.00000  0.15480
       2     N     3.67995  3.67995  0.00000 -0.35989
       3     C     2.88303  2.88303  0.00000  0.23395
       4     H     0.41675  0.41675  0.00000  0.16650
       5     C     3.11609  3.11609  0.00000 -0.23217
       6     C     3.12052  3.12052  0.00000 -0.24105
       7     H     0.43006  0.43006  0.00000  0.13987
       8     C     3.05909  3.05909  0.00000 -0.11817
       9     H     0.43508  0.43508  0.00000  0.12984
      10     C     3.05970  3.05970  0.00000 -0.11941
      11     H     0.42466  0.42466  0.00000  0.15067
      12     C     3.10239  3.10239  0.00000 -0.20479
      13     H     0.42480  0.42480  0.00000  0.15039
      14     H     0.42527  0.42527  0.00000  0.14946

   Total alpha = 25.00000, Total beta = 25.00000, Total charge = -0.00000
