  ==> Input File <==

--------------------------------------------------------------------------
set {
	reference rhf
	basis cc-pvtz
}

set_num_threads( 4 )
memory 2 gb

molecule MOL {
0 1

O	 -1.510770	 1.240811	 -0.054933
C	 -1.081510	 0.147522	 0.122720
C	 0.327029	 -0.064006	 0.641890
C	 -1.903028	 -1.084121	 -0.174656
C	 1.349460	 -0.017068	 -0.500215
H	 0.399029	 -1.014606	 1.159950
H	 0.538021	 0.726928	 1.350471
C	 0.869097	 -0.758857	 -1.742289
H	 1.563594	 1.016052	 -0.758373
H	 2.279491	 -0.449264	 -0.150107
H	 1.613522	 -0.720046	 -2.528644
H	 -0.046252	 -0.324868	 -2.130285
H	 0.673579	 -1.802327	 -1.521352
H	 -1.341891	 -1.779207	 -0.789259
H	 -2.820449	 -0.808163	 -0.671328
H	 -2.133314	 -1.593056	 0.755831

	symmetry c1
}
set optking {
	frozen_dihedral = ("
		9 5 3 2
	")
}

ee = optimize('scf')
oeprop('DIPOLE', 'QUADRUPOLE', 'MULLIKEN_CHARGES')
f=open( 'psi4out.xyz', 'w' )
f.write( "16  " )
f.write( str(ee) + "\n" )
f.write( MOL.save_string_xyz() )
f.close()
--------------------------------------------------------------------------

    Molecular point group: c1
  Charge       = 0
  Multiplicity = 1
  Basis Set: CC-PVTZ
  Basis Set:
  @DF-RHF Final Energy:  -270.12260877770501
    Total Energy =                       -270.1226087777050680
    Molecular point group: c1
  Basis Set: CC-PVTZ
  Basis Set:
  Basis Set: CC-PVTZ
  Basis Set:
  @DF-RHF Final Energy:  -270.12547316528355
    Total Energy =                       -270.1254731652838927
  Basis Set: CC-PVTZ
  Basis Set:
  Basis Set: CC-PVTZ
  Basis Set:
  @DF-RHF Final Energy:  -270.12588731979497
    Total Energy =                       -270.1258873197949697
  Basis Set: CC-PVTZ
  Basis Set:
  Basis Set: CC-PVTZ
  Basis Set:
  @DF-RHF Final Energy:  -270.12606587235342
    Total Energy =                       -270.1260658723534220
  Basis Set: CC-PVTZ
  Basis Set:
  @DF-RHF Final Energy:  -270.12570794568211
    Total Energy =                       -270.1257079456818815
  @DF-RHF Final Energy:  -270.12624060199062
    Total Energy =                       -270.1262406019907871
  @DF-RHF Final Energy:  -270.12637753272384
    Total Energy =                       -270.1263775327240637
  @DF-RHF Final Energy:  -270.12658848177477
    Total Energy =                       -270.1265884817749452
  @DF-RHF Final Energy:  -270.12680051901867
    Total Energy =                       -270.1268005190187296
  @DF-RHF Final Energy:  -270.12695601956955
    Total Energy =                       -270.1269560195694339
  @DF-RHF Final Energy:  -270.12705020188486
    Total Energy =                       -270.1270502018850834
  @DF-RHF Final Energy:  -270.12711291598066
    Total Energy =                       -270.1271129159810016
  @DF-RHF Final Energy:  -270.12712909107427
    Total Energy =                       -270.1271290910739253
  Basis Set: CC-PVTZ
  Basis Set:
  @DF-RHF Final Energy:  -270.12713954458974
    Total Energy =                       -270.1271395445897952
  Basis Set: CC-PVTZ
  Basis Set:
  Basis Set: CC-PVTZ
  Basis Set:
  @DF-RHF Final Energy:  -270.12714831094695
    Total Energy =                       -270.1271483109467226
  Basis Set: CC-PVTZ
  Basis Set:
  Basis Set: CC-PVTZ
  Basis Set:
  @DF-RHF Final Energy:  -270.12714938942690
    Total Energy =                       -270.1271493894272453
  Basis Set: CC-PVTZ
  Basis Set:
  Charge       = 0
  Multiplicity = 1
  Basis Set: CC-PVTZ
  Basis Set:

    Orbital Energies (a.u.)
    -----------------------

    Doubly Occupied:

       1A    -20.538357     2A    -11.321395     3A    -11.231621
       4A    -11.227306     5A    -11.222022     6A    -11.204545
       7A     -1.399064     8A     -1.075985     9A     -1.015791
      10A     -0.946354    11A     -0.829821    12A     -0.726518
      13A     -0.661631    14A     -0.639798    15A     -0.625586
      16A     -0.599212    17A     -0.582474    18A     -0.550954
      19A     -0.546660    20A     -0.505091    21A     -0.489713
      22A     -0.480777    23A     -0.476002    24A     -0.400464

  @DF-RHF Final Energy:  -270.12714946309075

   => Energetics <=

    Nuclear Repulsion Energy =            242.1595966343472810
    One-Electron Energy =                -845.9792063471409165
    Two-Electron Energy =                 333.6924602497027195
    DFT Exchange-Correlation Energy =       0.0000000000000000
    Empirical Dispersion Energy =           0.0000000000000000
    PCM Polarization Energy =               0.0000000000000000
    EFP Energy =                            0.0000000000000000
    Total Energy =                       -270.1271494630909160
    Molecular point group: c1
  Basis Set: CC-PVTZ
  Basis Set:

  -Total Gradient:
     Atom            X                  Y                   Z
    ------   -----------------  -----------------  -----------------
       1        0.000004794611     0.000010513653    -0.000022596437
       2        0.000028965343    -0.004456253738    -0.001761073141
       3        0.000930179936     0.006211165720     0.003794387816
       4        0.000011452452    -0.000006186562    -0.000020470452
       5       -0.004913016582    -0.000932279236    -0.006894677506
       6       -0.000021821516    -0.000007464915    -0.000018900880
       7       -0.000005872552     0.000010907402    -0.000015281654
       8        0.000001835599    -0.000049659676     0.000019907554
       9        0.003964517883    -0.000718635590     0.004932502186
      10       -0.000012608824    -0.000066455817    -0.000031094042
      11        0.000003780020     0.000000758841     0.000000847640
      12        0.000005556754     0.000001014459     0.000008501038
      13        0.000000164170    -0.000000924396    -0.000008411204
      14       -0.000002299433    -0.000004904891     0.000009784272
      15        0.000003725757     0.000004252672     0.000002917364
      16        0.000000646382     0.000004152075     0.000003657444

  **** Optimization is complete! (in 17 steps) ****
    Final optimized geometry and variables:
    Molecular point group: c1

    Geometry (in Angstrom), charge = 0, multiplicity = 1:

    O           -1.076891046432     0.899263113802    -0.518523741373
    C           -0.850239333540     0.078774320349     0.309835869624
    C            0.537767349850    -0.135032411977     0.883204437107
    C           -1.948231180418    -0.788677651196     0.879583037498
    C            1.717265763828     0.241926040851    -0.018169492820
    H            0.619711548992    -1.178010062581     1.175691549039
    H            0.577053750823     0.433095806791     1.809351225752
    C            1.645854986272    -0.270800767133    -1.452237160658
    H            1.876972631564     1.313189642923     0.012497846453
    H            2.602683070718    -0.178824112608     0.451087829746
    H            2.579404349482    -0.072809956940    -1.965809242082
    H            0.848743995200     0.199782353963    -2.007461261095
    H            1.485830984968    -1.345190217424    -1.472304694152
    H           -1.804129224142    -1.812591466707     0.550242901142
    H           -2.910359192443    -0.435007844840     0.542286536567
    H           -1.911166862011    -0.791280780103     1.963274400383

  Mulliken Charges: (a.u.)
   Center  Symbol    Alpha    Beta     Spin     Total
       1     O     4.17441  4.17441  0.00000 -0.34882
       2     C     2.85454  2.85454  0.00000  0.29091
       3     C     3.12114  3.12114  0.00000 -0.24229
       4     C     3.15262  3.15262  0.00000 -0.30525
       5     C     3.07881  3.07881  0.00000 -0.15762
       6     H     0.44513  0.44513  0.00000  0.10974
       7     H     0.43674  0.43674  0.00000  0.12652
       8     C     3.15710  3.15710  0.00000 -0.31420
       9     H     0.44791  0.44791  0.00000  0.10418
      10     H     0.45088  0.45088  0.00000  0.09824
      11     H     0.44849  0.44849  0.00000  0.10302
      12     H     0.43711  0.43711  0.00000  0.12579
      13     H     0.45918  0.45918  0.00000  0.08164
      14     H     0.44953  0.44953  0.00000  0.10095
      15     H     0.43611  0.43611  0.00000  0.12777
      16     H     0.45029  0.45029  0.00000  0.09942

   Total alpha = 24.00000, Total beta = 24.00000, Total charge = -0.00000
