  ==> Input File <==

--------------------------------------------------------------------------
set {
	reference rhf
	basis cc-pvtz
}

set_num_threads( 4 )
memory 2 gb

molecule MOL {
0 1

H	 1.912634	 2.047862	 -0.789422
O	 1.000247	 1.954195	 -0.588370
C	 0.700177	 0.619554	 -0.266242
C	 -0.713111	 0.588314	 0.266177
H	 1.381696	 0.245984	 0.491982
H	 0.773598	 -0.017579	 -1.143765
O	 -1.421673	 -0.521378	 -0.196983
H	 -1.244794	 1.469161	 -0.069059
H	 -0.685100	 0.604721	 1.352683
H	 -0.933408	 -1.297830	 0.014544

	symmetry c1
}
set optking {
	frozen_dihedral = ("
		5 3 4 7
	")
}

ee = optimize('scf')
oeprop('DIPOLE', 'QUADRUPOLE', 'MULLIKEN_CHARGES')
f=open( 'psi4out.xyz', 'w' )
f.write( "10  " )
f.write( str(ee) + "\n" )
f.write( MOL.save_string_xyz() )
f.close()
--------------------------------------------------------------------------

    Molecular point group: c1
  Charge       = 0
  Multiplicity = 1
  Basis Set: CC-PVTZ
  Basis Set:
  @DF-RHF Final Energy:  -229.01938656318779
    Total Energy =                       -229.0193865631879078
    Molecular point group: c1
  Basis Set: CC-PVTZ
  Basis Set:
  Basis Set: CC-PVTZ
  Basis Set:
  @DF-RHF Final Energy:  -229.02044804515640
    Total Energy =                       -229.0204480451565416
  Basis Set: CC-PVTZ
  Basis Set:
  Basis Set: CC-PVTZ
  Basis Set:
  @DF-RHF Final Energy:  -229.02076236475116
    Total Energy =                       -229.0207623647511355
  Basis Set: CC-PVTZ
  Basis Set:
  Basis Set: CC-PVTZ
  Basis Set:
  @DF-RHF Final Energy:  -229.02083843587587
    Total Energy =                       -229.0208384358757314
  Basis Set: CC-PVTZ
  Basis Set:
  Basis Set: CC-PVTZ
  Basis Set:
  @DF-RHF Final Energy:  -229.02084423515956
    Total Energy =                       -229.0208442351595579
  Basis Set: CC-PVTZ
  Basis Set:
  Charge       = 0
  Multiplicity = 1
  Basis Set: CC-PVTZ
  Basis Set:

    Orbital Energies (a.u.)
    -----------------------

    Doubly Occupied:

       1A    -20.552623     2A    -20.551673     3A    -11.270215
       4A    -11.267110     5A     -1.376131     6A     -1.363089
       7A     -0.997152     8A     -0.847378     9A     -0.712190
      10A     -0.706192    11A     -0.635498    12A     -0.601951
      13A     -0.585724    14A     -0.529703    15A     -0.490726
      16A     -0.445403    17A     -0.442182

  @DF-RHF Final Energy:  -229.02084444534447

   => Energetics <=

    Nuclear Repulsion Energy =            131.2688374568597567
    One-Electron Energy =                -573.8294810698653237
    Two-Electron Energy =                 213.5397991676612151
    DFT Exchange-Correlation Energy =       0.0000000000000000
    Empirical Dispersion Energy =           0.0000000000000000
    PCM Polarization Energy =               0.0000000000000000
    EFP Energy =                            0.0000000000000000
    Total Energy =                       -229.0208444453443803
    Molecular point group: c1
  Basis Set: CC-PVTZ
  Basis Set:

  -Total Gradient:
     Atom            X                  Y                   Z
    ------   -----------------  -----------------  -----------------
       1       -0.000004972021    -0.000006290543     0.000003389560
       2        0.000010927530     0.000055987467    -0.000000554450
       3       -0.000975189514    -0.004858672320    -0.003423770118
       4        0.001745421351    -0.001766698589     0.004468347965
       5        0.000435663504     0.004441765362     0.001873949215
       6        0.000003828533    -0.000009321986     0.000005951122
       7       -0.001210059767     0.002144985922    -0.002933766542
       8       -0.000008681524    -0.000020906542    -0.000006343325
       9       -0.000003597594     0.000004825834     0.000009628819
      10        0.000006659498     0.000014325401     0.000003167753

  **** Optimization is complete! (in 6 steps) ****
    Final optimized geometry and variables:
    Molecular point group: c1

    Geometry (in Angstrom), charge = 0, multiplicity = 1:

    H            1.992148147728     1.440982865876    -0.565393924999
    O            1.090793010402     1.338864581884    -0.322026566011
    C            0.806022809791    -0.014570391152    -0.075888777272
    C           -0.622384630208    -0.096056242665     0.457760230176
    H            1.514784177300    -0.395902068855     0.655301590628
    H            0.872915381980    -0.601879905223    -0.984778552735
    O           -1.325404723979    -1.202736840659    -0.037479600218
    H           -1.148898644283     0.778933523311     0.107070303441
    H           -0.635133612932    -0.077209563580     1.542555655139
    H           -1.058905645879    -1.988158513529     0.403990704863

  Mulliken Charges: (a.u.)
   Center  Symbol    Alpha    Beta     Spin     Total
       1     H     0.39361  0.39361  0.00000  0.21278
       2     O     4.19847  4.19847  0.00000 -0.39694
       3     C     2.96999  2.96999  0.00000  0.06001
       4     C     2.97464  2.97464  0.00000  0.05072
       5     H     0.47896  0.47896  0.00000  0.04208
       6     H     0.46973  0.46973  0.00000  0.06055
       7     O     4.19938  4.19938  0.00000 -0.39877
       8     H     0.45122  0.45122  0.00000  0.09755
       9     H     0.46851  0.46851  0.00000  0.06298
      10     H     0.39549  0.39549  0.00000  0.20903

   Total alpha = 17.00000, Total beta = 17.00000, Total charge = -0.00000
