                              Psi4 1.0.54 Driver

  ==> Input File <==

--------------------------------------------------------------------------
set {
	reference rhf
	basis cc-pvtz
}

set_num_threads( 4 )
memory 2 gb

molecule MOL {
0 1

H	 -2.339584	 1.688006	 -0.648698
O	 -1.504765	 1.245506	 -0.680148
C	 -1.605397	 0.107680	 0.001145
C	 -0.310616	 -0.658853	 0.000791
O	 -2.609852	 -0.221486	 0.530947
C	 0.926581	 0.227233	 0.000178
H	 -0.327628	 -1.313681	 -0.864448
H	 -0.327041	 -1.313334	 0.866298
C	 2.220156	 -0.582071	 -0.000088
H	 0.899945	 0.878221	 -0.866390
H	 0.900542	 0.878581	 0.866486
C	 3.466689	 0.296012	 -0.000457
H	 2.239073	 -1.234095	 -0.869382
H	 2.239505	 -1.233985	 0.869270
H	 3.493549	 0.935857	 -0.875887
H	 4.368821	 -0.304526	 -0.001199
H	 3.494559	 0.935166	 0.875458

	symmetry c1
}
set optking {
	frozen_dihedral = ("
		2 3 4 7
	")
}

ee,wfn = optimize('scf', return_wfn=True)
oeprop( wfn, 'DIPOLE', 'QUADRUPOLE', 'MULLIKEN_CHARGES')
f=open( 'psi4out.xyz', 'w' )
f.write( "17  " )
f.write( str(ee) + "\n" )
f.write( MOL.save_string_xyz() )
f.close()
--------------------------------------------------------------------------

    Molecular point group: c1
  Charge       = 0
  Multiplicity = 1
  Basis Set: CC-PVTZ
  Basis Set:
  @DF-RHF Final Energy:  -345.04612408302779
    Total Energy =                       -345.0461240830279053
    Molecular point group: c1
  Basis Set: CC-PVTZ
  Basis Set:
  Basis Set: CC-PVTZ
  Basis Set:
  @DF-RHF Final Energy:  -345.04640053913914
    Total Energy =                       -345.0464005391393698
  Basis Set: CC-PVTZ
  Basis Set:
  Basis Set: CC-PVTZ
  Basis Set:
  @DF-RHF Final Energy:  -345.04673852933195
    Total Energy =                       -345.0467385293319467
  Basis Set: CC-PVTZ
  Basis Set:
  Basis Set: CC-PVTZ
  Basis Set:
  @DF-RHF Final Energy:  -345.04680169316333
    Total Energy =                       -345.0468016931635020
  Basis Set: CC-PVTZ
  Basis Set:
  Basis Set: CC-PVTZ
  Basis Set:
  @DF-RHF Final Energy:  -345.04680282849341
    Total Energy =                       -345.0468028284939237
  Basis Set: CC-PVTZ
  Basis Set:
  Charge       = 0
  Multiplicity = 1
  Basis Set: CC-PVTZ
  Basis Set:

    Orbital Energies (a.u.)
    -----------------------

    Doubly Occupied:

       1A    -20.605865     2A    -20.537709     3A    -11.373547
       4A    -11.239135     5A    -11.226951     6A    -11.223658
       7A    -11.213603     8A     -1.478300     9A     -1.367873
      10A     -1.095576    11A     -1.020468    12A     -0.910725
      13A     -0.826808    14A     -0.809321    15A     -0.703682
      16A     -0.682532    17A     -0.665253    18A     -0.634770
      19A     -0.592813    20A     -0.583689    21A     -0.578228
      22A     -0.536760    23A     -0.515893    24A     -0.500255
      25A     -0.486198    26A     -0.479859    27A     -0.472555
      28A     -0.436898

  @DF-RHF Final Energy:  -345.04680590063327

   => Energetics <=

    Nuclear Repulsion Energy =            305.3691808815132731
    One-Electron Energy =               -1075.2341294744221614
    Two-Electron Energy =                 424.8181426922757282
    DFT Exchange-Correlation Energy =       0.0000000000000000
    Empirical Dispersion Energy =           0.0000000000000000
    PCM Polarization Energy =               0.0000000000000000
    EFP Energy =                            0.0000000000000000
    Total Energy =                       -345.0468059006331032
    Molecular point group: c1
  Basis Set: CC-PVTZ
  Basis Set:

  -Total Gradient:
     Atom            X                  Y                   Z
    ------   -----------------  -----------------  -----------------
       1        0.000005575027    -0.000016602941     0.000003554432
       2        0.000226510483     0.000412616268     0.000634961350
       3       -0.000360035227    -0.000652488733    -0.000789270400
       4        0.000461504959     0.000978937487    -0.000335654521
       5       -0.000004274738    -0.000017319898     0.000013150098
       6       -0.000007289099    -0.000005138646    -0.000020271848
       7       -0.000333646803    -0.000693288759     0.000482433683
       8        0.000005321754    -0.000004642398     0.000000127039
       9        0.000001817932    -0.000000661293     0.000018944085
      10       -0.000003778408     0.000005674499    -0.000000623024
      11        0.000003085995    -0.000009924586    -0.000006970433
      12        0.000007738039    -0.000000606996    -0.000002628606
      13       -0.000004923711     0.000008135226     0.000002254987
      14        0.000002352806    -0.000004450578     0.000000207459
      15       -0.000000551136     0.000000525597     0.000000265785
      16        0.000001571530     0.000001375309    -0.000000838843
      17       -0.000000979412    -0.000002139556     0.000000358760

  **** Optimization is complete! (in 6 steps) ****
    Final optimized geometry and variables:
    Molecular point group: c1

    Geometry (in Angstrom), charge = 0, multiplicity = 1:

    H           -2.565608182353     1.476719405671    -0.534915689363
    O           -1.686881766902     1.131406431217    -0.585745802031
    C           -1.664081722985    -0.039150289430     0.042396670899
    C           -0.320751343358    -0.720742479262     0.000878420143
    O           -2.627987930533    -0.491681417389     0.557969166392
    C            0.896624967452     0.200040684912     0.004430006279
    H           -0.324701516225    -1.337525272559    -0.893968447726
    H           -0.301302246965    -1.401484987234     0.840737457406
    C            2.206857520461    -0.582288619252     0.011342558304
    H            0.864418822526     0.850918704536    -0.860588874971
    H            0.857843633398     0.846009178961     0.876632106578
    C            3.435358894832     0.320759725573     0.019041603483
    H            2.241924100147    -1.231287410834    -0.859522005641
    H            2.233674713914    -1.235169347696     0.879188864884
    H            3.454585906879     0.962528032135    -0.855237171482
    H            4.348990225533    -0.261933428203     0.022159872936
    H            3.446491017709     0.958367501404     0.896553821758

  Mulliken Charges: (a.u.)
   Center  Symbol    Alpha    Beta     Spin     Total
       1     H     0.38190  0.38190  0.00000  0.23619
       2     O     4.15693  4.15693  0.00000 -0.31386
       3     C     2.81336  2.81336  0.00000  0.37327
       4     C     3.09230  3.09230  0.00000 -0.18460
       5     O     4.19486  4.19486  0.00000 -0.38971
       6     C     3.09197  3.09197  0.00000 -0.18394
       7     H     0.44299  0.44299  0.00000  0.11402
       8     H     0.43476  0.43476  0.00000  0.13047
       9     C     3.08779  3.08779  0.00000 -0.17558
      10     H     0.44319  0.44319  0.00000  0.11363
      11     H     0.44931  0.44931  0.00000  0.10137
      12     C     3.14917  3.14917  0.00000 -0.29834
      13     H     0.45371  0.45371  0.00000  0.09258
      14     H     0.45256  0.45256  0.00000  0.09488
      15     H     0.45405  0.45405  0.00000  0.09191
      16     H     0.44715  0.44715  0.00000  0.10570
      17     H     0.45399  0.45399  0.00000  0.09202

   Total alpha = 28.00000, Total beta = 28.00000, Total charge =  0.00000

*** Psi4 exiting successfully. Buy a developer a beer!
