                              Psi4 1.0.54 Driver

  ==> Input File <==

--------------------------------------------------------------------------
set {
	reference rhf
	basis cc-pvtz
}

set_num_threads( 4 )
memory 2 gb

molecule MOL {
0 1

O	 -2.440701	 -0.934798	 -0.415053
C	 -1.922978	 0.063265	 -0.045005
C	 -2.632749	 1.372204	 0.158357
O	 -0.637375	 0.157174	 0.243149
H	 -2.187724	 2.129143	 -0.474664
H	 -3.677681	 1.257276	 -0.079438
H	 -2.516788	 1.693160	 1.185542
C	 0.162530	 -1.009518	 0.097799
C	 1.587210	 -0.664190	 0.477086
H	 0.096803	 -1.356267	 -0.924704
H	 -0.233803	 -1.785900	 0.736810
C	 2.256770	 0.342732	 -0.454344
H	 2.154716	 -1.590834	 0.479041
H	 1.598751	 -0.289614	 1.496104
C	 1.355670	 0.764252	 -1.610180
H	 2.544561	 1.220708	 0.117873
H	 3.173020	 -0.083771	 -0.846037
H	 1.853342	 1.481308	 -2.252473
H	 0.441020	 1.222960	 -1.249078
H	 1.077807	 -0.088638	 -2.220416

	symmetry c1
}
set optking {
	frozen_dihedral = ("
		16 12 9 8
	")
}

ee,wfn = optimize('scf', return_wfn=True)
oeprop( wfn, 'DIPOLE', 'QUADRUPOLE', 'MULLIKEN_CHARGES')
f=open( 'psi4out.xyz', 'w' )
f.write( "20  " )
f.write( str(ee) + "\n" )
f.write( MOL.save_string_xyz() )
f.close()
--------------------------------------------------------------------------

    Molecular point group: c1
  Charge       = 0
  Multiplicity = 1
  Basis Set: CC-PVTZ
  Basis Set:
  @DF-RHF Final Energy:  -384.07030301306952
    Total Energy =                       -384.0703030130695197
    Molecular point group: c1
  Basis Set: CC-PVTZ
  Basis Set:
  Basis Set: CC-PVTZ
  Basis Set:
  @DF-RHF Final Energy:  -383.83290140058432
    Total Energy =                       -383.8329014005838076
  Basis Set: CC-PVTZ
  Basis Set:
  Basis Set: CC-PVTZ
  Basis Set:
  @DF-RHF Final Energy:  -383.97571472217737
    Total Energy =                       -383.9757147221770310
  Basis Set: CC-PVTZ
  Basis Set:
  Basis Set: CC-PVTZ
  Basis Set:
  @DF-RHF Final Energy:  -384.06895110208671
    Total Energy =                       -384.0689511020862028
  Basis Set: CC-PVTZ
  Basis Set:
  @DF-RHF Final Energy:  -384.07684425764887
    Total Energy =                       -384.0768442576488724
  @DF-RHF Final Energy:  -384.07735512859261
    Total Energy =                       -384.0773551285925578
  @DF-RHF Final Energy:  -384.07678745695870
    Total Energy =                       -384.0767874569587548
  @DF-RHF Final Energy:  -384.07768446926002
    Total Energy =                       -384.0776844692599070
  Basis Set: CC-PVTZ
  Basis Set:
  @DF-RHF Final Energy:  -384.07769750851065
    Total Energy =                       -384.0776975085107097
  Basis Set: CC-PVTZ
  Basis Set:
  Basis Set: CC-PVTZ
  Basis Set:
  @DF-RHF Final Energy:  -384.07770056652657
    Total Energy =                       -384.0777005665263459
  Basis Set: CC-PVTZ
  Basis Set:
  Basis Set: CC-PVTZ
  Basis Set:
  @DF-RHF Final Energy:  -384.07770216830778
    Total Energy =                       -384.0777021683078374
  Basis Set: CC-PVTZ
  Basis Set:
  Charge       = 0
  Multiplicity = 1
  Basis Set: CC-PVTZ
  Basis Set:

    Orbital Energies (a.u.)
    -----------------------

    Doubly Occupied:

       1A    -20.593807     2A    -20.532502     3A    -11.366425
       4A    -11.279945     5A    -11.231667     6A    -11.224298
       7A    -11.220793     8A    -11.209732     9A     -1.470575
      10A     -1.364723    11A     -1.082522    12A     -1.026817
      13A     -0.980815    14A     -0.894122    15A     -0.801824
      16A     -0.774465    17A     -0.692448    18A     -0.690818
      19A     -0.665895    20A     -0.628032    21A     -0.613929
      22A     -0.581144    23A     -0.571052    24A     -0.558864
      25A     -0.545274    26A     -0.528204    27A     -0.523325
      28A     -0.479860    29A     -0.474015    30A     -0.467480
      31A     -0.449970    32A     -0.440449

  @DF-RHF Final Energy:  -384.07770252651432

   => Energetics <=

    Nuclear Repulsion Energy =            394.1310703726091447
    One-Electron Energy =               -1304.4859536693188602
    Two-Electron Energy =                 526.2771807701956277
    DFT Exchange-Correlation Energy =       0.0000000000000000
    Empirical Dispersion Energy =           0.0000000000000000
    PCM Polarization Energy =               0.0000000000000000
    EFP Energy =                            0.0000000000000000
    Total Energy =                       -384.0777025265140310
    Molecular point group: c1
  Basis Set: CC-PVTZ
  Basis Set:

  -Total Gradient:
     Atom            X                  Y                   Z
    ------   -----------------  -----------------  -----------------
       1       -0.000085494946    -0.000030825974    -0.000059311687
       2        0.000158630910     0.000015788824     0.000095597992
       3       -0.000023442339     0.000013216169    -0.000006861576
       4       -0.000091529152     0.000064250456    -0.000000528463
       5        0.000003270612    -0.000002463848     0.000002724906
       6       -0.000010317286    -0.000000646951     0.000000236817
       7        0.000001558396    -0.000005601477    -0.000014205657
       8        0.000742978273    -0.000939454173    -0.001851268374
       9       -0.000442821890     0.000948609863     0.002654792464
      10       -0.000007105105     0.000010247140     0.000000177554
      11       -0.000010610103     0.000000335454     0.000002562547
      12       -0.002669888020     0.001243969700    -0.000718230402
      13       -0.000011085874    -0.000005663974     0.000006260967
      14       -0.000005287031    -0.000007127653    -0.000004655326
      15        0.000004974356    -0.000015943173     0.000017821208
      16        0.002446097817    -0.001320827397    -0.000120621630
      17       -0.000003673294     0.000019794317     0.000003494136
      18        0.000001681794     0.000013716602    -0.000005818384
      19        0.000001712520    -0.000008423427    -0.000006310739
      20        0.000000350358     0.000007049519     0.000004143647

  **** Optimization is complete! (in 12 steps) ****
    Final optimized geometry and variables:
    Molecular point group: c1

    Geometry (in Angstrom), charge = 0, multiplicity = 1:

    O           -2.184126646214    -0.887337522906    -0.505756298403
    C           -1.677196486338    -0.171782534496     0.289503798540
    C           -2.422933072472     0.777669019273     1.184202581070
    O           -0.373952775266    -0.114200599884     0.495479122216
    H           -2.098749015406     1.791642906204     0.987491168708
    H           -3.481834957910     0.686764628825     1.004877304665
    H           -2.198265856501     0.555827148629     2.219333115481
    C            0.458439808251    -0.968677875111    -0.281846336626
    C            1.897893752565    -0.778355558630     0.152158974032
    H            0.307883862592    -0.751837149160    -1.328592280949
    H            0.153171008069    -1.991468767386    -0.112883620528
    C            2.604245968245     0.552700832763    -0.216834751802
    H            2.449094174439    -1.600858766413    -0.291817620520
    H            1.943794922788    -0.932297813206     1.223519660141
    C            1.837447612323     1.543318574319    -1.090106023880
    H            2.913254204283     1.049067304921     0.695672222659
    H            3.529749790973     0.307946426826    -0.727173913084
    H            2.452308251263     2.415860975230    -1.278048892481
    H            0.923899435200     1.877233496695    -0.617193251093
    H            1.580866629716     1.117753642244    -2.053561916406

  Mulliken Charges: (a.u.)
   Center  Symbol    Alpha    Beta     Spin     Total
       1     O     4.19701  4.19701  0.00000 -0.39401
       2     C     2.80950  2.80950  0.00000  0.38100
       3     C     3.13837  3.13837  0.00000 -0.27673
       4     O     4.15724  4.15724  0.00000 -0.31449
       5     H     0.44637  0.44637  0.00000  0.10725
       6     H     0.43762  0.43762  0.00000  0.12477
       7     H     0.44556  0.44556  0.00000  0.10888
       8     C     2.99734  2.99734  0.00000  0.00532
       9     C     3.09475  3.09475  0.00000 -0.18949
      10     H     0.44658  0.44658  0.00000  0.10685
      11     H     0.43826  0.43826  0.00000  0.12348
      12     C     3.08516  3.08516  0.00000 -0.17032
      13     H     0.44930  0.44930  0.00000  0.10140
      14     H     0.44909  0.44909  0.00000  0.10181
      15     C     3.15938  3.15938  0.00000 -0.31876
      16     H     0.45056  0.45056  0.00000  0.09887
      17     H     0.45142  0.45142  0.00000  0.09717
      18     H     0.44403  0.44403  0.00000  0.11193
      19     H     0.44904  0.44904  0.00000  0.10192
      20     H     0.45342  0.45342  0.00000  0.09316

   Total alpha = 32.00000, Total beta = 32.00000, Total charge = -0.00000

*** Psi4 exiting successfully. Buy a developer a beer!
