  ==> Input File <==

--------------------------------------------------------------------------
set {
	reference rhf
	basis 6-31G*
}

set_num_threads( 4 )
memory 2 gb

molecule MOL {
0 1

H	 3.893188	 0.355400	 -0.101367
N	 3.092854	 -0.246221	 -0.068770
C	 1.865559	 0.531981	 0.018834
H	 3.199514	 -0.826043	 0.741946
C	 0.645745	 -0.382037	 -0.029944
H	 1.841966	 1.207024	 -0.831236
H	 1.815756	 1.155410	 0.915079
C	 -0.679275	 0.379305	 0.025956
H	 0.698998	 -0.976915	 -0.937203
H	 0.693479	 -1.083846	 0.802235
C	 -1.489549	 0.274548	 -1.267434
H	 -0.483539	 1.428820	 0.240562
H	 -1.279345	 0.006223	 0.854553
C	 -2.810869	 1.040157	 -1.208543
H	 -0.892512	 0.647950	 -2.096488
H	 -1.688926	 -0.773018	 -1.483093
H	 -2.643152	 2.098247	 -1.027896
H	 -3.361620	 0.947238	 -2.139480
H	 -3.445698	 0.666236	 -0.410065

	symmetry c1
}
set optking {
	frozen_dihedral = ("
		12 8 5 9
	")
}

ee = optimize('scf')
oeprop('DIPOLE', 'QUADRUPOLE', 'MULLIKEN_CHARGES')
f=open( 'psi4out.xyz', 'w' )
f.write( "19  " )
f.write( str(ee) + "\n" )
f.write( MOL.save_string_xyz() )
f.close()
--------------------------------------------------------------------------

    Molecular point group: c1
  Charge       = 0
  Multiplicity = 1
  Basis Set: 6-31G*
  Basis Set:
  @DF-RHF Final Energy:  -251.34656637245232
    Total Energy =                       -251.3465663724522301
    Molecular point group: c1
  Basis Set: 6-31G*
  Basis Set:
  Basis Set: 6-31G*
  Basis Set:
  @DF-RHF Final Energy:  -251.34679261133948
    Total Energy =                       -251.3467926113394810
  Basis Set: 6-31G*
  Basis Set:
  Basis Set: 6-31G*
  Basis Set:
  @DF-RHF Final Energy:  -251.34686583937292
    Total Energy =                       -251.3468658393729811
  Basis Set: 6-31G*
  Basis Set:
  Basis Set: 6-31G*
  Basis Set:
  @DF-RHF Final Energy:  -251.34685903935755
    Total Energy =                       -251.3468590393576960
  Basis Set: 6-31G*
  Basis Set:
  Basis Set: 6-31G*
  Basis Set:
  @DF-RHF Final Energy:  -251.34687104049789
    Total Energy =                       -251.3468710404977173
  Basis Set: 6-31G*
  Basis Set:
  Charge       = 0
  Multiplicity = 1
  Basis Set: 6-31G*
  Basis Set:

    Orbital Energies (a.u.)
    -----------------------

    Doubly Occupied:

       1A    -15.532488     2A    -11.240137     3A    -11.213548
       4A    -11.212501     5A    -11.209155     6A    -11.206949
       7A     -1.176809     8A     -1.070937     9A     -0.996498
      10A     -0.899545    11A     -0.817575    12A     -0.786675
      13A     -0.660244    14A     -0.634667    15A     -0.624713
      16A     -0.586449    17A     -0.569768    18A     -0.548378
      19A     -0.525705    20A     -0.498821    21A     -0.484466
      22A     -0.465335    23A     -0.452840    24A     -0.448825
      25A     -0.381139

  @DF-RHF Final Energy:  -251.34687105306099

   => Energetics <=

    Nuclear Repulsion Energy =            246.8781192360480929
    One-Electron Energy =                -827.9616497926082275
    Two-Electron Energy =                 329.7366595034991406
    DFT Exchange-Correlation Energy =       0.0000000000000000
    Empirical Dispersion Energy =           0.0000000000000000
    PCM Polarization Energy =               0.0000000000000000
    EFP Energy =                            0.0000000000000000
    Total Energy =                       -251.3468710530610224
    Molecular point group: c1
  Basis Set: 6-31G*
  Basis Set:

  -Total Gradient:
     Atom            X                  Y                   Z
    ------   -----------------  -----------------  -----------------
       1        0.000002257556     0.000000252645     0.000005971778
       2        0.000015144134    -0.000002928309     0.000020817722
       3       -0.000011460504    -0.000012168150    -0.000047056220
       4        0.000007025283    -0.000003456639     0.000001143445
       5       -0.000642297827    -0.001167607523     0.000461996603
       6       -0.000001995124    -0.000002621924    -0.000003991421
       7       -0.000010161588    -0.000004805745    -0.000003303983
       8        0.000014698237    -0.000062356691     0.001406175109
       9        0.000553784481     0.001010912646    -0.000611562122
      10       -0.000002886126    -0.000006254336     0.000001890301
      11        0.000008203200     0.000010152205     0.000013733207
      12        0.000079176650     0.000235896504    -0.001250743536
      13       -0.000008262136    -0.000001070958    -0.000001309720
      14       -0.000005747297     0.000004397320    -0.000004401668
      15        0.000004994672    -0.000003179625     0.000003471043
      16       -0.000000803300     0.000002660379     0.000009951119
      17       -0.000000355861    -0.000000167861    -0.000001539357
      18       -0.000004197685     0.000001534816    -0.000001010206
      19        0.000002883239     0.000000811248    -0.000000232091

  **** Optimization is complete! (in 6 steps) ****
    Final optimized geometry and variables:
    Molecular point group: c1

    Geometry (in Angstrom), charge = 0, multiplicity = 1:

    H            3.749232241873     0.111263784637     0.274353290966
    N            2.956355227733    -0.499751691837     0.313679260448
    C            1.722736478780     0.261189804067     0.439827577979
    H            3.086738798334    -1.092760165312     1.111371115294
    C            0.511095455124    -0.666778857198     0.408468024994
    H            1.668952273283     0.946762446804    -0.401038662058
    H            1.684804182401     0.872877289051     1.344649789202
    C           -0.832143967044     0.092209794205     0.455540530245
    H            0.579159532381    -1.263016153076    -0.495942660437
    H            0.581594170260    -1.362736072918     1.241300296294
    C           -1.628291495557    -0.002942443045    -0.849129418395
    H           -0.651947699272     1.144066976381     0.670420221350
    H           -1.447124411043    -0.279013620264     1.270914459478
    C           -2.936039309084     0.785937523243    -0.810849994869
    H           -1.012600346501     0.355481989772    -1.671697484552
    H           -1.841732003143    -1.047904924258    -1.062568427161
    H           -2.752285728870     1.842599519502    -0.636832182955
    H           -3.478760752863     0.694779796457    -1.746725991041
    H           -3.585618851403     0.429689055763    -0.016036258609

  Mulliken Charges: (a.u.)
   Center  Symbol    Alpha    Beta     Spin     Total
       1     H     0.33242  0.33242  0.00000  0.33517
       2     N     3.92216  3.92216  0.00000 -0.84433
       3     C     3.06266  3.06266  0.00000 -0.12532
       4     H     0.33531  0.33531  0.00000  0.32938
       5     C     3.15528  3.15528  0.00000 -0.31055
       6     H     0.42112  0.42112  0.00000  0.15776
       7     H     0.43414  0.43414  0.00000  0.13172
       8     C     3.15848  3.15848  0.00000 -0.31695
       9     H     0.40994  0.40994  0.00000  0.18012
      10     H     0.42481  0.42481  0.00000  0.15037
      11     C     3.15243  3.15243  0.00000 -0.30486
      12     H     0.42279  0.42279  0.00000  0.15443
      13     H     0.42078  0.42078  0.00000  0.15843
      14     C     3.24006  3.24006  0.00000 -0.48013
      15     H     0.42228  0.42228  0.00000  0.15543
      16     H     0.42167  0.42167  0.00000  0.15666
      17     H     0.42230  0.42230  0.00000  0.15541
      18     H     0.41925  0.41925  0.00000  0.16150
      19     H     0.42212  0.42212  0.00000  0.15577

   Total alpha = 25.00000, Total beta = 25.00000, Total charge =  0.00000
