  ==> Input File <==

--------------------------------------------------------------------------
set {
	reference rhf
	basis 6-31G*
}

set_num_threads( 4 )
memory 2 gb

molecule MOL {
0 1

H	 1.136379	 0.211822	 1.465562
C	 1.135357	 0.094285	 0.374742
C	 0.065331	 0.871482	 -0.349150
O	 1.941633	 -0.601957	 -0.151457
C	 0.559087	 2.245805	 -0.823410
H	 -0.793228	 0.963154	 0.306126
H	 -0.233744	 0.279850	 -1.213260
C	 0.873710	 3.204577	 0.325586
H	 -0.201779	 2.683367	 -1.461872
H	 1.441135	 2.117392	 -1.447221
H	 -0.004124	 3.374052	 0.941388
H	 1.205954	 4.165451	 -0.053428
H	 1.656099	 2.816602	 0.971135

	symmetry c1
}
set optking {
	frozen_dihedral = ("
		6 3 2 4
	")
}

ee = optimize('scf')
oeprop('DIPOLE', 'QUADRUPOLE', 'MULLIKEN_CHARGES')
f=open( 'psi4out.xyz', 'w' )
f.write( "13  " )
f.write( str(ee) + "\n" )
f.write( MOL.save_string_xyz() )
f.close()
--------------------------------------------------------------------------

    Molecular point group: c1
  Charge       = 0
  Multiplicity = 1
  Basis Set: 6-31G*
  Basis Set:
  @DF-RHF Final Energy:  -230.98252428236424
    Total Energy =                       -230.9825242823643237
    Molecular point group: c1
  Basis Set: 6-31G*
  Basis Set:
  Basis Set: 6-31G*
  Basis Set:
  @DF-RHF Final Energy:  -230.98276018491950
    Total Energy =                       -230.9827601849197265
  Basis Set: 6-31G*
  Basis Set:
  Basis Set: 6-31G*
  Basis Set:
  @DF-RHF Final Energy:  -230.98277040823939
    Total Energy =                       -230.9827704082395030
  Basis Set: 6-31G*
  Basis Set:
  Basis Set: 6-31G*
  Basis Set:
  @DF-RHF Final Energy:  -230.98288553438985
    Total Energy =                       -230.9828855343900500
  Basis Set: 6-31G*
  Basis Set:
  @DF-RHF Final Energy:  -230.98291010144081
    Total Energy =                       -230.9829101014408650
  @DF-RHF Final Energy:  -230.98291667838521
    Total Energy =                       -230.9829166783852088
  Basis Set: 6-31G*
  Basis Set:
  @DF-RHF Final Energy:  -230.98291547023751
    Total Energy =                       -230.9829154702376854
  Basis Set: 6-31G*
  Basis Set:
  Basis Set: 6-31G*
  Basis Set:
  @DF-RHF Final Energy:  -230.98291746990384
    Total Energy =                       -230.9829174699037821
  Basis Set: 6-31G*
  Basis Set:
  Basis Set: 6-31G*
  Basis Set:
  @DF-RHF Final Energy:  -230.98292025757925
    Total Energy =                       -230.9829202575793659
  Basis Set: 6-31G*
  Basis Set:
  Charge       = 0
  Multiplicity = 1
  Basis Set: 6-31G*
  Basis Set:

    Orbital Energies (a.u.)
    -----------------------

    Doubly Occupied:

       1A    -20.562766     2A    -11.326514     3A    -11.237431
       4A    -11.234934     5A    -11.224078     6A     -1.402556
       7A     -1.084033     8A     -0.972393     9A     -0.854447
      10A     -0.776645    11A     -0.683003    12A     -0.643571
      13A     -0.611545    14A     -0.599864    15A     -0.563018
      16A     -0.534845    17A     -0.506697    18A     -0.492616
      19A     -0.479291    20A     -0.409135

  @DF-RHF Final Energy:  -230.98292068490056

   => Energetics <=

    Nuclear Repulsion Energy =            173.9748406551963456
    One-Electron Energy =                -657.5167620417107628
    Two-Electron Energy =                 252.5590007016138259
    DFT Exchange-Correlation Energy =       0.0000000000000000
    Empirical Dispersion Energy =           0.0000000000000000
    PCM Polarization Energy =               0.0000000000000000
    EFP Energy =                            0.0000000000000000
    Total Energy =                       -230.9829206849006198
    Molecular point group: c1
  Basis Set: 6-31G*
  Basis Set:

  -Total Gradient:
     Atom            X                  Y                   Z
    ------   -----------------  -----------------  -----------------
       1        0.000015469272     0.000014273743     0.000035472018
       2       -0.000158753201    -0.000230800483     0.000018662056
       3        0.000016769068     0.000004097116    -0.000025364611
       4        0.000086306764     0.000190618908    -0.000004199245
       5       -0.000057213074    -0.000030630220    -0.000007540530
       6        0.000109770485     0.000117914596     0.000048874159
       7       -0.000036004720    -0.000013799756    -0.000059757901
       8        0.000002781299    -0.000008725832     0.000003915414
       9        0.000014885742     0.000002841160    -0.000031380054
      10       -0.000007012197    -0.000020694495     0.000011801449
      11        0.000018663688    -0.000034398675    -0.000002953787
      12       -0.000009435394     0.000007736962    -0.000012659438
      13        0.000003772266     0.000001566981     0.000025130470

  **** Optimization is complete! (in 10 steps) ****
    Final optimized geometry and variables:
    Molecular point group: c1

    Geometry (in Angstrom), charge = 0, multiplicity = 1:

    H            0.217268457922    -0.930497743477     1.592389549315
    C            0.198694110167    -1.066211669926     0.506020556258
    C           -0.863973245962    -0.305829938197    -0.251883447727
    O            1.003978442384    -1.765868842584    -0.019293438600
    C           -0.366469051715     1.078784989118    -0.705566831105
    H           -1.744317278783    -0.192455093334     0.375480521417
    H           -1.133694654519    -0.896184506384    -1.120236390619
    C           -0.041219702088     2.034004954477     0.444239478386
    H           -1.133447147401     1.521743581453    -1.333325553386
    H            0.509512158614     0.943769390687    -1.332419863009
    H           -0.901410911568     2.176465804860     1.092294307399
    H            0.249036737424     3.006973588731     0.062123232303
    H            0.778831033023     1.669012756826     1.055508073810

  Mulliken Charges: (a.u.)
   Center  Symbol    Alpha    Beta     Spin     Total
       1     H     0.42843  0.42843  0.00000  0.14313
       2     C     2.84002  2.84002  0.00000  0.31995
       3     C     3.20222  3.20222  0.00000 -0.40443
       4     O     4.23675  4.23675  0.00000 -0.47351
       5     C     3.16098  3.16098  0.00000 -0.32197
       6     H     0.41601  0.41601  0.00000  0.16799
       7     H     0.39878  0.39878  0.00000  0.20244
       8     C     3.24560  3.24560  0.00000 -0.49120
       9     H     0.41298  0.41298  0.00000  0.17404
      10     H     0.40764  0.40764  0.00000  0.18473
      11     H     0.41969  0.41969  0.00000  0.16063
      12     H     0.41300  0.41300  0.00000  0.17400
      13     H     0.41790  0.41790  0.00000  0.16419

   Total alpha = 20.00000, Total beta = 20.00000, Total charge =  0.00000
