  ==> Input File <==

--------------------------------------------------------------------------
set {
	reference rhf
	basis 6-31G*
}

set_num_threads( 4 )
memory 2 gb

molecule MOL {
0 1

H	 -1.638371	 2.541244	 0.185725
C	 -0.615930	 2.181805	 0.192230
C	 -0.603454	 0.661669	 0.000000
H	 -0.162487	 2.457189	 1.136684
H	 -0.073795	 2.677985	 -0.603594
C	 0.763625	 0.112519	 0.000000
H	 -1.159291	 0.170451	 0.790138
H	 -1.071160	 0.389847	 -0.939113
N	 1.813038	 -0.320305	 0.000000

	symmetry c1
}
set optking {
	frozen_dihedral = ("
		7 3 6 9
	")
}

ee = optimize('scf')
oeprop('DIPOLE', 'QUADRUPOLE', 'MULLIKEN_CHARGES')
f=open( 'psi4out.xyz', 'w' )
f.write( "9  " )
f.write( str(ee) + "\n" )
f.write( MOL.save_string_xyz() )
f.close()
--------------------------------------------------------------------------

    Molecular point group: c1
  Charge       = 0
  Multiplicity = 1
  Basis Set: 6-31G*
  Basis Set:
  @DF-RHF Final Energy:  -170.96241442874759
    Total Energy =                       -170.9624144287476497
    Molecular point group: c1
  Basis Set: 6-31G*
  Basis Set:
  Basis Set: 6-31G*
  Basis Set:
  @DF-RHF Final Energy:  -170.95144560984303
    Total Energy =                       -170.9514456098431481
  Basis Set: 6-31G*
  Basis Set:
  Basis Set: 6-31G*
  Basis Set:
  @DF-RHF Final Energy:  -170.95900774910555
    Total Energy =                       -170.9590077491056093
  Basis Set: 6-31G*
  Basis Set:
  Basis Set: 6-31G*
  Basis Set:
  @DF-RHF Final Energy:  -170.96216923525395
    Total Energy =                       -170.9621692352539526
  Basis Set: 6-31G*
  Basis Set:
  @DF-RHF Final Energy:  -170.96235273736710
    Total Energy =                       -170.9623527373670981
  @DF-RHF Final Energy:  -170.92607520539073
    Total Energy =                       -170.9260752053906458
  @DF-RHF Final Energy:  -170.94732915308632
    Total Energy =                       -170.9473291530862298
  @DF-RHF Final Energy:  -170.95335018328558
    Total Energy =                       -170.9533501832855791
  @DF-RHF Final Energy:  -170.96158279561524
    Total Energy =                       -170.9615827956151577
  @DF-RHF Final Energy:  -170.96223760632193
    Total Energy =                       -170.9622376063219065
  @DF-RHF Final Energy:  -170.96221803447938
    Total Energy =                       -170.9622180344794344
  @DF-RHF Final Energy:  -170.96231749660240
    Total Energy =                       -170.9623174966023669
  @DF-RHF Final Energy:  -170.96239491488504
    Total Energy =                       -170.9623949148849533
  @DF-RHF Final Energy:  -170.96033911445772
    Total Energy =                       -170.9603391144576960
  @DF-RHF Final Energy:  -170.96183743165420
    Total Energy =                       -170.9618374316542599
  @DF-RHF Final Energy:  -170.96229336911074
    Total Energy =                       -170.9622933691106539
  @DF-RHF Final Energy:  -170.96112322761235
    Total Energy =                       -170.9611232276123758
  @DF-RHF Final Energy:  -170.96208839540003
    Total Energy =                       -170.9620883954000590
  @DF-RHF Final Energy:  -170.96227433758278
    Total Energy =                       -170.9622743375828122
  @DF-RHF Final Energy:  -170.96155920128007
    Total Energy =                       -170.9615592012800676
  @DF-RHF Final Energy:  -170.96232409578425
    Total Energy =                       -170.9623240957841972
  @DF-RHF Final Energy:  -170.96218780791844
    Total Energy =                       -170.9621878079182977
  @DF-RHF Final Energy:  -170.96170469079041
    Total Energy =                       -170.9617046907904125
  @DF-RHF Final Energy:  -170.96197379935421
    Total Energy =                       -170.9619737993542401
  @DF-RHF Final Energy:  -170.96144027486187
    Total Energy =                       -170.9614402748618431
  @DF-RHF Final Energy:  -170.88825032653426
    Total Energy =                       -170.8882503265343473
  @DF-RHF Final Energy:  -170.95285151819354
    Total Energy =                       -170.9528515181935688
  @DF-RHF Final Energy:  -170.95350313072447
    Total Energy =                       -170.9535031307244139
  @DF-RHF Final Energy:  -170.95972389969847
    Total Energy =                       -170.9597238996983890
  @DF-RHF Final Energy:  -170.96049130095025
    Total Energy =                       -170.9604913009501956
  @DF-RHF Final Energy:  -170.96096922746727
    Total Energy =                       -170.9609692274672170
  @DF-RHF Final Energy:  -170.96174933824199
    Total Energy =                       -170.9617493382421571
  @DF-RHF Final Energy:  -170.96219125448110
    Total Energy =                       -170.9621912544810698
  @DF-RHF Final Energy:  -170.96238052580642
    Total Energy =                       -170.9623805258064806
  @DF-RHF Final Energy:  -170.96065159612323
    Total Energy =                       -170.9606515961232276
  @DF-RHF Final Energy:  -170.96228948446975
    Total Energy =                       -170.9622894844697214
  Basis Set: 6-31G*
  Basis Set:
  @DF-RHF Final Energy:  -170.96161081053469
    Total Energy =                       -170.9616108105347507
  Basis Set: 6-31G*
  Basis Set:
  Basis Set: 6-31G*
  Basis Set:
  @DF-RHF Final Energy:  -170.96143375812727
    Total Energy =                       -170.9614337581272139
  Basis Set: 6-31G*
  Basis Set:
  Basis Set: 6-31G*
  Basis Set:
  @DF-RHF Final Energy:  -170.96170233220781
    Total Energy =                       -170.9617023322078353
  Basis Set: 6-31G*
  Basis Set:
  Charge       = 0
  Multiplicity = 1
  Basis Set: 6-31G*
  Basis Set:

    Orbital Energies (a.u.)
    -----------------------

    Doubly Occupied:

       1A    -15.567148     2A    -11.283887     3A    -11.269471
       4A    -11.246277     5A     -1.224336     6A     -1.081721
       7A     -0.912213     8A     -0.698057     9A     -0.659137
      10A     -0.588143    11A     -0.560987    12A     -0.543869
      13A     -0.536392    14A     -0.458411    15A     -0.458251

  @DF-RHF Final Energy:  -170.96221346606134

   => Energetics <=

    Nuclear Repulsion Energy =            103.3314324076955302
    One-Electron Energy =                -434.4106879629485434
    Two-Electron Energy =                 160.1170420891916706
    DFT Exchange-Correlation Energy =       0.0000000000000000
    Empirical Dispersion Energy =           0.0000000000000000
    PCM Polarization Energy =               0.0000000000000000
    EFP Energy =                            0.0000000000000000
    Total Energy =                       -170.9622134660613142
    Molecular point group: c1
  Basis Set: 6-31G*
  Basis Set:

  -Total Gradient:
     Atom            X                  Y                   Z
    ------   -----------------  -----------------  -----------------
       1       -0.000140253728     0.000222166167    -0.000091768611
       2       -0.001382166509     0.000117509934     0.000592433471
       3        0.000831949222     0.002682724930    -0.003509555556
       4        0.000272958437     0.000328069767     0.000154775786
       5        0.000234054599     0.000218036842    -0.000199935010
       6       -0.001954482770    -0.003500250613     0.004904226175
       7        0.000494751978    -0.000686053334     0.000828143313
       8        0.000533201595    -0.000394218341     0.000016366219
       9        0.001109987178     0.001012014646    -0.002694685786

    Molecular point group: c1

    Geometry (in Angstrom), charge = 0, multiplicity = 1:

    H           -1.946786616429     1.798551721609     0.111350728927
    C           -0.921641321887     1.447433810385     0.130863897187
    C           -0.894631749077    -0.072832077114    -0.054358282750
    H           -0.480041705125     1.731303397396     1.078424418537
    H           -0.375051295818     1.944314704419    -0.661419175495
    C            0.476216741214    -0.613339458204    -0.044272197817
    H           -1.454855037712    -0.564381611483     0.732385012527
    H           -1.348386439821    -0.354581431327    -0.997529191203
    N            1.551777652307    -0.980213252881    -0.046566377728

  Mulliken Charges: (a.u.)
   Center  Symbol    Alpha    Beta     Spin     Total
       1     H     0.40897  0.40897  0.00000  0.18205
       2     C     3.24234  3.24234  0.00000 -0.48467
       3     C     3.18227  3.18227  0.00000 -0.36455
       4     H     0.40555  0.40555  0.00000  0.18890
       5     H     0.40523  0.40523  0.00000  0.18955
       6     C     2.84953  2.84953  0.00000  0.30095
       7     H     0.38960  0.38960  0.00000  0.22080
       8     H     0.38797  0.38797  0.00000  0.22406
       9     N     3.72855  3.72855  0.00000 -0.45710

   Total alpha = 15.00000, Total beta = 15.00000, Total charge =  0.00000
