  ==> Input File <==

--------------------------------------------------------------------------
set {
	reference rhf
	basis cc-pvtz
}

set_num_threads( 4 )
memory 2 gb

molecule MOL {
0 1

H	 2.438262	 0.951817	 0.541529
O	 1.535159	 1.051169	 0.778549
C	 0.700177	 0.619554	 -0.266242
C	 -0.713111	 0.588314	 0.266177
H	 0.984677	 -0.374293	 -0.598286
H	 0.755947	 1.298202	 -1.113416
O	 -1.421673	 -0.521378	 -0.196983
H	 -1.244794	 1.469161	 -0.069059
H	 -0.685100	 0.604721	 1.352683
H	 -0.933408	 -1.297830	 0.014544

	symmetry c1
}
set optking {
	frozen_dihedral = ("
		5 3 4 7
	")
}

ee = optimize('scf')
oeprop('DIPOLE', 'QUADRUPOLE', 'MULLIKEN_CHARGES')
f=open( 'psi4out.xyz', 'w' )
f.write( "10  " )
f.write( str(ee) + "\n" )
f.write( MOL.save_string_xyz() )
f.close()
--------------------------------------------------------------------------

    Molecular point group: c1
  Charge       = 0
  Multiplicity = 1
  Basis Set: CC-PVTZ
  Basis Set:
  @DF-RHF Final Energy:  -229.01968522056842
    Total Energy =                       -229.0196852205683626
    Molecular point group: c1
  Basis Set: CC-PVTZ
  Basis Set:
  Basis Set: CC-PVTZ
  Basis Set:
  @DF-RHF Final Energy:  -229.02091716267469
    Total Energy =                       -229.0209171626747207
  Basis Set: CC-PVTZ
  Basis Set:
  Basis Set: CC-PVTZ
  Basis Set:
  @DF-RHF Final Energy:  -229.02136790611920
    Total Energy =                       -229.0213679061191385
  Basis Set: CC-PVTZ
  Basis Set:
  Basis Set: CC-PVTZ
  Basis Set:
  @DF-RHF Final Energy:  -229.02142515942546
    Total Energy =                       -229.0214251594254620
  Basis Set: CC-PVTZ
  Basis Set:
  Basis Set: CC-PVTZ
  Basis Set:
  @DF-RHF Final Energy:  -229.02142656756155
    Total Energy =                       -229.0214265675613490
  Basis Set: CC-PVTZ
  Basis Set:
  Charge       = 0
  Multiplicity = 1
  Basis Set: CC-PVTZ
  Basis Set:

    Orbital Energies (a.u.)
    -----------------------

    Doubly Occupied:

       1A    -20.556304     2A    -20.550486     3A    -11.271859
       4A    -11.267504     5A     -1.378815     6A     -1.364566
       7A     -0.997253     8A     -0.848885     9A     -0.729856
      10A     -0.672386    11A     -0.656543    12A     -0.612966
      13A     -0.576390    14A     -0.529450    15A     -0.496659
      16A     -0.447402    17A     -0.438294

  @DF-RHF Final Energy:  -229.02142668985019

   => Energetics <=

    Nuclear Repulsion Energy =            131.3510575911543867
    One-Electron Energy =                -573.9537309294265697
    Two-Electron Energy =                 213.5812466484221090
    DFT Exchange-Correlation Energy =       0.0000000000000000
    Empirical Dispersion Energy =           0.0000000000000000
    PCM Polarization Energy =               0.0000000000000000
    EFP Energy =                            0.0000000000000000
    Total Energy =                       -229.0214266898501023
    Molecular point group: c1
  Basis Set: CC-PVTZ
  Basis Set:

  -Total Gradient:
     Atom            X                  Y                   Z
    ------   -----------------  -----------------  -----------------
       1       -0.000030032984    -0.000003967383     0.000003943117
       2        0.000009171770     0.000000372578    -0.000022151469
       3        0.001826098151    -0.001776431625     0.005054604672
       4       -0.001398185454     0.002499715564    -0.003912413043
       5       -0.001206196722     0.000963159140    -0.003433245297
       6       -0.000004502869    -0.000007865403    -0.000003218400
       7        0.000824602393    -0.001685919652     0.002307126839
       8       -0.000012541638    -0.000002477430     0.000001329668
       9       -0.000011197613     0.000009093653     0.000003295701
      10        0.000002784970     0.000004320556     0.000000728215

  **** Optimization is complete! (in 6 steps) ****
    Final optimized geometry and variables:
    Molecular point group: c1

    Geometry (in Angstrom), charge = 0, multiplicity = 1:

    H            2.377564273763     0.767943775285     0.349398036777
    O            1.508243949325     0.603951256134     0.664810862515
    C            0.679107713645     0.198258524265    -0.388569838235
    C           -0.764917455586     0.168934530281     0.111453326983
    H            0.943451712611    -0.788857172927    -0.758772026996
    H            0.771132292603     0.879116541427    -1.230217592776
    O           -1.498585761810    -0.901255157948    -0.415210705090
    H           -1.289953537857     1.069277663532    -0.172079089940
    H           -0.740457999341     0.128227394732     1.195146183448
    H           -1.193297289711    -1.709384326444    -0.045232314324

  Mulliken Charges: (a.u.)
   Center  Symbol    Alpha    Beta     Spin     Total
       1     H     0.39250  0.39250  0.00000  0.21500
       2     O     4.19860  4.19860  0.00000 -0.39721
       3     C     2.96474  2.96474  0.00000  0.07052
       4     C     2.97260  2.97260  0.00000  0.05481
       5     H     0.47881  0.47881  0.00000  0.04238
       6     H     0.47453  0.47453  0.00000  0.05093
       7     O     4.20387  4.20387  0.00000 -0.40773
       8     H     0.45702  0.45702  0.00000  0.08595
       9     H     0.46464  0.46464  0.00000  0.07071
      10     H     0.39268  0.39268  0.00000  0.21463

   Total alpha = 17.00000, Total beta = 17.00000, Total charge = -0.00000
