  ==> Input File <==

--------------------------------------------------------------------------
set {
	reference rhf
	basis 6-31G*
}

set_num_threads( 4 )
memory 2 gb

molecule MOL {
0 1

H	 -2.787518	 0.521492	 -0.506645
O	 -2.315789	 -0.143634	 -0.024262
C	 -0.945151	 -0.064130	 -0.333158
H	 -0.813375	 -0.223047	 -1.403232
C	 -0.232801	 -1.184051	 0.407206
C	 -0.355424	 1.302939	 0.054523
H	 -0.318824	 -0.992899	 1.473524
H	 -0.742411	 -2.122033	 0.217954
C	 1.248522	 -1.270719	 -0.013048
H	 -0.546144	 2.018388	 -0.742941
H	 -0.890929	 1.656788	 0.930149
C	 1.156425	 1.235120	 0.355905
H	 1.825384	 -1.683246	 0.809111
H	 1.357782	 -1.965923	 -0.840362
C	 1.828244	 0.099899	 -0.419275
H	 1.626109	 2.185622	 0.123525
H	 1.309438	 1.071213	 1.419539
H	 2.901447	 0.112642	 -0.255830
H	 1.681817	 0.263413	 -1.484607

	symmetry c1
}
set optking {
	frozen_dihedral = ("
		1 2 3 4
	")
}

ee = optimize('scf')
oeprop('DIPOLE', 'QUADRUPOLE', 'MULLIKEN_CHARGES')
f=open( 'psi4out.xyz', 'w' )
f.write( "19  " )
f.write( str(ee) + "\n" )
f.write( MOL.save_string_xyz() )
f.close()
--------------------------------------------------------------------------

    Molecular point group: c1
  Charge       = 0
  Multiplicity = 1
  Basis Set: 6-31G*
  Basis Set:
  @DF-RHF Final Energy:  -309.04858890223028
    Total Energy =                       -309.0485889022301649
    Molecular point group: c1
  Basis Set: 6-31G*
  Basis Set:
  Charge       = 0
  Multiplicity = 1
  Basis Set: 6-31G*
  Basis Set:

    Orbital Energies (a.u.)
    -----------------------

    Doubly Occupied:

       1A    -20.550110     2A    -11.268944     3A    -11.217254
       4A    -11.216045     5A    -11.215276     6A    -11.213470
       7A    -11.208299     8A     -1.359082     9A     -1.108492
      10A     -1.002049    11A     -0.988102    12A     -0.843550
      13A     -0.835438    14A     -0.733451    15A     -0.697331
      16A     -0.661794    17A     -0.627716    18A     -0.590213
      19A     -0.576769    20A     -0.545478    21A     -0.529945
      22A     -0.518583    23A     -0.498652    24A     -0.486886
      25A     -0.462081    26A     -0.448710    27A     -0.428455
      28A     -0.411953

  @DF-RHF Final Energy:  -309.04858926274676

   => Energetics <=

    Nuclear Repulsion Energy =            331.3842909760612656
    One-Electron Energy =               -1076.3775082495121751
    Two-Electron Energy =                 435.9446280107039229
    DFT Exchange-Correlation Energy =       0.0000000000000000
    Empirical Dispersion Energy =           0.0000000000000000
    PCM Polarization Energy =               0.0000000000000000
    EFP Energy =                            0.0000000000000000
    Total Energy =                       -309.0485892627469866
    Molecular point group: c1
  Basis Set: 6-31G*
  Basis Set:

  -Total Gradient:
     Atom            X                  Y                   Z
    ------   -----------------  -----------------  -----------------
       1       -0.000035607492    -0.000128558575    -0.000147970139
       2        0.000065926565     0.000265240419     0.000170438937
       3       -0.000028512229    -0.000254036031     0.000025702127
       4       -0.000007804787     0.000216582912    -0.000031509010
       5       -0.000003937931    -0.000037324108     0.000016479496
       6       -0.000076625054    -0.000034031303    -0.000060268797
       7        0.000019663290    -0.000013329896    -0.000000155899
       8       -0.000005509694     0.000003290347     0.000002610177
       9        0.000030193295     0.000039344812     0.000037811556
      10       -0.000013656782     0.000012457743     0.000008026328
      11       -0.000019486771    -0.000012971200    -0.000013883311
      12        0.000014322676    -0.000039054294     0.000001138789
      13        0.000017673065    -0.000010034209    -0.000000968232
      14       -0.000010624352     0.000012844402    -0.000000989459
      15        0.000031352765    -0.000019099357     0.000005726872
      16        0.000005986157    -0.000012241292    -0.000005086903
      17        0.000008567638    -0.000004884284    -0.000009430366
      18        0.000006984411     0.000004926545    -0.000005481101
      19        0.000001095232     0.000010877370     0.000007808934

  **** Optimization is complete! (in 2 steps) ****
    Final optimized geometry and variables:
    Molecular point group: c1

    Geometry (in Angstrom), charge = 0, multiplicity = 1:

    H           -2.787226288385     0.523497734917    -0.503877665962
    O           -2.315776559777    -0.142604541984    -0.022640269307
    C           -0.945373539681    -0.064312101205    -0.333128994427
    H           -0.814801111314    -0.222349792341    -1.403432578792
    C           -0.232662241857    -1.184361975842     0.406800456734
    C           -0.355598441947     1.302912146359     0.053690470077
    H           -0.319059689834    -0.993561894043     1.473142178769
    H           -0.742250526490    -2.122340804673     0.217305056190
    C            1.248950113740    -1.270476668193    -0.012569243338
    H           -0.546037158764     2.018053231010    -0.744134730683
    H           -0.891895915227     1.656962348571     0.928622874325
    C            1.156177219201     1.235133698380     0.355921453801
    H            1.825823051990    -1.682827068187     0.809715895052
    H            1.358681208241    -1.965438848529    -0.839986674311
    C            1.828683402811     0.100188860320    -0.418841871952
    H            1.626123694465     2.185652301287     0.124046255164
    H            1.308726275858     1.070970650557     1.419569433073
    H            2.901826627572     0.113104296809    -0.255043222867
    H            1.682605205901     0.263603102933    -1.484243559406

  Mulliken Charges: (a.u.)
   Center  Symbol    Alpha    Beta     Spin     Total
       1     H     0.28282  0.28282  0.00000  0.43436
       2     O     4.37841  4.37841  0.00000 -0.75682
       3     C     2.90709  2.90709  0.00000  0.18581
       4     H     0.43007  0.43007  0.00000  0.13986
       5     C     3.16722  3.16722  0.00000 -0.33445
       6     C     3.17505  3.17505  0.00000 -0.35011
       7     H     0.41629  0.41629  0.00000  0.16743
       8     H     0.40900  0.40900  0.00000  0.18199
       9     C     3.16076  3.16076  0.00000 -0.32151
      10     H     0.42412  0.42412  0.00000  0.15176
      11     H     0.41160  0.41160  0.00000  0.17679
      12     C     3.16318  3.16318  0.00000 -0.32637
      13     H     0.41782  0.41782  0.00000  0.16435
      14     H     0.41852  0.41852  0.00000  0.16296
      15     C     3.16416  3.16416  0.00000 -0.32832
      16     H     0.41690  0.41690  0.00000  0.16620
      17     H     0.41853  0.41853  0.00000  0.16295
      18     H     0.41648  0.41648  0.00000  0.16705
      19     H     0.42197  0.42197  0.00000  0.15606

   Total alpha = 28.00000, Total beta = 28.00000, Total charge =  0.00000
