  ==> Input File <==

--------------------------------------------------------------------------
set {
	reference rhf
	basis 6-31G*
}

set_num_threads( 1 )
memory 2 gb

molecule MOL {
0 1

H	 2.410427	 -0.185281	 1.312216
C	 1.951159	 -0.223429	 0.317018
C	 0.692068	 0.589600	 0.160137
O	 2.447745	 -0.873590	 -0.544854
C	 -0.558097	 -0.297372	 0.091132
H	 0.791645	 1.202255	 -0.728243
H	 0.616171	 1.253469	 1.020572
C	 -1.850991	 0.512573	 -0.019058
H	 -0.476753	 -0.965681	 -0.762987
H	 -0.604799	 -0.930658	 0.975228
C	 -3.096943	 -0.368295	 -0.099594
H	 -1.800724	 1.150330	 -0.898172
H	 -1.931651	 1.177355	 0.838044
H	 -3.060452	 -1.020287	 -0.967456
H	 -3.996858	 0.233488	 -0.175704
H	 -3.191959	 -0.995686	 0.782074

	symmetry c1
}
set optking {
	frozen_dihedral = ("
		9 5 8 12,
		6 3 5 9
	")
}

ee = energy('scf')
oeprop('DIPOLE', 'QUADRUPOLE', 'MULLIKEN_CHARGES')
f=open( 'psi4out.xyz', 'w' )
f.write( "16  " )
f.write( str(ee) + "\n" )
f.write( MOL.save_string_xyz() )
f.close()
--------------------------------------------------------------------------

    Molecular point group: c1

    Geometry (in Angstrom), charge = 0, multiplicity = 1:

       Center              X                  Y                   Z               Mass
    ------------   -----------------  -----------------  -----------------  -----------------
           H          2.486352183382    -0.063412867389     1.334438731275     1.007825032070
           C          2.027084183382    -0.101560867389     0.339240731275    12.000000000000
           C          0.767993183382     0.711468132611     0.182359731275    12.000000000000
           O          2.523670183382    -0.751721867389    -0.522631268725    15.994914619560
           C         -0.482171816618    -0.175503867389     0.113354731275    12.000000000000
           H          0.867570183382     1.324123132611    -0.706020268725     1.007825032070
           H          0.692096183382     1.375337132611     1.042794731275     1.007825032070
           C         -1.775065816618     0.634441132611     0.003164731275    12.000000000000
           H         -0.400827816618    -0.843812867389    -0.740764268725     1.007825032070
           H         -0.528873816618    -0.808789867389     0.997450731275     1.007825032070
           C         -3.021017816618    -0.246426867389    -0.077371268725    12.000000000000
           H         -1.724798816618     1.272198132611    -0.875949268725     1.007825032070
           H         -1.855725816618     1.299223132611     0.860266731275     1.007825032070
           H         -2.984526816618    -0.898418867389    -0.945233268725     1.007825032070
           H         -3.920932816618     0.355356132611    -0.153481268725     1.007825032070
           H         -3.116033816618    -0.873817867389     0.804296731275     1.007825032070

  Charge       = 0
  Multiplicity = 1
  Basis Set: 6-31G*
  Basis Set:

    Orbital Energies (a.u.)
    -----------------------

    Doubly Occupied:

       1A    -20.562702     2A    -11.326705     3A    -11.235230
       4A    -11.233366     5A    -11.226675     6A    -11.216250
       7A     -1.402746     8A     -1.093229     9A     -1.017174
      10A     -0.907458    11A     -0.813242    12A     -0.783354
      13A     -0.681063    14A     -0.646977    15A     -0.628129
      16A     -0.602661    17A     -0.577959    18A     -0.550181
      19A     -0.525643    20A     -0.509236    21A     -0.484573
      22A     -0.478966    23A     -0.475690    24A     -0.407944

  @DF-RHF Final Energy:  -270.01813113406843

   => Energetics <=

    Nuclear Repulsion Energy =            230.3644404843783775
    One-Electron Energy =                -821.9908192889455449
    Two-Electron Energy =                 321.6082476704988835
    DFT Exchange-Correlation Energy =       0.0000000000000000
    Empirical Dispersion Energy =           0.0000000000000000
    PCM Polarization Energy =               0.0000000000000000
    EFP Energy =                            0.0000000000000000
    Total Energy =                       -270.0181311340682555

  Mulliken Charges: (a.u.)
   Center  Symbol    Alpha    Beta     Spin     Total
       1     H     0.42958  0.42958  0.00000  0.14085
       2     C     2.84108  2.84108  0.00000  0.31784
       3     C     3.20023  3.20023  0.00000 -0.40047
       4     O     4.23635  4.23635  0.00000 -0.47270
       5     C     3.15917  3.15917  0.00000 -0.31834
       6     H     0.39978  0.39978  0.00000  0.20044
       7     H     0.41768  0.41768  0.00000  0.16465
       8     C     3.15240  3.15240  0.00000 -0.30480
       9     H     0.40678  0.40678  0.00000  0.18645
      10     H     0.41872  0.41872  0.00000  0.16257
      11     C     3.24051  3.24051  0.00000 -0.48103
      12     H     0.41951  0.41951  0.00000  0.16099
      13     H     0.42192  0.42192  0.00000  0.15617
      14     H     0.41871  0.41871  0.00000  0.16257
      15     H     0.41707  0.41707  0.00000  0.16586
      16     H     0.42052  0.42052  0.00000  0.15896

   Total alpha = 24.00000, Total beta = 24.00000, Total charge =  0.00000
