  ==> Input File <==

--------------------------------------------------------------------------
set {
	reference rhf
	basis cc-pvtz
}

set_num_threads( 4 )
memory 2 gb

molecule MOL {
0 1

H	 -0.000105	 1.988529	 0.748933
O	 -0.000098	 1.879786	 -0.188206
C	 -0.000014	 0.545691	 -0.532416
C	 -1.377230	 -0.066975	 -0.272237
C	 1.155718	 -0.178398	 0.160225
H	 0.178477	 0.477213	 -1.595484
F	 -2.275515	 0.568859	 -0.983334
F	 -1.428394	 -1.333486	 -0.599413
F	 -1.718964	 0.043485	 0.993619
F	 2.289592	 0.368029	 -0.203924
F	 1.204071	 -1.449291	 -0.149946
F	 1.067061	 -0.079057	 1.469289

	symmetry c1
}
set optking {
	frozen_dihedral = ("
		6 3 2 1
	")
}

ee = optimize('scf')
oeprop('DIPOLE', 'QUADRUPOLE', 'MULLIKEN_CHARGES')
f=open( 'psi4out.xyz', 'w' )
f.write( "12  " )
f.write( str(ee) + "\n" )
f.write( MOL.save_string_xyz() )
f.close()
--------------------------------------------------------------------------

    Molecular point group: c1
  Charge       = 0
  Multiplicity = 1
  Basis Set: CC-PVTZ
  Basis Set:
  @DF-RHF Final Energy:  -786.58928937973269
    Total Energy =                       -786.5892893797322358
    Molecular point group: c1
  Basis Set: CC-PVTZ
  Basis Set:
  Basis Set: CC-PVTZ
  Basis Set:
  @DF-RHF Final Energy:  -786.58931314772303
    Total Energy =                       -786.5893131477230327
  Basis Set: CC-PVTZ
  Basis Set:
  Basis Set: CC-PVTZ
  Basis Set:
  @DF-RHF Final Energy:  -786.58932154711431
    Total Energy =                       -786.5893215471136273
  Basis Set: CC-PVTZ
  Basis Set:
  Charge       = 0
  Multiplicity = 1
  Basis Set: CC-PVTZ
  Basis Set:

    Orbital Energies (a.u.)
    -----------------------

    Doubly Occupied:

       1A    -26.360490     2A    -26.358985     3A    -26.356495
       4A    -26.355680     5A    -26.355480     6A    -26.352161
       7A    -20.609800     8A    -11.521630     9A    -11.518036
      10A    -11.351604    11A     -1.772559    12A     -1.766018
      13A     -1.668468    14A     -1.664249    15A     -1.662452
      16A     -1.660210    17A     -1.439708    18A     -1.103243
      19A     -1.002004    20A     -0.945346    21A     -0.871285
      22A     -0.869053    23A     -0.859757    24A     -0.852023
      25A     -0.839851    26A     -0.821756    27A     -0.749839
      28A     -0.734827    29A     -0.730801    30A     -0.725512
      31A     -0.696495    32A     -0.692466    33A     -0.690368
      34A     -0.681349    35A     -0.677315    36A     -0.669817
      37A     -0.663042    38A     -0.657983    39A     -0.625230
      40A     -0.553908    41A     -0.510186

  @DF-RHF Final Energy:  -786.58932196343210

   => Energetics <=

    Nuclear Repulsion Energy =            670.8576974273790938
    One-Electron Energy =               -2428.8990827395177803
    Two-Electron Energy =                 971.4520633487063606
    DFT Exchange-Correlation Energy =       0.0000000000000000
    Empirical Dispersion Energy =           0.0000000000000000
    PCM Polarization Energy =               0.0000000000000000
    EFP Energy =                            0.0000000000000000
    Total Energy =                       -786.5893219634322122
    Molecular point group: c1
  Basis Set: CC-PVTZ
  Basis Set:

  -Total Gradient:
     Atom            X                  Y                   Z
    ------   -----------------  -----------------  -----------------
       1        0.001327587709    -0.000002443075     0.000009671566
       2       -0.001399822056    -0.000011087979     0.000034653649
       3       -0.001062529758     0.000076702737    -0.000254583636
       4       -0.000061555866    -0.000162367026    -0.000028879261
       5        0.000001684007     0.000034426539     0.000117544709
       6        0.001133087098    -0.000047366289     0.000202327877
       7        0.000021335262     0.000077081471    -0.000012901477
       8        0.000040984512     0.000016086176     0.000000009055
       9        0.000055726421     0.000053882374     0.000029369112
      10       -0.000059407637    -0.000003272581    -0.000012237644
      11       -0.000001604706    -0.000086328366    -0.000092525272
      12        0.000004515012     0.000054686018     0.000007551326

  **** Optimization is complete! (in 4 steps) ****
    Final optimized geometry and variables:
    Molecular point group: c1

    Geometry (in Angstrom), charge = 0, multiplicity = 1:

    H            0.098167539633     1.988384821239     0.757041744411
    O            0.107697045818     1.877944442590    -0.179700788288
    C            0.112708570653     0.543317704021    -0.523032881348
    C           -1.264030013803    -0.071682400755    -0.266796043262
    C            1.266886956717    -0.178761592648     0.174171164826
    H            0.301879019974     0.472920175232    -1.584233411447
    F           -2.166526262993     0.587707505292    -0.949797042128
    F           -1.320365102262    -1.327521173535    -0.635081913617
    F           -1.593005907098    -0.002035071294     1.004500327725
    F            2.403665725907     0.343279792742    -0.217045118140
    F            1.295285427468    -1.457627738991    -0.100096308414
    F            1.196058572863    -0.040415882600     1.481561577468

  Mulliken Charges: (a.u.)
   Center  Symbol    Alpha    Beta     Spin     Total
       1     H     0.38128  0.38128  0.00000  0.23744
       2     O     4.18999  4.18999  0.00000 -0.37998
       3     C     3.00459  3.00459  0.00000 -0.00918
       4     C     2.68475  2.68475  0.00000  0.63051
       5     C     2.68589  2.68589  0.00000  0.62822
       6     H     0.42476  0.42476  0.00000  0.15049
       7     F     4.60176  4.60176  0.00000 -0.20353
       8     F     4.60338  4.60338  0.00000 -0.20677
       9     F     4.60944  4.60944  0.00000 -0.21889
      10     F     4.60225  4.60225  0.00000 -0.20450
      11     F     4.60122  4.60122  0.00000 -0.20244
      12     F     4.61069  4.61069  0.00000 -0.22138

   Total alpha = 41.00000, Total beta = 41.00000, Total charge = -0.00000
