  ==> Input File <==

--------------------------------------------------------------------------
set {
	reference rhf
	basis 6-31G*
}

set_num_threads( 1 )
memory 2 gb

molecule MOL {
0 1

H	 -3.943826	 -0.471178	 0.513080
O	 -3.517110	 -0.026191	 -0.205115
C	 -2.306886	 0.532354	 0.237577
C	 -1.177863	 -0.397191	 -0.171080
H	 -2.156308	 1.517575	 -0.201710
H	 -2.315015	 0.655684	 1.319734
C	 0.198102	 0.111031	 0.262842
H	 -1.208843	 -0.518759	 -1.250427
H	 -1.368741	 -1.376554	 0.258909
C	 1.331804	 -0.827780	 -0.158768
H	 0.361943	 1.100838	 -0.156218
H	 0.217265	 0.229072	 1.345532
C	 2.723619	 -0.410569	 0.329459
H	 1.342964	 -0.912588	 -1.244120
H	 1.116806	 -1.824343	 0.220779
C	 3.243875	 0.895854	 -0.272975
H	 3.424222	 -1.207124	 0.091250
H	 2.714788	 -0.329854	 1.414619
H	 3.251977	 0.848779	 -1.358681
H	 2.637085	 1.747371	 0.016682
H	 4.259473	 1.094070	 0.055697

	symmetry c1
}
set optking {
	frozen_dihedral = ("
		2 3 4 8,
		8 4 7 10,
		4 7 10 14,
		16 13 10 14
	")
}

ee = energy('scf')
oeprop('DIPOLE', 'QUADRUPOLE', 'MULLIKEN_CHARGES')
f=open( 'psi4out.xyz', 'w' )
f.write( "21  " )
f.write( str(ee) + "\n" )
f.write( MOL.save_string_xyz() )
f.close()
--------------------------------------------------------------------------

    Molecular point group: c1

    Geometry (in Angstrom), charge = 0, multiplicity = 1:

       Center              X                  Y                   Z               Mass
    ------------   -----------------  -----------------  -----------------  -----------------
           H         -3.946714610368    -0.461215471413     0.508408208896     1.007825032070
           O         -3.519998610368    -0.016228471413    -0.209786791104    15.994914619560
           C         -2.309774610368     0.542316528587     0.232905208896    12.000000000000
           C         -1.180751610368    -0.387228471413    -0.175751791104    12.000000000000
           H         -2.159196610368     1.527537528587    -0.206381791104     1.007825032070
           H         -2.317903610368     0.665646528587     1.315062208896     1.007825032070
           C          0.195213389632     0.120993528587     0.258170208896    12.000000000000
           H         -1.211731610368    -0.508796471413    -1.255098791104     1.007825032070
           H         -1.371629610368    -1.366591471413     0.254237208896     1.007825032070
           C          1.328915389632    -0.817817471413    -0.163439791104    12.000000000000
           H          0.359054389632     1.110800528587    -0.160889791104     1.007825032070
           H          0.214376389632     0.239034528587     1.340860208896     1.007825032070
           C          2.720730389632    -0.400606471413     0.324787208896    12.000000000000
           H          1.340075389632    -0.902625471413    -1.248791791104     1.007825032070
           H          1.113917389632    -1.814380471413     0.216107208896     1.007825032070
           C          3.240986389632     0.905816528587    -0.277646791104    12.000000000000
           H          3.421333389632    -1.197161471413     0.086578208896     1.007825032070
           H          2.711899389632    -0.319891471413     1.409947208896     1.007825032070
           H          3.249088389632     0.858741528587    -1.363352791104     1.007825032070
           H          2.634196389632     1.757333528587     0.012010208896     1.007825032070
           H          4.256584389632     1.104032528587     0.051025208896     1.007825032070

  Charge       = 0
  Multiplicity = 1
  Basis Set: 6-31G*
  Basis Set:

    Orbital Energies (a.u.)
    -----------------------

    Doubly Occupied:

       1A    -20.551323     2A    -11.267962     3A    -11.215561
       4A    -11.215402     5A    -11.214052     6A    -11.209485
       7A    -11.208408     8A     -1.359407     9A     -1.086473
      10A     -1.033093    11A     -0.954312    12A     -0.876854
      13A     -0.811599    14A     -0.779050    15A     -0.700045
      16A     -0.649004    17A     -0.619346    18A     -0.609128
      19A     -0.588167    20A     -0.570520    21A     -0.540720
      22A     -0.527705    23A     -0.500225    24A     -0.495296
      25A     -0.471302    26A     -0.468705    27A     -0.460484
      28A     -0.456038    29A     -0.416960

  @DF-RHF Final Energy:  -310.21039843038801

   => Energetics <=

    Nuclear Repulsion Energy =            312.7550353082763763
    One-Electron Energy =               -1040.2177510769431592
    Two-Electron Energy =                 417.2523173382792834
    DFT Exchange-Correlation Energy =       0.0000000000000000
    Empirical Dispersion Energy =           0.0000000000000000
    PCM Polarization Energy =               0.0000000000000000
    EFP Energy =                            0.0000000000000000
    Total Energy =                       -310.2103984303875563

  Mulliken Charges: (a.u.)
   Center  Symbol    Alpha    Beta     Spin     Total
       1     H     0.28010  0.28010  0.00000  0.43981
       2     O     4.37115  4.37115  0.00000 -0.74229
       3     C     2.99660  2.99660  0.00000  0.00680
       4     C     3.15493  3.15493  0.00000 -0.30986
       5     H     0.41964  0.41964  0.00000  0.16072
       6     H     0.43212  0.43212  0.00000  0.13576
       7     C     3.16323  3.16323  0.00000 -0.32646
       8     H     0.41433  0.41433  0.00000  0.17134
       9     H     0.42531  0.42531  0.00000  0.14938
      10     C     3.15129  3.15129  0.00000 -0.30257
      11     H     0.42090  0.42090  0.00000  0.15820
      12     H     0.42564  0.42564  0.00000  0.14872
      13     C     3.15235  3.15235  0.00000 -0.30470
      14     H     0.42285  0.42285  0.00000  0.15430
      15     H     0.42216  0.42216  0.00000  0.15567
      16     C     3.24120  3.24120  0.00000 -0.48240
      17     H     0.42083  0.42083  0.00000  0.15833
      18     H     0.42391  0.42391  0.00000  0.15218
      19     H     0.42182  0.42182  0.00000  0.15636
      20     H     0.42042  0.42042  0.00000  0.15917
      21     H     0.41923  0.41923  0.00000  0.16154

   Total alpha = 29.00000, Total beta = 29.00000, Total charge =  0.00000
