                              Psi4 1.0.54 Driver

  ==> Input File <==

--------------------------------------------------------------------------
set {
	reference rhf
	basis cc-pvtz
}

set_num_threads( 4 )
memory 2 gb

molecule MOL {
0 1

H	 1.215247	 -2.299880	 -0.179769
C	 0.247203	 -1.829387	 -0.216630
O	 0.462329	 -0.453336	 -0.000137
H	 -0.383103	 -2.251714	 0.555751
H	 -0.197507	 -2.006431	 -1.187777
C	 -0.590565	 0.341382	 0.000062
O	 -1.693898	 -0.053880	 0.000252
H	 -0.340426	 1.403822	 0.000200

	symmetry c1
}
set optking {
	frozen_dihedral = ("
		2 3 6 7
	")
}

ee,wfn = optimize('scf', return_wfn=True)
oeprop( wfn, 'DIPOLE', 'QUADRUPOLE', 'MULLIKEN_CHARGES')
f=open( 'psi4out.xyz', 'w' )
f.write( "8  " )
f.write( str(ee) + "\n" )
f.write( MOL.save_string_xyz() )
f.close()
--------------------------------------------------------------------------

    Molecular point group: c1
  Charge       = 0
  Multiplicity = 1
  Basis Set: CC-PVTZ
  Basis Set:
  @DF-RHF Final Energy:  -227.87699537804775
    Total Energy =                       -227.8769953780478090
    Molecular point group: c1
  Basis Set: CC-PVTZ
  Basis Set:
  Basis Set: CC-PVTZ
  Basis Set:
  @DF-RHF Final Energy:  -227.87675094431444
    Total Energy =                       -227.8767509443144093
  Basis Set: CC-PVTZ
  Basis Set:
  Basis Set: CC-PVTZ
  Basis Set:
  @DF-RHF Final Energy:  -227.87503698802016
    Total Energy =                       -227.8750369880202697
  Basis Set: CC-PVTZ
  Basis Set:
  Basis Set: CC-PVTZ
  Basis Set:
  @DF-RHF Final Energy:  -227.87812624646938
    Total Energy =                       -227.8781262464692077
  Basis Set: CC-PVTZ
  Basis Set:
  Basis Set: CC-PVTZ
  Basis Set:
  @DF-RHF Final Energy:  -227.87818533077535
    Total Energy =                       -227.8781853307751533
  Basis Set: CC-PVTZ
  Basis Set:
  Charge       = 0
  Multiplicity = 1
  Basis Set: CC-PVTZ
  Basis Set:

    Orbital Energies (a.u.)
    -----------------------

    Doubly Occupied:

       1A    -20.609479     2A    -20.548789     3A    -11.372537
       4A    -11.287325     5A     -1.482457     6A     -1.380153
       7A     -0.998975     8A     -0.819762     9A     -0.748201
      10A     -0.685431    11A     -0.683932    12A     -0.602794
      13A     -0.560385    14A     -0.535241    15A     -0.469791
      16A     -0.462305

  @DF-RHF Final Energy:  -227.87818714693697

   => Energetics <=

    Nuclear Repulsion Energy =            123.9866524325839094
    One-Electron Energy =                -557.2345687456238466
    Two-Electron Energy =                 205.3697291661029567
    DFT Exchange-Correlation Energy =       0.0000000000000000
    Empirical Dispersion Energy =           0.0000000000000000
    PCM Polarization Energy =               0.0000000000000000
    EFP Energy =                            0.0000000000000000
    Total Energy =                       -227.8781871469369662
    Molecular point group: c1
  Basis Set: CC-PVTZ
  Basis Set:

  -Total Gradient:
     Atom            X                  Y                   Z
    ------   -----------------  -----------------  -----------------
       1       -0.000000230308    -0.000041594739    -0.000015341946
       2        0.000474905510     0.000571044171    -0.002693002390
       3       -0.000565689336    -0.000836107777     0.006023356878
       4       -0.000009574405    -0.000034094933    -0.000009627970
       5       -0.000004474535    -0.000008794870    -0.000012398672
       6        0.000167102347     0.000232171152    -0.006951142517
       7       -0.000025267249     0.000092313240     0.003693090574
       8       -0.000036772027     0.000025063757    -0.000034933957

  **** Optimization is complete! (in 6 steps) ****
    Final optimized geometry and variables:
    Molecular point group: c1

    Geometry (in Angstrom), charge = 0, multiplicity = 1:

    H            1.634433060894    -1.764601920441    -0.137539447792
    C            0.654844836745    -1.316306273745    -0.141693194099
    O            0.857630087387     0.067846572417     0.082502854346
    H            0.044524566329    -1.743785178075     0.639540540033
    H            0.174228395781    -1.475546076264    -1.095613408332
    C           -0.201019593858     0.844264464469     0.050680176615
    O           -1.321078983692     0.481454943626     0.017512144001
    H            0.098464858547     1.886640451467     0.089978120398

  Mulliken Charges: (a.u.)
   Center  Symbol    Alpha    Beta     Spin     Total
       1     H     0.44433  0.44433  0.00000  0.11134
       2     C     3.02770  3.02770  0.00000 -0.05541
       3     O     4.14045  4.14045  0.00000 -0.28089
       4     H     0.45196  0.45196  0.00000  0.09609
       5     H     0.45501  0.45501  0.00000  0.08998
       6     C     2.83789  2.83789  0.00000  0.32422
       7     O     4.19398  4.19398  0.00000 -0.38796
       8     H     0.44869  0.44869  0.00000  0.10262

   Total alpha = 16.00000, Total beta = 16.00000, Total charge = -0.00000

*** Psi4 exiting successfully. Buy a developer a beer!
