  ==> Input File <==

--------------------------------------------------------------------------
set {
	reference rhf
	basis 6-31G*
}

set_num_threads( 1 )
memory 2 gb

molecule MOL {
0 1

H	 -0.000158	 1.970498	 0.756846
O	 -0.000074	 1.880206	 -0.189275
C	 -0.000015	 0.544847	 -0.545111
C	 -1.278788	 -0.123820	 -0.051541
C	 1.278802	 -0.123718	 -0.051505
H	 -0.000001	 0.490777	 -1.623619
F	 -1.207207	 -1.421462	 -0.257804
F	 -1.481001	 0.073853	 1.233914
F	 -2.332386	 0.332229	 -0.709985
F	 2.323327	 0.466644	 -0.591854
F	 1.326242	 -1.401483	 -0.363667
F	 1.388946	 -0.015632	 1.262939

	symmetry c1
}
set optking {
	frozen_dihedral = ("
		6 3 2 1
	")
}

ee = energy('scf')
oeprop('DIPOLE', 'QUADRUPOLE', 'MULLIKEN_CHARGES')
f=open( 'psi4out.xyz', 'w' )
f.write( "12  " )
f.write( str(ee) + "\n" )
f.write( MOL.save_string_xyz() )
f.close()
--------------------------------------------------------------------------

    Molecular point group: c1

    Geometry (in Angstrom), charge = 0, multiplicity = 1:

       Center              X                  Y                   Z               Mass
    ------------   -----------------  -----------------  -----------------  -----------------
           H         -0.002176526964     1.977795891678     0.761503566831     1.007825032070
           O         -0.002092526964     1.887503891678    -0.184617433169    15.994914619560
           C         -0.002033526964     0.552144891678    -0.540453433169    12.000000000000
           C         -1.280806526964    -0.116522108322    -0.046883433169    12.000000000000
           C          1.276783473036    -0.116420108322    -0.046847433169    12.000000000000
           H         -0.002019526964     0.498074891678    -1.618961433169     1.007825032070
           F         -1.209225526964    -1.414164108322    -0.253146433169    18.998403224000
           F         -1.483019526964     0.081150891678     1.238571566831    18.998403224000
           F         -2.334404526964     0.339526891678    -0.705327433169    18.998403224000
           F          2.321308473036     0.473941891678    -0.587196433169    18.998403224000
           F          1.324223473036    -1.394185108322    -0.359009433169    18.998403224000
           F          1.386927473036    -0.008334108322     1.267596566831    18.998403224000

  Charge       = 0
  Multiplicity = 1
  Basis Set: 6-31G*
  Basis Set:

    Orbital Energies (a.u.)
    -----------------------

    Doubly Occupied:

       1A    -26.366723     2A    -26.363464     3A    -26.360066
       4A    -26.358943     5A    -26.358315     6A    -26.357654
       7A    -20.616574     8A    -11.525923     9A    -11.525847
      10A    -11.349134    11A     -1.765116    12A     -1.758673
      13A     -1.663449    14A     -1.657921    15A     -1.657362
      16A     -1.653289    17A     -1.435343    18A     -1.101782
      19A     -0.996901    20A     -0.938943    21A     -0.863585
      22A     -0.862945    23A     -0.851846    24A     -0.844376
      25A     -0.832134    26A     -0.816515    27A     -0.744360
      28A     -0.726643    29A     -0.724123    30A     -0.717591
      31A     -0.689625    32A     -0.686290    33A     -0.683071
      34A     -0.674814    35A     -0.668509    36A     -0.663076
      37A     -0.655338    38A     -0.653511    39A     -0.622351
      40A     -0.551054    41A     -0.505372

  @DF-RHF Final Energy:  -786.27698993065985

   => Energetics <=

    Nuclear Repulsion Energy =            670.8263122524878099
    One-Electron Energy =               -2428.5098304435805403
    Two-Electron Energy =                 971.4065282604328786
    DFT Exchange-Correlation Energy =       0.0000000000000000
    Empirical Dispersion Energy =           0.0000000000000000
    PCM Polarization Energy =               0.0000000000000000
    EFP Energy =                            0.0000000000000000
    Total Energy =                       -786.2769899306599655

  Mulliken Charges: (a.u.)
   Center  Symbol    Alpha    Beta     Spin     Total
       1     H     0.26569  0.26569  0.00000  0.46861
       2     O     4.36375  4.36375  0.00000 -0.72749
       3     C     3.04833  3.04833  0.00000 -0.09666
       4     C     2.44350  2.44350  0.00000  1.11301
       5     C     2.44578  2.44578  0.00000  1.10845
       6     H     0.37420  0.37420  0.00000  0.25161
       7     F     4.67512  4.67512  0.00000 -0.35023
       8     F     4.67677  4.67677  0.00000 -0.35353
       9     F     4.67775  4.67775  0.00000 -0.35550
      10     F     4.67488  4.67488  0.00000 -0.34976
      11     F     4.67317  4.67317  0.00000 -0.34634
      12     F     4.68108  4.68108  0.00000 -0.36217

   Total alpha = 41.00000, Total beta = 41.00000, Total charge = -0.00000
