  ==> Input File <==

--------------------------------------------------------------------------
set {
	reference rhf
	basis 6-31G*
}

set_num_threads( 1 )
memory 2 gb

molecule MOL {
0 1

H	 1.142599	 1.208813	 1.756097
O	 1.363409	 0.480756	 1.191271
C	 0.709265	 0.639550	 -0.033818
C	 -0.793441	 0.596080	 0.058728
H	 1.058382	 -0.166052	 -0.669684
H	 1.010633	 1.568997	 -0.515824
C	 -1.530462	 -0.493172	 -0.025500
H	 -1.268471	 1.554324	 0.202247
H	 -1.092586	 -1.461565	 -0.186463
H	 -2.602122	 -0.450675	 0.050101

	symmetry c1
}
set optking {
	frozen_dihedral = ("
		5 3 2 1,
		3 4 7 9
	")
}

ee = energy('scf')
oeprop('DIPOLE', 'QUADRUPOLE', 'MULLIKEN_CHARGES')
f=open( 'psi4out.xyz', 'w' )
f.write( "10  " )
f.write( str(ee) + "\n" )
f.write( MOL.save_string_xyz() )
f.close()
--------------------------------------------------------------------------

    Molecular point group: c1

    Geometry (in Angstrom), charge = 0, multiplicity = 1:

       Center              X                  Y                   Z               Mass
    ------------   -----------------  -----------------  -----------------  -----------------
           H          1.131112747854     0.883692061520     1.416882324059     1.007825032070
           O          1.351922747854     0.155635061520     0.852056324059    15.994914619560
           C          0.697778747854     0.314429061520    -0.373032675941    12.000000000000
           C         -0.804927252146     0.270959061520    -0.280486675941    12.000000000000
           H          1.046895747854    -0.491172938480    -1.008898675941     1.007825032070
           H          0.999146747854     1.243876061520    -0.855038675941     1.007825032070
           C         -1.541948252146    -0.818292938480    -0.364714675941    12.000000000000
           H         -1.279957252146     1.229203061520    -0.136967675941     1.007825032070
           H         -1.104072252146    -1.786685938480    -0.525677675941     1.007825032070
           H         -2.613608252146    -0.775795938480    -0.289113675941     1.007825032070

  Charge       = 0
  Multiplicity = 1
  Basis Set: 6-31G*
  Basis Set:

    Orbital Energies (a.u.)
    -----------------------

    Doubly Occupied:

       1A    -20.556406     2A    -11.274136     3A    -11.229038
       4A    -11.226322     5A     -1.365056     6A     -1.060874
       7A     -0.921111     8A     -0.778501     9A     -0.684197
      10A     -0.655632    11A     -0.612510    12A     -0.574060
      13A     -0.546882    14A     -0.477952    15A     -0.439600
      16A     -0.373105

  @DF-RHF Final Energy:  -191.91271150694445

   => Energetics <=

    Nuclear Repulsion Energy =            117.7626071399482868
    One-Electron Energy =                -493.7998558073059030
    Two-Electron Energy =                 184.1245371604130980
    DFT Exchange-Correlation Energy =       0.0000000000000000
    Empirical Dispersion Energy =           0.0000000000000000
    PCM Polarization Energy =               0.0000000000000000
    EFP Energy =                            0.0000000000000000
    Total Energy =                       -191.9127115069445324

  Mulliken Charges: (a.u.)
   Center  Symbol    Alpha    Beta     Spin     Total
       1     H     0.28318  0.28318  0.00000  0.43363
       2     O     4.36166  4.36166  0.00000 -0.72333
       3     C     3.00944  3.00944  0.00000 -0.01887
       4     C     3.08976  3.08976  0.00000 -0.17951
       5     H     0.41202  0.41202  0.00000  0.17596
       6     H     0.42854  0.42854  0.00000  0.14292
       7     C     3.18523  3.18523  0.00000 -0.37047
       8     H     0.41234  0.41234  0.00000  0.17533
       9     H     0.40826  0.40826  0.00000  0.18349
      10     H     0.40957  0.40957  0.00000  0.18085

   Total alpha = 16.00000, Total beta = 16.00000, Total charge = -0.00000
