  ==> Input File <==

--------------------------------------------------------------------------
set {
	reference rhf
	basis 6-31G*
}

set_num_threads( 4 )
memory 2 gb

molecule MOL {
0 1

H	 -2.948938	 1.747469	 1.316895
C	 -2.650465	 0.727987	 1.167795
C	 -1.578715	 0.456948	 0.459353
H	 -3.244615	 -0.050522	 1.608046
O	 -1.180634	 -0.819263	 0.215062
H	 -0.966198	 1.222177	 0.016134
C	 0.051604	 -1.018856	 -0.387932
C	 1.043764	 0.054862	 -0.001873
H	 -0.017620	 -1.041351	 -1.469781
H	 0.437898	 -1.966374	 -0.042284
F	 2.212596	 -0.199467	 -0.571921
F	 0.652529	 1.252447	 -0.405055
F	 1.230877	 0.110694	 1.300533

	symmetry c1
}
set optking {
	frozen_dihedral = ("
		3 5 7 9
	")
}

ee = optimize('scf')
oeprop('DIPOLE', 'QUADRUPOLE', 'MULLIKEN_CHARGES')
f=open( 'psi4out.xyz', 'w' )
f.write( "13  " )
f.write( str(ee) + "\n" )
f.write( MOL.save_string_xyz() )
f.close()
--------------------------------------------------------------------------

    Molecular point group: c1
  Charge       = 0
  Multiplicity = 1
  Basis Set: 6-31G*
  Basis Set:
  @DF-RHF Final Energy:  -527.51152938956329
    Total Energy =                       -527.5115293895634068
    Molecular point group: c1
  Basis Set: 6-31G*
  Basis Set:
  Basis Set: 6-31G*
  Basis Set:
  @DF-RHF Final Energy:  -527.52419211854567
    Total Energy =                       -527.5241921185454430
  Basis Set: 6-31G*
  Basis Set:
  Basis Set: 6-31G*
  Basis Set:
  @DF-RHF Final Energy:  -527.52787003044079
    Total Energy =                       -527.5278700304411359
  Basis Set: 6-31G*
  Basis Set:
  Basis Set: 6-31G*
  Basis Set:
  @DF-RHF Final Energy:  -527.52858439017132
    Total Energy =                       -527.5285843901712042
  Basis Set: 6-31G*
  Basis Set:
  Basis Set: 6-31G*
  Basis Set:
  @DF-RHF Final Energy:  -527.52880337285364
    Total Energy =                       -527.5288033728536448
  Basis Set: 6-31G*
  Basis Set:
  Basis Set: 6-31G*
  Basis Set:
  @DF-RHF Final Energy:  -527.52885678747987
    Total Energy =                       -527.5288567874796399
  Basis Set: 6-31G*
  Basis Set:
  Basis Set: 6-31G*
  Basis Set:
  @DF-RHF Final Energy:  -527.52886890315460
    Total Energy =                       -527.5288689031542617
  Basis Set: 6-31G*
  Basis Set:
  Charge       = 0
  Multiplicity = 1
  Basis Set: 6-31G*
  Basis Set:

    Orbital Energies (a.u.)
    -----------------------

    Doubly Occupied:

       1A    -26.348400     2A    -26.348013     3A    -26.345821
       4A    -20.602048     5A    -11.509849     6A    -11.317520
       7A    -11.294614     8A    -11.216506     9A     -1.746711
      10A     -1.643769    11A     -1.643413    12A     -1.428984
      13A     -1.082319    14A     -1.018877    15A     -0.928793
      16A     -0.839550    17A     -0.835508    18A     -0.832260
      19A     -0.771530    20A     -0.721250    21A     -0.715699
      22A     -0.695331    23A     -0.678460    24A     -0.662663
      25A     -0.657074    26A     -0.647676    27A     -0.638797
      28A     -0.593014    29A     -0.560560    30A     -0.524293
      31A     -0.489117    32A     -0.353978

  @DF-RHF Final Energy:  -527.52886962817036

   => Energetics <=

    Nuclear Repulsion Energy =            416.9873297617816661
    One-Electron Energy =               -1557.6476064149242120
    Two-Electron Energy =                 613.1314070249723045
    DFT Exchange-Correlation Energy =       0.0000000000000000
    Empirical Dispersion Energy =           0.0000000000000000
    PCM Polarization Energy =               0.0000000000000000
    EFP Energy =                            0.0000000000000000
    Total Energy =                       -527.5288696281702414
    Molecular point group: c1
  Basis Set: 6-31G*
  Basis Set:

  -Total Gradient:
     Atom            X                  Y                   Z
    ------   -----------------  -----------------  -----------------
       1       -0.000001633783     0.000008253234    -0.000002416026
       2        0.000007885095    -0.000030281447    -0.000008082935
       3        0.001680563782    -0.000141067118     0.004490343559
       4        0.000002659819     0.000009639152     0.000001256186
       5       -0.002814791727    -0.001282805447    -0.006734934090
       6        0.000005610265    -0.000003287934    -0.000018234996
       7        0.001799120947     0.006923126311     0.002214618881
       8       -0.000071781909     0.000046351337    -0.000017242689
       9       -0.000718859881    -0.005462341752     0.000050933465
      10        0.000015260750    -0.000005849269    -0.000000598227
      11        0.000061204431     0.000010992733    -0.000024617439
      12        0.000003667633    -0.000082085583     0.000056292534
      13        0.000031094587     0.000009355786    -0.000007318220

  **** Optimization is complete! (in 8 steps) ****
    Final optimized geometry and variables:
    Molecular point group: c1

    Geometry (in Angstrom), charge = 0, multiplicity = 1:

    H           -3.186634826721     1.605893059654     1.177609164159
    C           -2.761630343068     0.629906733342     1.043003740799
    C           -1.886745358033     0.421758850330     0.086459495558
    H           -3.075430052240    -0.161124241387     1.698033852695
    O           -1.388691662640    -0.821868853345    -0.158515389159
    H           -1.561966907352     1.197345694717    -0.581816919691
    C           -0.102310967991    -1.003731517508    -0.657525575541
    C            0.966677008763    -0.049932478749    -0.166907481149
    H           -0.095663858421    -1.013937166325    -1.742000144742
    H            0.206118289263    -1.986182923485    -0.329383186841
    F            2.145692832726    -0.508578702437    -0.557563773828
    F            0.842806230325     1.173028162394    -0.659926230842
    F            0.979942703211     0.047742502240     1.146478487968

  Mulliken Charges: (a.u.)
   Center  Symbol    Alpha    Beta     Spin     Total
       1     H     0.40719  0.40719  0.00000  0.18562
       2     C     3.22600  3.22600  0.00000 -0.45200
       3     C     2.91245  2.91245  0.00000  0.17510
       4     H     0.40269  0.40269  0.00000  0.19462
       5     O     4.30988  4.30988  0.00000 -0.61976
       6     H     0.39848  0.39848  0.00000  0.20304
       7     C     3.03963  3.03963  0.00000 -0.07925
       8     C     2.47052  2.47052  0.00000  1.05896
       9     H     0.40441  0.40441  0.00000  0.19119
      10     H     0.39293  0.39293  0.00000  0.21414
      11     F     4.68147  4.68147  0.00000 -0.36294
      12     F     4.68015  4.68015  0.00000 -0.36029
      13     F     4.67421  4.67421  0.00000 -0.34842

   Total alpha = 32.00000, Total beta = 32.00000, Total charge = -0.00000
