  ==> Input File <==

--------------------------------------------------------------------------
set {
	reference rhf
	basis 6-31G*
}

set_num_threads( 4 )
memory 2 gb

molecule MOL {
0 1

H	 5.268524	 0.192471	 1.070992
C	 4.673736	 -0.214914	 0.259335
C	 3.185378	 -0.203514	 0.605509
H	 4.871837	 0.380453	 -0.627026
H	 5.025590	 -1.224632	 0.065769
C	 2.317601	 -0.778379	 -0.516234
H	 2.874655	 0.814325	 0.817774
H	 3.023650	 -0.778480	 1.515976
C	 1.255031	 0.192495	 -1.031613
H	 2.948086	 -1.082566	 -1.344245
H	 1.816204	 -1.673215	 -0.154419
C	 1.808907	 1.356593	 -1.839908
H	 0.560729	 -0.335040	 -1.683857
H	 0.652528	 0.579694	 -0.212930
C	 0.903739	 2.557488	 -2.052593
O	 2.907055	 1.326586	 -2.308499
C	 -0.374648	 2.235951	 -2.840947
H	 1.487641	 3.305684	 -2.575064
H	 0.634169	 2.964071	 -1.079604
C	 -1.213828	 3.484085	 -3.121215
H	 -0.105370	 1.764725	 -3.783842
H	 -0.979306	 1.516438	 -2.294907
C	 -2.488900	 3.177043	 -3.905321
H	 -0.613550	 4.203191	 -3.673134
H	 -1.474068	 3.961106	 -2.178813
H	 -2.259021	 2.728423	 -4.867414
H	 -3.127462	 2.486024	 -3.362326
H	 -3.061466	 4.080304	 -4.090160

	symmetry c1
}
set optking {
	frozen_dihedral = ("
		10 6 3 2
	")
}

ee = optimize('scf')
oeprop('DIPOLE', 'QUADRUPOLE', 'MULLIKEN_CHARGES')
f=open( 'psi4out.xyz', 'w' )
f.write( "28  " )
f.write( str(ee) + "\n" )
f.write( MOL.save_string_xyz() )
f.close()
--------------------------------------------------------------------------

    Molecular point group: c1
  Charge       = 0
  Multiplicity = 1
  Basis Set: 6-31G*
  Basis Set:
  @DF-RHF Final Energy:  -426.16347017653277
    Total Energy =                       -426.1634701765327691
    Molecular point group: c1
  Basis Set: 6-31G*
  Basis Set:
  Basis Set: 6-31G*
  Basis Set:
  @DF-RHF Final Energy:  -426.16386700178941
    Total Energy =                       -426.1638670017888444
  Basis Set: 6-31G*
  Basis Set:
  Basis Set: 6-31G*
  Basis Set:
  @DF-RHF Final Energy:  -426.16382015320903
    Total Energy =                       -426.1638201532084622
  Basis Set: 6-31G*
  Basis Set:
  Basis Set: 6-31G*
  Basis Set:
  @DF-RHF Final Energy:  -426.16397374256655
    Total Energy =                       -426.1639737425668955
  Basis Set: 6-31G*
  Basis Set:
  @DF-RHF Final Energy:  -426.16398774251184
    Total Energy =                       -426.1639877425113809
  Basis Set: 6-31G*
  Basis Set:
  @DF-RHF Final Energy:  -426.16396814285986
    Total Energy =                       -426.1639681428601989
  Basis Set: 6-31G*
  Basis Set:
  Basis Set: 6-31G*
  Basis Set:
  @DF-RHF Final Energy:  -426.16399410009592
    Total Energy =                       -426.1639941000962608
  Basis Set: 6-31G*
  Basis Set:
  Basis Set: 6-31G*
  Basis Set:
  @DF-RHF Final Energy:  -426.16399752253005
    Total Energy =                       -426.1639975225293711
  Basis Set: 6-31G*
  Basis Set:
  Charge       = 0
  Multiplicity = 1
  Basis Set: 6-31G*
  Basis Set:

    Orbital Energies (a.u.)
    -----------------------

    Doubly Occupied:

       1A    -20.549381     2A    -11.322673     3A    -11.232783
       4A    -11.230463     5A    -11.229290     6A    -11.226347
       7A    -11.216530     8A    -11.216403     9A    -11.212216
      10A    -11.197097    11A     -1.394176    12A     -1.095171
      13A     -1.074257    14A     -1.021496    15A     -0.988651
      16A     -0.906685    17A     -0.872503    18A     -0.809559
      19A     -0.797591    20A     -0.723209    21A     -0.668450
      22A     -0.651601    23A     -0.628870    24A     -0.622557
      25A     -0.602984    26A     -0.590216    27A     -0.577579
      28A     -0.566057    29A     -0.545723    30A     -0.526992
      31A     -0.524260    32A     -0.503644    33A     -0.502736
      34A     -0.484869    35A     -0.478138    36A     -0.473959
      37A     -0.466921    38A     -0.459078    39A     -0.453944
      40A     -0.393247

  @DF-RHF Final Energy:  -426.16399829045486

   => Energetics <=

    Nuclear Repulsion Energy =            536.0617021009122709
    One-Electron Energy =               -1640.3747855250019256
    Two-Electron Energy =                 678.1490851336350261
    DFT Exchange-Correlation Energy =       0.0000000000000000
    Empirical Dispersion Energy =           0.0000000000000000
    PCM Polarization Energy =               0.0000000000000000
    EFP Energy =                            0.0000000000000000
    Total Energy =                       -426.1639982904546287
    Molecular point group: c1
  Basis Set: 6-31G*
  Basis Set:

  -Total Gradient:
     Atom            X                  Y                   Z
    ------   -----------------  -----------------  -----------------
       1       -0.000032509258     0.000009673864     0.000005716843
       2       -0.000052995948     0.001161465620    -0.000568169963
       3        0.000148581442    -0.002057739711     0.000919986508
       4       -0.000006706352    -0.000021701248    -0.000017444941
       5        0.000019291256    -0.000007953630     0.000013627795
       6       -0.000181022050     0.002530687523    -0.001136350603
       7       -0.000033631172     0.000010591414     0.000001969885
       8       -0.000041279756    -0.000017413511    -0.000026542419
       9        0.000037445137     0.000072594625     0.000064665937
      10        0.000169024809    -0.001618146553     0.000730741632
      11        0.000009888050     0.000002515967     0.000007074105
      12        0.000024742168     0.000000619513    -0.000017081632
      13        0.000031197052    -0.000019225228    -0.000012634908
      14       -0.000004042509     0.000015852765     0.000003452314
      15       -0.000033842938    -0.000021309894    -0.000053525302
      16       -0.000054562314    -0.000053554895     0.000045453027
      17        0.000001860980     0.000019065379     0.000024693751
      18        0.000000197692     0.000002313286     0.000004227932
      19        0.000007440404    -0.000005134892     0.000013970158
      20       -0.000000109427    -0.000002282706    -0.000002640648
      21       -0.000000466969    -0.000005766714     0.000001661267
      22       -0.000006708546     0.000001139049    -0.000000033906
      23        0.000000446216     0.000003464997    -0.000002439240
      24       -0.000000217160     0.000001447211     0.000001046993
      25       -0.000000893611    -0.000001192965    -0.000000522428
      26       -0.000000313255    -0.000000640211     0.000000186730
      27        0.000000260220     0.000000536710     0.000000645620
      28       -0.000001074164     0.000000094237    -0.000001734507

  **** Optimization is complete! (in 9 steps) ****
    Final optimized geometry and variables:
    Molecular point group: c1

    Geometry (in Angstrom), charge = 0, multiplicity = 1:

    H            4.052348944280    -1.200631044676     2.656763175004
    C            3.424873147581    -1.603090969361     1.866775610276
    C            1.947121368697    -1.535356210641     2.252050216281
    H            3.608855978246    -1.037240315734     0.961535333590
    H            3.735332227044    -2.629863488725     1.691218491485
    C            0.998557819782    -2.091783181155     1.164549600682
    H            1.694150494993    -0.499811717563     2.466415249976
    H            1.791744073588    -2.075683607158     3.181706407673
    C           -0.065697231103    -1.103764350463     0.688881742723
    H            1.573195138873    -2.434128292307     0.311641107306
    H            0.482951761754    -2.967928797832     1.547778521949
    C            0.482406921377     0.078545682338    -0.094156914740
    H           -0.776744705925    -1.611707850300     0.039207420032
    H           -0.649309856506    -0.731430912057     1.528180090059
    C           -0.444533348132     1.259517262561    -0.325823949794
    O            1.595655283639     0.081028588419    -0.527135296771
    C           -1.681642049157     0.919146754085    -1.170270806355
    H            0.140875807845     2.029368352009    -0.813993306975
    H           -0.763327716497     1.645417144996     0.640623497929
    C           -2.533435224874     2.152759395511    -1.475635808861
    H           -1.363359663814     0.461880138613    -2.104709509300
    H           -2.294139227459     0.183048357337    -0.656112290014
    C           -3.768239600707     1.827191730439    -2.314780753440
    H           -1.925301715897     2.888348688485    -1.996321253479
    H           -2.842327096809     2.616346557450    -0.541243144135
    H           -3.489435338557     1.391247144996    -3.269733580828
    H           -4.414953971035     1.119237325404    -1.804236102573
    H           -4.350559827347     2.720534317381    -2.516648536606

  Mulliken Charges: (a.u.)
   Center  Symbol    Alpha    Beta     Spin     Total
       1     H     0.42414  0.42414  0.00000  0.15172
       2     C     3.24334  3.24334  0.00000 -0.48669
       3     C     3.15340  3.15340  0.00000 -0.30680
       4     H     0.40288  0.40288  0.00000  0.19425
       5     H     0.42527  0.42527  0.00000  0.14947
       6     C     3.15176  3.15176  0.00000 -0.30353
       7     H     0.42449  0.42449  0.00000  0.15101
       8     H     0.42208  0.42208  0.00000  0.15583
       9     C     3.21263  3.21263  0.00000 -0.42526
      10     H     0.40643  0.40643  0.00000  0.18714
      11     H     0.41956  0.41956  0.00000  0.16087
      12     C     2.73104  2.73104  0.00000  0.53793
      13     H     0.40442  0.40442  0.00000  0.19115
      14     H     0.41229  0.41229  0.00000  0.17542
      15     C     3.20186  3.20186  0.00000 -0.40372
      16     O     4.26611  4.26611  0.00000 -0.53222
      17     C     3.16376  3.16376  0.00000 -0.32751
      18     H     0.39967  0.39967  0.00000  0.20066
      19     H     0.41299  0.41299  0.00000  0.17402
      20     C     3.15182  3.15182  0.00000 -0.30365
      21     H     0.41370  0.41370  0.00000  0.17260
      22     H     0.41869  0.41869  0.00000  0.16262
      23     C     3.24035  3.24035  0.00000 -0.48070
      24     H     0.41833  0.41833  0.00000  0.16333
      25     H     0.42139  0.42139  0.00000  0.15723
      26     H     0.41958  0.41958  0.00000  0.16084
      27     H     0.42117  0.42117  0.00000  0.15765
      28     H     0.41683  0.41683  0.00000  0.16634

   Total alpha = 40.00000, Total beta = 40.00000, Total charge =  0.00000
