  ==> Input File <==

--------------------------------------------------------------------------
set {
	reference rhf
	basis 6-31G*
}

set_num_threads( 1 )
memory 2 gb

molecule MOL {
0 1

H	 1.136379	 0.211822	 1.465562
C	 1.135357	 0.094285	 0.374742
C	 0.065331	 0.871482	 -0.349150
O	 1.941633	 -0.601957	 -0.151457
C	 -0.601545	 1.924607	 0.547335
H	 -0.660331	 0.169103	 -0.742838
H	 0.542884	 1.368538	 -1.192382
C	 -1.418931	 1.317188	 1.688100
H	 -1.245231	 2.543776	 -0.069356
H	 0.159342	 2.588115	 0.952856
H	 -2.207352	 0.677781	 1.303291
H	 -1.882114	 2.094133	 2.287379
H	 -0.802591	 0.714785	 2.348876

	symmetry c1
}
set optking {
	frozen_dihedral = ("
		6 3 5 9
	")
}

ee = energy('scf')
oeprop('DIPOLE', 'QUADRUPOLE', 'MULLIKEN_CHARGES')
f=open( 'psi4out.xyz', 'w' )
f.write( "13  " )
f.write( str(ee) + "\n" )
f.write( MOL.save_string_xyz() )
f.close()
--------------------------------------------------------------------------

    Molecular point group: c1

    Geometry (in Angstrom), charge = 0, multiplicity = 1:

       Center              X                  Y                   Z               Mass
    ------------   -----------------  -----------------  -----------------  -----------------
           H          0.911267439577    -0.500271341212     1.033783500078     1.007825032070
           C          0.910245439577    -0.617808341212    -0.057036499922    12.000000000000
           C         -0.159780560423     0.159388658788    -0.780928499922    12.000000000000
           O          1.716521439577    -1.314050341212    -0.583235499922    15.994914619560
           C         -0.826656560423     1.212513658788     0.115556500078    12.000000000000
           H         -0.885442560423    -0.542990341212    -1.174616499922     1.007825032070
           H          0.317772439577     0.656444658788    -1.624160499922     1.007825032070
           C         -1.644042560423     0.605094658788     1.256321500078    12.000000000000
           H         -1.470342560423     1.831682658788    -0.501134499922     1.007825032070
           H         -0.065769560423     1.876021658788     0.521077500078     1.007825032070
           H         -2.432463560423    -0.034312341212     0.871512500078     1.007825032070
           H         -2.107225560423     1.382039658788     1.855600500078     1.007825032070
           H         -1.027702560423     0.002691658788     1.917097500078     1.007825032070

  Charge       = 0
  Multiplicity = 1
  Basis Set: 6-31G*
  Basis Set:

    Orbital Energies (a.u.)
    -----------------------

    Doubly Occupied:

       1A    -20.561821     2A    -11.327029     3A    -11.237524
       4A    -11.236341     5A    -11.225463     6A     -1.402208
       7A     -1.089053     8A     -0.973005     9A     -0.851150
      10A     -0.789966    11A     -0.664574    12A     -0.651950
      13A     -0.621698    14A     -0.591046    15A     -0.581211
      16A     -0.525521    17A     -0.508822    18A     -0.492286
      19A     -0.485270    20A     -0.408568

  @DF-RHF Final Energy:  -230.98175352364345

   => Energetics <=

    Nuclear Repulsion Energy =            172.7121089291248097
    One-Electron Energy =                -654.9387324600924103
    Two-Electron Energy =                 251.2448700073239252
    DFT Exchange-Correlation Energy =       0.0000000000000000
    Empirical Dispersion Energy =           0.0000000000000000
    PCM Polarization Energy =               0.0000000000000000
    EFP Energy =                            0.0000000000000000
    Total Energy =                       -230.9817535236436470

  Mulliken Charges: (a.u.)
   Center  Symbol    Alpha    Beta     Spin     Total
       1     H     0.43016  0.43016  0.00000  0.13967
       2     C     2.83400  2.83400  0.00000  0.33201
       3     C     3.20633  3.20633  0.00000 -0.41266
       4     O     4.24111  4.24111  0.00000 -0.48221
       5     C     3.16846  3.16846  0.00000 -0.33691
       6     H     0.39930  0.39930  0.00000  0.20139
       7     H     0.39750  0.39750  0.00000  0.20500
       8     C     3.24531  3.24531  0.00000 -0.49062
       9     H     0.41148  0.41148  0.00000  0.17703
      10     H     0.41666  0.41666  0.00000  0.16668
      11     H     0.41744  0.41744  0.00000  0.16512
      12     H     0.41328  0.41328  0.00000  0.17345
      13     H     0.41897  0.41897  0.00000  0.16205

   Total alpha = 20.00000, Total beta = 20.00000, Total charge =  0.00000
