  ==> Input File <==

--------------------------------------------------------------------------
set {
	reference rhf
	basis 6-31G*
}

set_num_threads( 4 )
memory 2 gb

molecule MOL {
0 1

H	 1.029928	 -0.944259	 -1.084703
O	 1.233834	 -0.021104	 -1.148415
C	 0.709265	 0.639550	 -0.033818
C	 -0.793441	 0.596080	 0.058728
H	 1.039801	 1.669232	 -0.109342
H	 1.135396	 0.242965	 0.887137
C	 -1.530462	 -0.493172	 -0.025500
H	 -1.268471	 1.554324	 0.202247
H	 -1.092586	 -1.461565	 -0.186463
H	 -2.602122	 -0.450675	 0.050101

	symmetry c1
}
set optking {
	frozen_dihedral = ("
		5 3 4 7
	")
}

ee = optimize('scf')
oeprop('DIPOLE', 'QUADRUPOLE', 'MULLIKEN_CHARGES')
f=open( 'psi4out.xyz', 'w' )
f.write( "10  " )
f.write( str(ee) + "\n" )
f.write( MOL.save_string_xyz() )
f.close()
--------------------------------------------------------------------------

    Molecular point group: c1
  Charge       = 0
  Multiplicity = 1
  Basis Set: 6-31G*
  Basis Set:
  @DF-RHF Final Energy:  -191.91067064110405
    Total Energy =                       -191.9106706411040477
    Molecular point group: c1
  Basis Set: 6-31G*
  Basis Set:
  Basis Set: 6-31G*
  Basis Set:
  @DF-RHF Final Energy:  -191.91092491667291
    Total Energy =                       -191.9109249166729683
  Basis Set: 6-31G*
  Basis Set:
  Basis Set: 6-31G*
  Basis Set:
  @DF-RHF Final Energy:  -191.91096209037335
    Total Energy =                       -191.9109620903733457
  Basis Set: 6-31G*
  Basis Set:
  Basis Set: 6-31G*
  Basis Set:
  @DF-RHF Final Energy:  -191.91096747768628
    Total Energy =                       -191.9109674776862562
  Basis Set: 6-31G*
  Basis Set:
  Basis Set: 6-31G*
  Basis Set:
  @DF-RHF Final Energy:  -191.91096962497355
    Total Energy =                       -191.9109696249734895
  Basis Set: 6-31G*
  Basis Set:
  Charge       = 0
  Multiplicity = 1
  Basis Set: 6-31G*
  Basis Set:

    Orbital Energies (a.u.)
    -----------------------

    Doubly Occupied:

       1A    -20.556922     2A    -11.277354     3A    -11.234356
       4A    -11.227299     5A     -1.364449     6A     -1.061228
       7A     -0.928091     8A     -0.770804     9A     -0.697301
      10A     -0.648480    11A     -0.623210    12A     -0.573700
      13A     -0.533710    14A     -0.499117    15A     -0.438560
      16A     -0.371018

  @DF-RHF Final Energy:  -191.91097004148082

   => Energetics <=

    Nuclear Repulsion Energy =            118.5020308191574969
    One-Electron Energy =                -495.2148015812963990
    Two-Electron Energy =                 184.8018007206579796
    DFT Exchange-Correlation Energy =       0.0000000000000000
    Empirical Dispersion Energy =           0.0000000000000000
    PCM Polarization Energy =               0.0000000000000000
    EFP Energy =                            0.0000000000000000
    Total Energy =                       -191.9109700414809367
    Molecular point group: c1
  Basis Set: 6-31G*
  Basis Set:

  -Total Gradient:
     Atom            X                  Y                   Z
    ------   -----------------  -----------------  -----------------
       1       -0.000000334761    -0.000017746560    -0.000001677661
       2       -0.000022243829     0.000029723526     0.000019347404
       3       -0.000035861174    -0.000118129969    -0.000527783043
       4       -0.000040877989     0.000108663021    -0.000812258985
       5        0.000038178921     0.000057233797     0.000673805505
       6        0.000009588079    -0.000004401757     0.000006352386
       7        0.000081493463    -0.000029798072     0.000655120151
       8       -0.000001931434     0.000000906450    -0.000000785823
       9       -0.000016152270    -0.000007451531    -0.000005971955
      10       -0.000011859011    -0.000018998904    -0.000006147978

  **** Optimization is complete! (in 6 steps) ****
    Final optimized geometry and variables:
    Molecular point group: c1

    Geometry (in Angstrom), charge = 0, multiplicity = 1:

    H            1.013026014778    -1.095844786428    -0.800909536061
    O            1.274444572766    -0.186625120971    -0.817089076020
    C            0.734354558245     0.483053505558     0.289808508473
    C           -0.779244466830     0.444283129567     0.369829246248
    H            1.067478779833     1.507886881476     0.204997275202
    H            1.155539034154     0.090248521977     1.213942345199
    C           -1.510973464023    -0.649077464969     0.291238289457
    H           -1.273193774379     1.390299560567     0.519901376044
    H           -1.080314730285    -1.627585446595     0.151585625477
    H           -2.583496902648    -0.616312899398     0.356361340056

  Mulliken Charges: (a.u.)
   Center  Symbol    Alpha    Beta     Spin     Total
       1     H     0.28050  0.28050  0.00000  0.43900
       2     O     4.36492  4.36492  0.00000 -0.72985
       3     C     3.00601  3.00601  0.00000 -0.01202
       4     C     3.08533  3.08533  0.00000 -0.17067
       5     H     0.41156  0.41156  0.00000  0.17688
       6     H     0.42225  0.42225  0.00000  0.15549
       7     C     3.19580  3.19580  0.00000 -0.39160
       8     H     0.40579  0.40579  0.00000  0.18842
       9     H     0.42066  0.42066  0.00000  0.15868
      10     H     0.40717  0.40717  0.00000  0.18565

   Total alpha = 16.00000, Total beta = 16.00000, Total charge = -0.00000
