                              Psi4 1.0.54 Driver

  ==> Input File <==

--------------------------------------------------------------------------
set {
	reference rhf
	basis cc-pvtz
}

set_num_threads( 4 )
memory 2 gb

molecule MOL {
0 1

H	 -2.816458	 -0.841657	 -0.064679
N	 -1.878861	 -0.711874	 0.250184
C	 -1.341419	 0.551458	 -0.220231
H	 -1.333674	 -1.468530	 -0.105118
C	 0.082190	 0.731516	 0.254705
H	 -1.357065	 0.652078	 -1.304747
H	 -1.939897	 1.357530	 0.189797
O	 0.154336	 0.381421	 1.603755
H	 0.749798	 0.101504	 -0.331432
H	 0.384467	 1.767440	 0.118992
C	 1.403374	 0.569000	 2.181629
H	 1.340117	 0.264302	 3.216300
H	 2.164524	 -0.030740	 1.687000
H	 1.707760	 1.612212	 2.141368

	symmetry c1
}
set optking {
	frozen_dihedral = ("
		8 5 3 6
	")
}

ee,wfn = optimize('scf', return_wfn=True)
oeprop( wfn, 'DIPOLE', 'QUADRUPOLE', 'MULLIKEN_CHARGES')
f=open( 'psi4out.xyz', 'w' )
f.write( "14  " )
f.write( str(ee) + "\n" )
f.write( MOL.save_string_xyz() )
f.close()
--------------------------------------------------------------------------

    Molecular point group: c1
  Charge       = 0
  Multiplicity = 1
  Basis Set: CC-PVTZ
  Basis Set:
  @DF-RHF Final Energy:  -248.21793689915896
    Total Energy =                       -248.2179368991589286
    Molecular point group: c1
  Basis Set: CC-PVTZ
  Basis Set:
  Basis Set: CC-PVTZ
  Basis Set:
  @DF-RHF Final Energy:  -248.21875768805884
    Total Energy =                       -248.2187576880590996
  Basis Set: CC-PVTZ
  Basis Set:
  Basis Set: CC-PVTZ
  Basis Set:
  @DF-RHF Final Energy:  -248.21907893313650
    Total Energy =                       -248.2190789331365295
  Basis Set: CC-PVTZ
  Basis Set:
  Basis Set: CC-PVTZ
  Basis Set:
  @DF-RHF Final Energy:  -248.21909594043777
    Total Energy =                       -248.2190959404379100
  Basis Set: CC-PVTZ
  Basis Set:
  Basis Set: CC-PVTZ
  Basis Set:
  @DF-RHF Final Energy:  -248.21910207807809
    Total Energy =                       -248.2191020780781514
  Basis Set: CC-PVTZ
  Basis Set:
  Basis Set: CC-PVTZ
  Basis Set:
  @DF-RHF Final Energy:  -248.21910461636745
    Total Energy =                       -248.2191046163673036
  Basis Set: CC-PVTZ
  Basis Set:
  Charge       = 0
  Multiplicity = 1
  Basis Set: CC-PVTZ
  Basis Set:

    Orbital Energies (a.u.)
    -----------------------

    Doubly Occupied:

       1A    -20.545657     2A    -15.523261     3A    -11.267505
       4A    -11.260865     5A    -11.242249     6A     -1.382560
       7A     -1.175399     8A     -0.999471     9A     -0.906987
      10A     -0.817110    11A     -0.684948    12A     -0.667192
      13A     -0.653762    14A     -0.614002    15A     -0.583102
      16A     -0.576279    17A     -0.516661    18A     -0.501216
      19A     -0.466966    20A     -0.415319    21A     -0.380794

  @DF-RHF Final Energy:  -248.21910528257104

   => Energetics <=

    Nuclear Repulsion Energy =            194.2926167690310990
    One-Electron Energy =                -722.6608363955274399
    Two-Electron Energy =                 280.1491143439251346
    DFT Exchange-Correlation Energy =       0.0000000000000000
    Empirical Dispersion Energy =           0.0000000000000000
    PCM Polarization Energy =               0.0000000000000000
    EFP Energy =                            0.0000000000000000
    Total Energy =                       -248.2191052825711495
    Molecular point group: c1
  Basis Set: CC-PVTZ
  Basis Set:

  -Total Gradient:
     Atom            X                  Y                   Z
    ------   -----------------  -----------------  -----------------
       1       -0.000019036677     0.000003748295    -0.000005976384
       2        0.000043795514     0.000032935508     0.000000019965
       3       -0.000874893587     0.004461086456     0.000266965411
       4        0.000006181536    -0.000010797622    -0.000001838047
       5       -0.001072910059     0.003935674820     0.001384942547
       6        0.000948972824    -0.004780943210    -0.000513811713
       7       -0.000003217742     0.000024227141    -0.000001292001
       8        0.000959161972    -0.003677905008    -0.001113199968
       9        0.000012254521     0.000002701703    -0.000025362143
      10        0.000007425545     0.000009025881     0.000006475589
      11       -0.000020031080    -0.000004202076     0.000009340315
      12        0.000001206283     0.000000696032     0.000000039650
      13        0.000005448535    -0.000000427423    -0.000004494053
      14        0.000005642414     0.000004179503    -0.000001809173

  **** Optimization is complete! (in 7 steps) ****
    Final optimized geometry and variables:
    Molecular point group: c1

    Geometry (in Angstrom), charge = 0, multiplicity = 1:

    H           -2.450044239174    -1.244953839834    -1.078930335180
    N           -1.577999934623    -1.064343878261    -0.629660233018
    C           -1.063078780882     0.238463680465    -1.012603982761
    H           -0.948245636100    -1.794555707981    -0.888588080108
    C            0.355029493498     0.462520121438    -0.518049217602
    H           -1.030396332895     0.359732043362    -2.096176485500
    H           -1.718469020853     0.997885899137    -0.604210451640
    O            0.483555579030     0.115895359250     0.819176787669
    H            1.043241705120    -0.138479900751    -1.116637446281
    H            0.623682746784     1.506157101013    -0.677486135876
    C            1.753344223584     0.319644287781     1.340216960902
    H            1.739731989882     0.009589542704     2.374896641156
    H            2.501774202682    -0.266350599972     0.809670603530
    H            2.043482723505     1.367554844717     1.292743113669

  Mulliken Charges: (a.u.)
   Center  Symbol    Alpha    Beta     Spin     Total
       1     H     0.43111  0.43111  0.00000  0.13778
       2     N     3.67766  3.67766  0.00000 -0.35532
       3     C     3.02474  3.02474  0.00000 -0.04948
       4     H     0.43366  0.43366  0.00000  0.13268
       5     C     2.97218  2.97218  0.00000  0.05564
       6     H     0.47073  0.47073  0.00000  0.05854
       7     H     0.45633  0.45633  0.00000  0.08734
       8     O     4.16340  4.16340  0.00000 -0.32680
       9     H     0.47749  0.47749  0.00000  0.04502
      10     H     0.46848  0.46848  0.00000  0.06303
      11     C     3.03163  3.03163  0.00000 -0.06327
      12     H     0.44575  0.44575  0.00000  0.10849
      13     H     0.47396  0.47396  0.00000  0.05208
      14     H     0.47287  0.47287  0.00000  0.05426

   Total alpha = 21.00000, Total beta = 21.00000, Total charge = -0.00000

*** Psi4 exiting successfully. Buy a developer a beer!
