  ==> Input File <==

--------------------------------------------------------------------------
set {
	reference rhf
	basis 6-31G*
}

set_num_threads( 4 )
memory 2 gb

molecule MOL {
0 1

O	 1.846825	 1.296220	 0.000415
C	 1.705091	 0.115954	 0.001797
C	 0.381791	 -0.609817	 0.001258
O	 2.721346	 -0.737485	 -0.000216
C	 -0.823008	 0.326187	 0.001381
H	 0.371250	 -1.265087	 -0.865474
H	 0.370908	 -1.265746	 0.867490
C	 -2.149452	 -0.435131	 -0.000098
H	 -0.770201	 0.977095	 -0.865636
H	 -0.771220	 0.975655	 0.869608
C	 -3.368779	 0.488503	 -0.000883
H	 -2.193746	 -1.087250	 -0.871175
H	 -2.195311	 -1.087803	 0.870418
C	 -4.191385	 0.389443	 -1.284923
H	 -3.041127	 1.516088	 0.140026
H	 -4.000269	 0.250374	 0.852143
H	 -3.596078	 0.655614	 -2.153816
H	 -5.048245	 1.055286	 -1.255006
H	 -4.562480	 -0.620354	 -1.436275
C	 4.024888	 -0.184556	 -0.001949
H	 4.179030	 0.422472	 -0.882452
H	 4.701782	 -1.024608	 -0.003642
H	 4.181981	 0.421185	 0.878906

	symmetry c1
}
set optking {
	frozen_dihedral = ("
		15 11 8 12
	")
}

ee = optimize('scf')
oeprop('DIPOLE', 'QUADRUPOLE', 'MULLIKEN_CHARGES')
f=open( 'psi4out.xyz', 'w' )
f.write( "23  " )
f.write( str(ee) + "\n" )
f.write( MOL.save_string_xyz() )
f.close()
--------------------------------------------------------------------------

    Molecular point group: c1
  Charge       = 0
  Multiplicity = 1
  Basis Set: 6-31G*
  Basis Set:
  @DF-RHF Final Energy:  -422.97051683116206
    Total Energy =                       -422.9705168311621719
    Molecular point group: c1
  Basis Set: 6-31G*
  Basis Set:
  Basis Set: 6-31G*
  Basis Set:
  @DF-RHF Final Energy:  -422.97072682371288
    Total Energy =                       -422.9707268237131075
  Basis Set: 6-31G*
  Basis Set:
  Basis Set: 6-31G*
  Basis Set:
  @DF-RHF Final Energy:  -422.97059887466338
    Total Energy =                       -422.9705988746635512
  Basis Set: 6-31G*
  Basis Set:
  Basis Set: 6-31G*
  Basis Set:
  @DF-RHF Final Energy:  -422.97085102210872
    Total Energy =                       -422.9708510221084907
  Basis Set: 6-31G*
  Basis Set:
  Basis Set: 6-31G*
  Basis Set:
  @DF-RHF Final Energy:  -422.97085593020006
    Total Energy =                       -422.9708559302002868
  Basis Set: 6-31G*
  Basis Set:
  Charge       = 0
  Multiplicity = 1
  Basis Set: 6-31G*
  Basis Set:

    Orbital Energies (a.u.)
    -----------------------

    Doubly Occupied:

       1A    -20.603625     2A    -20.545427     3A    -11.372293
       4A    -11.280846     5A    -11.235310     6A    -11.219619
       7A    -11.217612     8A    -11.216133     9A    -11.209560
      10A     -1.469323    11A     -1.362771    12A     -1.091852
      13A     -1.041816    14A     -0.986516    15A     -0.931357
      16A     -0.846094    17A     -0.793383    18A     -0.767578
      19A     -0.696674    20A     -0.683456    21A     -0.671953
      22A     -0.643825    23A     -0.613569    24A     -0.598039
      25A     -0.580872    26A     -0.564896    27A     -0.540474
      28A     -0.526985    29A     -0.521825    30A     -0.502456
      31A     -0.494283    32A     -0.468652    33A     -0.460676
      34A     -0.459025    35A     -0.454353    36A     -0.435253

  @DF-RHF Final Energy:  -422.97085631872767

   => Energetics <=

    Nuclear Repulsion Energy =            453.8398157080799820
    One-Electron Energy =               -1475.4045848662867684
    Two-Electron Energy =                 598.5939128394790032
    DFT Exchange-Correlation Energy =       0.0000000000000000
    Empirical Dispersion Energy =           0.0000000000000000
    PCM Polarization Energy =               0.0000000000000000
    EFP Energy =                            0.0000000000000000
    Total Energy =                       -422.9708563187277832
    Molecular point group: c1
  Basis Set: 6-31G*
  Basis Set:

  -Total Gradient:
     Atom            X                  Y                   Z
    ------   -----------------  -----------------  -----------------
       1        0.000000908288    -0.000013762552    -0.000016728771
       2        0.000002671224     0.000014810293     0.000067942965
       3       -0.000027987929    -0.000006001721     0.000013118320
       4       -0.000008914230     0.000003003037    -0.000012067553
       5        0.000010602031     0.000045864961    -0.000022060259
       6       -0.000016566115    -0.000005015399    -0.000003027362
       7        0.000022209151    -0.000001316267    -0.000000483355
       8       -0.000820912431    -0.001234038725     0.000595160423
       9        0.000007035033     0.000009056023    -0.000014726902
      10        0.000008949865     0.000025844486    -0.000014831852
      11       -0.000078510707     0.000115278700     0.001606026011
      12        0.000673535931     0.000927898668    -0.000741138846
      13        0.000002641233     0.000026543044    -0.000036909034
      14        0.000017273908    -0.000043641273    -0.000031729796
      15        0.000163731187     0.000136608286    -0.001346826895
      16        0.000023900691     0.000001465146    -0.000031080576
      17       -0.000002036979     0.000002169764    -0.000016069019
      18        0.000017824540     0.000002922075     0.000034452839
      19        0.000000248964    -0.000007649202    -0.000025628624
      20        0.000001546557     0.000000520608    -0.000001918516
      21        0.000002586463     0.000000179547    -0.000000088057
      22        0.000001874962    -0.000000097269    -0.000001232245
      23       -0.000002611630    -0.000000642235    -0.000000152896

  **** Optimization is complete! (in 6 steps) ****
    Final optimized geometry and variables:
    Molecular point group: c1

    Geometry (in Angstrom), charge = 0, multiplicity = 1:

    O            1.786622083688     1.220101344101     0.150608515944
    C            1.647503097428     0.039546521081     0.147195467258
    C            0.325726637333    -0.689044596536     0.151490714114
    O            2.665580360373    -0.811663982385     0.138381558939
    C           -0.880874229442     0.243883354482     0.163620290707
    H            0.311217121843    -1.340629936982    -0.718046800968
    H            0.321604921552    -1.349004046158     1.014824110651
    C           -2.207447836830    -0.520578706440     0.171982690545
    H           -0.838342915940     0.896923653846    -0.702947656565
    H           -0.824136759003     0.892172895587     1.032293335219
    C           -3.441301612207     0.409707473737     0.150444182525
    H           -2.234210777766    -1.179214353515    -0.693593421538
    H           -2.240288201035    -1.166698974005     1.045413133431
    C           -4.240345077900     0.322202395592    -1.151071048043
    H           -3.121816823456     1.439019599479     0.289685693587
    H           -4.097087085243     0.179587731639     0.984595542408
    H           -3.620487822350     0.572801132921    -2.007737782104
    H           -5.083575726306     1.006067487669    -1.141782079473
    H           -4.627793769183    -0.680661772106    -1.306716626176
    C            3.967921923806    -0.255857620061     0.133069231862
    H            4.117297135889     0.354034399372    -0.746269752956
    H            4.646654615334    -1.094454736976     0.126191546910
    H            4.127180343254     0.347613484759     1.015096276147

  Mulliken Charges: (a.u.)
   Center  Symbol    Alpha    Beta     Spin     Total
       1     O     4.28611  4.28611  0.00000 -0.57221
       2     C     2.60519  2.60519  0.00000  0.78961
       3     C     3.20859  3.20859  0.00000 -0.41717
       4     O     4.30721  4.30721  0.00000 -0.61441
       5     C     3.15453  3.15453  0.00000 -0.30905
       6     H     0.40064  0.40064  0.00000  0.19873
       7     H     0.40070  0.40070  0.00000  0.19859
       8     C     3.15737  3.15737  0.00000 -0.31475
       9     H     0.41186  0.41186  0.00000  0.17628
      10     H     0.41114  0.41114  0.00000  0.17772
      11     C     3.15569  3.15569  0.00000 -0.31138
      12     H     0.42134  0.42134  0.00000  0.15732
      13     H     0.42087  0.42087  0.00000  0.15826
      14     C     3.24014  3.24014  0.00000 -0.48027
      15     H     0.41724  0.41724  0.00000  0.16552
      16     H     0.41935  0.41935  0.00000  0.16130
      17     H     0.42168  0.42168  0.00000  0.15664
      18     H     0.41967  0.41967  0.00000  0.16066
      19     H     0.42167  0.42167  0.00000  0.15666
      20     C     3.09243  3.09243  0.00000 -0.18486
      21     H     0.40908  0.40908  0.00000  0.18183
      22     H     0.40843  0.40843  0.00000  0.18314
      23     H     0.40908  0.40908  0.00000  0.18185

   Total alpha = 36.00000, Total beta = 36.00000, Total charge = -0.00000
