  ==> Input File <==

--------------------------------------------------------------------------
set {
	reference rhf
	basis 6-31G*
}

set_num_threads( 4 )
memory 2 gb

molecule MOL {
0 1

H	 -3.042581	 -0.665861	 0.004336
O	 -2.245037	 -1.176175	 0.000806
C	 -1.162163	 -0.365336	 0.001020
C	 -0.218465	 -0.385646	 -1.010095
C	 -1.022560	 0.506063	 1.074334
H	 -0.323917	 -1.062408	 -1.841265
C	 0.867130	 0.475722	 -0.936339
H	 -1.773242	 0.493586	 1.843383
C	 0.059670	 1.365548	 1.146303
H	 1.604134	 0.460914	 -1.719694
C	 1.011759	 1.343713	 0.126980
C	 0.200048	 2.330330	 2.300681
H	 1.860220	 2.003633	 0.171134
H	 1.222416	 2.361721	 2.662023
H	 -0.441102	 2.052529	 3.128699
H	 -0.069773	 3.337551	 1.995640

	symmetry c1
}
set optking {
	frozen_dihedral = ("
		5 3 2 1
	")
}

ee = optimize('scf')
oeprop('DIPOLE', 'QUADRUPOLE', 'MULLIKEN_CHARGES')
f=open( 'psi4out.xyz', 'w' )
f.write( "16  " )
f.write( str(ee) + "\n" )
f.write( MOL.save_string_xyz() )
f.close()
--------------------------------------------------------------------------

    Molecular point group: c1
  Charge       = 0
  Multiplicity = 1
  Basis Set: 6-31G*
  Basis Set:
  @DF-RHF Final Energy:  -344.59029874755515
    Total Energy =                       -344.5902987475552663
    Molecular point group: c1
  Basis Set: 6-31G*
  Basis Set:
  Basis Set: 6-31G*
  Basis Set:
  @DF-RHF Final Energy:  -344.59162583087306
    Total Energy =                       -344.5916258308732267
  Basis Set: 6-31G*
  Basis Set:
  Basis Set: 6-31G*
  Basis Set:
  @DF-RHF Final Energy:  -344.59171257669965
    Total Energy =                       -344.5917125766996492
  Basis Set: 6-31G*
  Basis Set:
  Basis Set: 6-31G*
  Basis Set:
  @DF-RHF Final Energy:  -344.59172177337479
    Total Energy =                       -344.5917217733743882
  Basis Set: 6-31G*
  Basis Set:
  Basis Set: 6-31G*
  Basis Set:
  @DF-RHF Final Energy:  -344.59172385324905
    Total Energy =                       -344.5917238532489932
  Basis Set: 6-31G*
  Basis Set:
  Charge       = 0
  Multiplicity = 1
  Basis Set: 6-31G*
  Basis Set:

    Orbital Energies (a.u.)
    -----------------------

    Doubly Occupied:

       1A    -20.578209     2A    -11.288839     3A    -11.242271
       4A    -11.232385     5A    -11.222865     6A    -11.222048
       7A    -11.220367     8A    -11.219384     9A     -1.393892
      10A     -1.149976    11A     -1.043553    12A     -1.003094
      13A     -0.937268    14A     -0.832459    15A     -0.801211
      16A     -0.721006    17A     -0.677269    18A     -0.650341
      19A     -0.614665    20A     -0.590266    21A     -0.576515
      22A     -0.567006    23A     -0.552847    24A     -0.518238
      25A     -0.502178    26A     -0.480605    27A     -0.463768
      28A     -0.329421    29A     -0.314337

  @DF-RHF Final Energy:  -344.59172445320092

   => Energetics <=

    Nuclear Repulsion Energy =            345.1202342370883684
    One-Electron Energy =               -1151.5313560940307980
    Two-Electron Energy =                 461.8193974037417888
    DFT Exchange-Correlation Energy =       0.0000000000000000
    Empirical Dispersion Energy =           0.0000000000000000
    PCM Polarization Energy =               0.0000000000000000
    EFP Energy =                            0.0000000000000000
    Total Energy =                       -344.5917244532005839
    Molecular point group: c1
  Basis Set: 6-31G*
  Basis Set:

  -Total Gradient:
     Atom            X                  Y                   Z
    ------   -----------------  -----------------  -----------------
       1        0.000035920316     0.000099790907    -0.002171167193
       2        0.000350413086    -0.000737207605     0.003096691960
       3       -0.001259553408     0.001730006771    -0.001733719084
       4        0.000043231062     0.000017674834    -0.000005463817
       5        0.000837488226    -0.001132942743     0.000821214457
       6       -0.000015004783    -0.000007346066     0.000007829241
       7       -0.000026966301    -0.000015758990    -0.000004640938
       8        0.000020616040     0.000001057264    -0.000016301750
       9        0.000021992110     0.000016129006    -0.000003924710
      10       -0.000001626415     0.000004703519     0.000000069722
      11       -0.000011967078     0.000012085307     0.000007253304
      12        0.000000029584     0.000010662869    -0.000012354586
      13       -0.000006109300     0.000005469736     0.000008887114
      14        0.000003246342    -0.000014933656     0.000006733040
      15       -0.000008124362     0.000007483847     0.000002312265
      16        0.000016414884     0.000003125005    -0.000003419025

  **** Optimization is complete! (in 6 steps) ****
    Final optimized geometry and variables:
    Molecular point group: c1

    Geometry (in Angstrom), charge = 0, multiplicity = 1:

    H           -2.678506877801    -1.236535277791    -0.392784890928
    O           -1.857540099675    -1.709212024586    -0.405924530089
    C           -0.806958735999    -0.836461437320    -0.353421579640
    C            0.138627228163    -0.872991371955    -1.360481394492
    C           -0.655926106680     0.025298169735     0.723201371233
    H            0.010616318170    -1.557426497349    -2.178243675349
    C            1.234123343875    -0.027388644269    -1.284438525190
    H           -1.392404324455     0.012388890273     1.508143462618
    C            0.432176697019     0.883154877353     0.796169498034
    H            1.976436377497    -0.050469318132    -2.062504120336
    C            1.380532694785     0.846120505667    -0.221809968515
    C            0.583504616168     1.844267583618     1.952595966621
    H            2.236022518806     1.497502106299    -0.178348746675
    H            1.607814424311     1.870624957174     2.308598580409
    H           -0.052886135884     1.565615739745     2.784441224822
    H            0.315320701501     2.854223342019     1.654692582826

  Mulliken Charges: (a.u.)
   Center  Symbol    Alpha    Beta     Spin     Total
       1     H     0.27234  0.27234  0.00000  0.45533
       2     O     4.38604  4.38604  0.00000 -0.77208
       3     C     2.80736  2.80736  0.00000  0.38528
       4     C     3.12316  3.12316  0.00000 -0.24632
       5     C     3.14419  3.14419  0.00000 -0.28838
       6     H     0.39342  0.39342  0.00000  0.21315
       7     C     3.09208  3.09208  0.00000 -0.18416
       8     H     0.40108  0.40108  0.00000  0.19784
       9     C     2.97227  2.97227  0.00000  0.05545
      10     H     0.39852  0.39852  0.00000  0.20297
      11     C     3.11917  3.11917  0.00000 -0.23833
      12     C     3.25442  3.25442  0.00000 -0.50884
      13     H     0.40266  0.40266  0.00000  0.19468
      14     H     0.41095  0.41095  0.00000  0.17811
      15     H     0.41262  0.41262  0.00000  0.17476
      16     H     0.40972  0.40972  0.00000  0.18056

   Total alpha = 29.00000, Total beta = 29.00000, Total charge =  0.00000
