  ==> Input File <==

--------------------------------------------------------------------------
set {
	reference rhf
	basis cc-pvtz
}

set_num_threads( 4 )
memory 2 gb

molecule MOL {
0 1

H	 -4.067231	 0.949684	 -0.444879
O	 -3.355176	 0.383425	 -0.678382
C	 -2.302264	 0.528872	 0.237390
C	 -1.175688	 -0.398187	 -0.171891
H	 -1.948975	 1.557840	 0.250991
H	 -2.636293	 0.284080	 1.243537
C	 0.196029	 0.106276	 0.266738
H	 -1.201873	 -0.515469	 -1.250677
H	 -1.365975	 -1.378728	 0.252664
C	 1.330220	 -0.826136	 -0.155230
H	 0.359542	 1.097229	 -0.145561
H	 0.212134	 0.218135	 1.348778
C	 2.719700	 -0.407669	 0.328325
H	 1.339388	 -0.911200	 -1.239363
H	 1.119001	 -1.821953	 0.224128
C	 3.241564	 0.893452	 -0.276737
H	 3.418299	 -1.204729	 0.093035
H	 2.711776	 -0.323368	 1.411960
H	 3.254204	 0.841071	 -1.360784
H	 2.634460	 1.745075	 0.005842
H	 4.254264	 1.092401	 0.054971

	symmetry c1
}
set optking {
	frozen_dihedral = ("
		2 3 4 8
	")
}

ee = optimize('scf')
oeprop('DIPOLE', 'QUADRUPOLE', 'MULLIKEN_CHARGES')
f=open( 'psi4out.xyz', 'w' )
f.write( "21  " )
f.write( str(ee) + "\n" )
f.write( MOL.save_string_xyz() )
f.close()
--------------------------------------------------------------------------

    Molecular point group: c1
  Charge       = 0
  Multiplicity = 1
  Basis Set: CC-PVTZ
  Basis Set:
  @DF-RHF Final Energy:  -310.33033373589672
    Total Energy =                       -310.3303337358969429
    Molecular point group: c1
  Basis Set: CC-PVTZ
  Basis Set:
  Basis Set: CC-PVTZ
  Basis Set:
  @DF-RHF Final Energy:  -310.33059764322189
    Total Energy =                       -310.3305976432220064
  Basis Set: CC-PVTZ
  Basis Set:
  Basis Set: CC-PVTZ
  Basis Set:
  @DF-RHF Final Energy:  -310.33064885927831
    Total Energy =                       -310.3306488592783694
  Basis Set: CC-PVTZ
  Basis Set:
  Charge       = 0
  Multiplicity = 1
  Basis Set: CC-PVTZ
  Basis Set:

    Orbital Energies (a.u.)
    -----------------------

    Doubly Occupied:

       1A    -20.545476     2A    -11.265117     3A    -11.213015
       4A    -11.212907     5A    -11.210961     6A    -11.208687
       7A    -11.205673     8A     -1.362983     9A     -1.086854
      10A     -1.033447    11A     -0.955036    12A     -0.876542
      13A     -0.808009    14A     -0.779364    15A     -0.699749
      16A     -0.656182    17A     -0.621194    18A     -0.609766
      19A     -0.590321    20A     -0.567118    21A     -0.540579
      22A     -0.520856    23A     -0.509593    24A     -0.491509
      25A     -0.478349    26A     -0.460012    27A     -0.456224
      28A     -0.444303    29A     -0.434480

  @DF-RHF Final Energy:  -310.33064975663251

   => Energetics <=

    Nuclear Repulsion Energy =            312.8846531015016126
    One-Electron Energy =               -1040.7419911017627783
    Two-Electron Energy =                 417.5266882436290530
    DFT Exchange-Correlation Energy =       0.0000000000000000
    Empirical Dispersion Energy =           0.0000000000000000
    PCM Polarization Energy =               0.0000000000000000
    EFP Energy =                            0.0000000000000000
    Total Energy =                       -310.3306497566321127
    Molecular point group: c1
  Basis Set: CC-PVTZ
  Basis Set:

  -Total Gradient:
     Atom            X                  Y                   Z
    ------   -----------------  -----------------  -----------------
       1       -0.000002324133     0.000029842697     0.000014248606
       2        0.001252146466     0.002439877443    -0.001887350725
       3       -0.002200124223    -0.004017864922     0.002565462387
       4        0.003599029729     0.005060426049    -0.000968497041
       5        0.000072421347     0.000003485015     0.000000058426
       6       -0.000015178787    -0.000013531747    -0.000031555763
       7        0.000003267420     0.000081878385    -0.000074825911
       8       -0.002607578958    -0.003513134522     0.000439593895
       9       -0.000047635913    -0.000089411383    -0.000036901670
      10       -0.000052396030     0.000026436682    -0.000050748891
      11       -0.000031156908    -0.000042289323     0.000013281214
      12       -0.000032565035    -0.000004248401    -0.000028879857
      13       -0.000028746252     0.000027410810     0.000072258552
      14        0.000000742995     0.000036666645    -0.000007488752
      15       -0.000008090588    -0.000009837721    -0.000025815725
      16        0.000031681759     0.000008066543    -0.000011045722
      17       -0.000010246081    -0.000011179399     0.000023927787
      18        0.000007771085     0.000022963157     0.000013229173
      19       -0.000000650025     0.000007489005    -0.000010897175
      20        0.000070868731    -0.000029327712     0.000000068390
      21       -0.000001236604    -0.000013717303    -0.000008121202

  **** Optimization is complete! (in 4 steps) ****
    Final optimized geometry and variables:
    Molecular point group: c1

    Geometry (in Angstrom), charge = 0, multiplicity = 1:

    H           -4.152809667147     0.797000095573    -0.275537440009
    O           -3.407879531319     0.312119198534    -0.579421697632
    C           -2.339080243783     0.457528987279     0.319239882974
    C           -1.192369088220    -0.433475941215    -0.136401897347
    H           -2.012283538528     1.495270841946     0.336083788374
    H           -2.644252841938     0.196441872519     1.329251745572
    C            0.176476776573     0.060515632527     0.317768032854
    H           -1.244544465734    -0.516460009015    -1.216241368526
    H           -1.359353579061    -1.439937527762     0.237257293515
    C            1.308143568090    -0.886827986487    -0.074815937217
    H            0.352487134741     1.045617333775    -0.101849075067
    H            0.176005540834     0.184086512257     1.399259908604
    C            2.694329114657    -0.474091746083     0.423289256295
    H            1.331517671167    -0.986324264543    -1.157541501942
    H            1.083020524573    -1.875680373577     0.314588531990
    C            3.243544660876     0.805801364734    -0.202387192555
    H            3.386733344209    -1.284860538320     0.218601179696
    H            2.668943661539    -0.364665997418     1.504444701056
    H            3.273053272972     0.728287907169    -1.284533921055
    H            2.643668434946     1.671651625777     0.050502931987
    H            4.253332013100     0.998768878558     0.141503461549

  Mulliken Charges: (a.u.)
   Center  Symbol    Alpha    Beta     Spin     Total
       1     H     0.39622  0.39622  0.00000  0.20756
       2     O     4.19597  4.19597  0.00000 -0.39195
       3     C     2.96278  2.96278  0.00000  0.07443
       4     C     3.08703  3.08703  0.00000 -0.17407
       5     H     0.47778  0.47778  0.00000  0.04445
       6     H     0.47221  0.47221  0.00000  0.05557
       7     C     3.10121  3.10121  0.00000 -0.20243
       8     H     0.44621  0.44621  0.00000  0.10759
       9     H     0.45502  0.45502  0.00000  0.08996
      10     C     3.09518  3.09518  0.00000 -0.19036
      11     H     0.45136  0.45136  0.00000  0.09729
      12     H     0.45605  0.45605  0.00000  0.08789
      13     C     3.08989  3.08989  0.00000 -0.17978
      14     H     0.45267  0.45267  0.00000  0.09467
      15     H     0.44911  0.44911  0.00000  0.10178
      16     C     3.15205  3.15205  0.00000 -0.30410
      17     H     0.44850  0.44850  0.00000  0.10299
      18     H     0.45534  0.45534  0.00000  0.08933
      19     H     0.45448  0.45448  0.00000  0.09103
      20     H     0.45422  0.45422  0.00000  0.09156
      21     H     0.44671  0.44671  0.00000  0.10659

   Total alpha = 29.00000, Total beta = 29.00000, Total charge = -0.00000
