  ==> Input File <==

--------------------------------------------------------------------------
set {
	reference rhf
	basis 6-31G*
}

set_num_threads( 4 )
memory 2 gb

molecule MOL {
0 1

O	 -0.280244	 1.296343	 0.362394
C	 -0.443539	 0.131598	 0.194824
C	 -1.778070	 -0.561921	 0.169832
O	 0.550821	 -0.724572	 0.000672
H	 -1.914929	 -1.058119	 -0.783972
H	 -2.564558	 0.160865	 0.327659
H	 -1.810266	 -1.321103	 0.942610
C	 1.863949	 -0.193559	 -0.000319
H	 2.028859	 0.409284	 -0.881648
H	 2.526261	 -1.045082	 -0.000003
H	 2.029520	 0.410555	 0.880008

	symmetry c1
}
set optking {
	frozen_dihedral = ("
		2 4 8 9
	")
}

ee = optimize('scf')
oeprop('DIPOLE', 'QUADRUPOLE', 'MULLIKEN_CHARGES')
f=open( 'psi4out.xyz', 'w' )
f.write( "11  " )
f.write( str(ee) + "\n" )
f.write( MOL.save_string_xyz() )
f.close()
--------------------------------------------------------------------------

    Molecular point group: c1
  Charge       = 0
  Multiplicity = 1
  Basis Set: 6-31G*
  Basis Set:
  @DF-RHF Final Energy:  -266.83628059259217
    Total Energy =                       -266.8362805925922885
    Molecular point group: c1
  Basis Set: 6-31G*
  Basis Set:
  Basis Set: 6-31G*
  Basis Set:
  @DF-RHF Final Energy:  -266.83627697167606
    Total Energy =                       -266.8362769716761704
  Basis Set: 6-31G*
  Basis Set:
  Basis Set: 6-31G*
  Basis Set:
  @DF-RHF Final Energy:  -266.83618200150693
    Total Energy =                       -266.8361820015069270
  Basis Set: 6-31G*
  Basis Set:
  Basis Set: 6-31G*
  Basis Set:
  @DF-RHF Final Energy:  -266.83629876747614
    Total Energy =                       -266.8362987674761939
  Basis Set: 6-31G*
  Basis Set:
  Charge       = 0
  Multiplicity = 1
  Basis Set: 6-31G*
  Basis Set:

    Orbital Energies (a.u.)
    -----------------------

    Doubly Occupied:

       1A    -20.605872     2A    -20.546493     3A    -11.376547
       4A    -11.282087     5A    -11.234712     6A     -1.471084
       7A     -1.364584     8A     -1.035981     9A     -0.953040
      10A     -0.778138    11A     -0.695829    12A     -0.681122
      13A     -0.677210    14A     -0.595504    15A     -0.591812
      16A     -0.560675    17A     -0.525265    18A     -0.523360
      19A     -0.457916    20A     -0.442339

  @DF-RHF Final Energy:  -266.83629976756509

   => Energetics <=

    Nuclear Repulsion Energy =            183.2954646985012914
    One-Electron Energy =                -727.4643865753810132
    Two-Electron Energy =                 277.3326221093145705
    DFT Exchange-Correlation Energy =       0.0000000000000000
    Empirical Dispersion Energy =           0.0000000000000000
    PCM Polarization Energy =               0.0000000000000000
    EFP Energy =                            0.0000000000000000
    Total Energy =                       -266.8362997675651513
    Molecular point group: c1
  Basis Set: 6-31G*
  Basis Set:

  -Total Gradient:
     Atom            X                  Y                   Z
    ------   -----------------  -----------------  -----------------
       1       -0.000004115577    -0.000001665558     0.000007978171
       2        0.000052261508    -0.000114964141     0.000729919278
       3        0.000007774576    -0.000000538491     0.000001844528
       4        0.000008522918    -0.000025777614    -0.001164563279
       5        0.000000485015    -0.000000162441    -0.000000689537
       6        0.000001757219     0.000001659470    -0.000000393406
       7        0.000000846278     0.000000507090     0.000000047066
       8       -0.000349095171     0.000849171027     0.000856175420
       9        0.000288238173    -0.000708329780    -0.000433301709
      10       -0.000002298676    -0.000000297378     0.000001085110
      11       -0.000004376263     0.000000397815     0.000001898356

  **** Optimization is complete! (in 5 steps) ****
    Final optimized geometry and variables:
    Molecular point group: c1

    Geometry (in Angstrom), charge = 0, multiplicity = 1:

    O           -0.288138901934     1.309320965263     0.210463229647
    C           -0.448627338609     0.143529689759     0.047599471994
    C           -1.781406029630    -0.553676122209     0.030792952524
    O            0.546827336926    -0.711786954282    -0.145604709425
    H           -1.920717967575    -1.053335432801    -0.920873019825
    H           -2.569202199611     0.167443964289     0.189248360198
    H           -1.808363479103    -1.310490568459     0.806161587206
    C            1.861513808719    -0.184505083831    -0.136331464668
    H            2.029634588000     0.422504927667    -1.015046790974
    H            2.521170156694    -1.038250482914    -0.148321954317
    H            2.029804974497     0.409242949051     0.749350260294

  Mulliken Charges: (a.u.)
   Center  Symbol    Alpha    Beta     Spin     Total
       1     O     4.28199  4.28199  0.00000 -0.56399
       2     C     2.62253  2.62253  0.00000  0.75494
       3     C     3.28176  3.28176  0.00000 -0.56352
       4     O     4.29945  4.29945  0.00000 -0.59889
       5     H     0.39984  0.39984  0.00000  0.20031
       6     H     0.39657  0.39657  0.00000  0.20685
       7     H     0.39997  0.39997  0.00000  0.20005
       8     C     3.09272  3.09272  0.00000 -0.18545
       9     H     0.41051  0.41051  0.00000  0.17899
      10     H     0.40857  0.40857  0.00000  0.18286
      11     H     0.40608  0.40608  0.00000  0.18784

   Total alpha = 20.00000, Total beta = 20.00000, Total charge = -0.00000
