                              Psi4 1.0.54 Driver

  ==> Input File <==

--------------------------------------------------------------------------
set {
	reference rhf
	basis cc-pvtz
}

set_num_threads( 4 )
memory 2 gb

molecule MOL {
0 1

H	 -3.258660	 -0.290394	 1.471450
C	 -3.307964	 -0.275695	 0.374072
C	 -2.653809	 0.914422	 -0.273689
O	 -3.855140	 -1.148880	 -0.205112
C	 -1.216901	 1.136108	 0.207794
H	 -2.700131	 0.790676	 -1.347875
H	 -3.256452	 1.781007	 -0.010713
C	 -0.247837	 0.040196	 -0.230469
H	 -0.872882	 2.093195	 -0.169002
H	 -1.209325	 1.218376	 1.291938
C	 1.181757	 0.280428	 0.247371
H	 -0.259600	 -0.030819	 -1.314870
H	 -0.591284	 -0.923375	 0.136958
C	 2.151032	 -0.811012	 -0.202643
H	 1.515939	 1.247397	 -0.115449
H	 1.191514	 0.341223	 1.333422
C	 3.580021	 -0.656538	 0.320835
H	 2.170545	 -0.847575	 -1.289412
H	 1.766632	 -1.772905	 0.124928
C	 4.626498	 -1.479388	 -0.426753
H	 3.593866	 -0.945314	 1.367166
H	 3.860199	 0.393257	 0.293696
H	 4.368945	 -2.533730	 -0.421836
H	 4.726198	 -1.168197	 -1.459664
H	 5.600078	 -1.376376	 0.038538

	symmetry c1
}
set optking {
	frozen_dihedral = ("
		20 17 14 18
	")
}

ee,wfn = optimize('scf', return_wfn=True)
oeprop( wfn, 'DIPOLE', 'QUADRUPOLE', 'MULLIKEN_CHARGES')
f=open( 'psi4out.xyz', 'w' )
f.write( "25  " )
f.write( str(ee) + "\n" )
f.write( MOL.save_string_xyz() )
f.close()
--------------------------------------------------------------------------

    Molecular point group: c1
  Charge       = 0
  Multiplicity = 1
  Basis Set: CC-PVTZ
  Basis Set:
  @DF-RHF Final Energy:  -387.26070769461109
    Total Energy =                       -387.2607076946114830
    Molecular point group: c1
  Basis Set: CC-PVTZ
  Basis Set:
  Basis Set: CC-PVTZ
  Basis Set:
  @DF-RHF Final Energy:  -387.26107422121083
    Total Energy =                       -387.2610742212110608
  Basis Set: CC-PVTZ
  Basis Set:
  Basis Set: CC-PVTZ
  Basis Set:
  @DF-RHF Final Energy:  -387.26110419318076
    Total Energy =                       -387.2611041931806994
  Basis Set: CC-PVTZ
  Basis Set:
  Basis Set: CC-PVTZ
  Basis Set:
  @DF-RHF Final Energy:  -387.26096193414230
    Total Energy =                       -387.2609619341429834
  Basis Set: CC-PVTZ
  Basis Set:
  Basis Set: CC-PVTZ
  Basis Set:
  @DF-RHF Final Energy:  -387.26110718503600
    Total Energy =                       -387.2611071850359394
  Basis Set: CC-PVTZ
  Basis Set:
  Charge       = 0
  Multiplicity = 1
  Basis Set: CC-PVTZ
  Basis Set:

    Orbital Energies (a.u.)
    -----------------------

    Doubly Occupied:

       1A    -20.551420     2A    -11.321034     3A    -11.233856
       4A    -11.232919     5A    -11.221811     6A    -11.218448
       7A    -11.215774     8A    -11.214561     9A    -11.208488
      10A     -1.406427    11A     -1.105382    12A     -1.071190
      13A     -1.016534    14A     -0.944599    15A     -0.868856
      16A     -0.815166    17A     -0.795006    18A     -0.787582
      19A     -0.668238    20A     -0.665551    21A     -0.640934
      22A     -0.616105    23A     -0.609681    24A     -0.592967
      25A     -0.567329    26A     -0.557205    27A     -0.539113
      28A     -0.520763    29A     -0.509096    30A     -0.503045
      31A     -0.486664    32A     -0.478597    33A     -0.467074
      34A     -0.463615    35A     -0.442418    36A     -0.411921

  @DF-RHF Final Energy:  -387.26110636989779

   => Energetics <=

    Nuclear Repulsion Energy =            436.0721397699566069
    One-Electron Energy =               -1388.7277583075624534
    Two-Electron Energy =                 565.3945121677081715
    DFT Exchange-Correlation Energy =       0.0000000000000000
    Empirical Dispersion Energy =           0.0000000000000000
    PCM Polarization Energy =               0.0000000000000000
    EFP Energy =                            0.0000000000000000
    Total Energy =                       -387.2611063698976750
    Molecular point group: c1
  Basis Set: CC-PVTZ
  Basis Set:

  -Total Gradient:
     Atom            X                  Y                   Z
    ------   -----------------  -----------------  -----------------
       1       -0.000062998982     0.000037743088     0.000014698395
       2        0.000215918010    -0.000115741872    -0.000029011512
       3       -0.000059958717     0.000008378550     0.000035557026
       4       -0.000073160153     0.000003871177    -0.000012262204
       5        0.000042652007     0.000025353553    -0.000060621004
       6       -0.000006205237     0.000022485910    -0.000014249498
       7       -0.000008913315     0.000011487933     0.000026396805
       8       -0.000014945912    -0.000032470513     0.000016490538
       9        0.000022796695    -0.000005732708    -0.000010120369
      10        0.000003977535     0.000024183094     0.000004144042
      11       -0.000018620238     0.000007127784     0.000005399635
      12        0.000001039507     0.000016758472     0.000004103623
      13       -0.000023315846    -0.000005420733     0.000003955875
      14       -0.000274699751     0.004668886414    -0.000839730031
      15       -0.000013123103    -0.000013858585    -0.000002098821
      16        0.000010361234    -0.000008849831     0.000006926862
      17       -0.000406497698    -0.003265038000     0.002204042668
      18        0.000322247236    -0.003173213992     0.000151968638
      19        0.000016232315     0.000019612607     0.000034911850
      20        0.000368580483     0.001771692289    -0.001546200494
      21       -0.000002002766    -0.000001044690     0.000006057823
      22       -0.000006237509    -0.000019112986    -0.000009359628
      23        0.000006736333     0.000043012443     0.000015312593
      24        0.000018015686    -0.000021012981     0.000020538700
      25       -0.000057877825     0.000000903579    -0.000026851512

  **** Optimization is complete! (in 6 steps) ****
    Final optimized geometry and variables:
    Molecular point group: c1

    Geometry (in Angstrom), charge = 0, multiplicity = 1:

    H           -3.301170997829    -0.035587062884     1.465105283425
    C           -3.343316202848    -0.011616328472     0.367558920102
    C           -2.672167208651     1.176394705346    -0.266630985766
    O           -3.897596015955    -0.873306847143    -0.222011711693
    C           -1.236330565128     1.378873780423     0.226022247562
    H           -2.712673223057     1.061472640523    -1.342066139043
    H           -3.267386666214     2.047300878050    -0.000930576902
    C           -0.278894672375     0.269993394204    -0.204978696907
    H           -0.876393090962     2.331288962769    -0.147729840507
    H           -1.236050456783     1.460733189934     1.310223107543
    C            1.149710389457     0.491617014457     0.282865368783
    H           -0.283832542939     0.198410569126    -1.289391582728
    H           -0.637421606003    -0.688743414842     0.160713099016
    C            2.116332955237    -0.601744546437    -0.158890911241
    H            1.507024178174     1.452828806388    -0.078282395764
    H            1.153019078229     0.555175164512     1.368682968766
    C            3.536548291607    -0.420199350448     0.377077386150
    H            2.143033193890    -0.662076744438    -1.244039391313
    H            1.737828282227    -1.566808502363     0.170855868406
    C            4.570492847289    -1.261405641367    -0.363906771002
    H            3.557110650116    -0.656682435254     1.436738588005
    H            3.818396547087     0.626408836388     0.295427830423
    H            4.329874196315    -2.318413259137    -0.312585390543
    H            4.615494405470    -0.984881168709    -1.411626352470
    H            5.560314440435    -1.128156403244     0.057135436761

  Mulliken Charges: (a.u.)
   Center  Symbol    Alpha    Beta     Spin     Total
       1     H     0.46411  0.46411  0.00000  0.07178
       2     C     2.90473  2.90473  0.00000  0.19055
       3     C     3.08917  3.08917  0.00000 -0.17833
       4     O     4.16628  4.16628  0.00000 -0.33257
       5     C     3.11667  3.11667  0.00000 -0.23334
       6     H     0.44287  0.44287  0.00000  0.11426
       7     H     0.44049  0.44049  0.00000  0.11903
       8     C     3.09066  3.09066  0.00000 -0.18133
       9     H     0.44306  0.44306  0.00000  0.11387
      10     H     0.44979  0.44979  0.00000  0.10042
      11     C     3.08946  3.08946  0.00000 -0.17892
      12     H     0.44976  0.44976  0.00000  0.10049
      13     H     0.44825  0.44825  0.00000  0.10349
      14     C     3.08820  3.08820  0.00000 -0.17640
      15     H     0.45321  0.45321  0.00000  0.09357
      16     H     0.45395  0.45395  0.00000  0.09210
      17     C     3.08496  3.08496  0.00000 -0.16991
      18     H     0.45434  0.45434  0.00000  0.09132
      19     H     0.45304  0.45304  0.00000  0.09393
      20     C     3.14964  3.14964  0.00000 -0.29928
      21     H     0.45284  0.45284  0.00000  0.09433
      22     H     0.45658  0.45658  0.00000  0.08683
      23     H     0.45444  0.45444  0.00000  0.09112
      24     H     0.45496  0.45496  0.00000  0.09007
      25     H     0.44854  0.44854  0.00000  0.10291

   Total alpha = 36.00000, Total beta = 36.00000, Total charge = -0.00000

*** Psi4 exiting successfully. Buy a developer a beer!
