  ==> Input File <==

--------------------------------------------------------------------------
set {
	reference rhf
	basis 6-31G*
}

set_num_threads( 4 )
memory 2 gb

molecule MOL {
0 1

H	 -2.798360	 -0.862255	 -0.071053
N	 -1.863561	 -0.715187	 0.256814
C	 -1.344686	 0.554728	 -0.219830
H	 -1.300452	 -1.461917	 -0.101532
C	 0.081427	 0.741154	 0.254071
H	 -1.362155	 0.656231	 -1.305829
H	 -1.952773	 1.354456	 0.191809
O	 0.874168	 -0.245412	 -0.342030
H	 0.444037	 1.730782	 -0.023037
H	 0.121165	 0.653424	 1.337565
C	 0.371637	 -1.537683	 -0.219275
H	 1.063423	 -2.206915	 -0.712489
H	 0.281852	 -1.832291	 0.824816
H	 -0.605210	 -1.630701	 -0.689303

	symmetry c1
}
set optking {
	frozen_dihedral = ("
		11 8 5 3
	")
}

ee = optimize('scf')
oeprop('DIPOLE', 'QUADRUPOLE', 'MULLIKEN_CHARGES')
f=open( 'psi4out.xyz', 'w' )
f.write( "14  " )
f.write( str(ee) + "\n" )
f.write( MOL.save_string_xyz() )
f.close()
--------------------------------------------------------------------------

    Molecular point group: c1
  Charge       = 0
  Multiplicity = 1
  Basis Set: 6-31G*
  Basis Set:
  @DF-RHF Final Energy:  -248.02194781213262
    Total Energy =                       -248.0219478121323391
    Molecular point group: c1
  Basis Set: 6-31G*
  Basis Set:
  Basis Set: 6-31G*
  Basis Set:
  @DF-RHF Final Energy:  -248.08835702655583
    Total Energy =                       -248.0883570265557410
  Basis Set: 6-31G*
  Basis Set:
  Basis Set: 6-31G*
  Basis Set:
  @DF-RHF Final Energy:  -248.10577355671839
    Total Energy =                       -248.1057735567185318
  Basis Set: 6-31G*
  Basis Set:
  Basis Set: 6-31G*
  Basis Set:
  @DF-RHF Final Energy:  -248.11105362904743
    Total Energy =                       -248.1110536290474329
  Basis Set: 6-31G*
  Basis Set:
  @DF-RHF Final Energy:  -248.11326421236382
    Total Energy =                       -248.1132642123637879
  @DF-RHF Final Energy:  -248.11438972135204
    Total Energy =                       -248.1143897213519267
  @DF-RHF Final Energy:  -248.11498974350701
    Total Energy =                       -248.1149897435070670
  @DF-RHF Final Energy:  -248.11519537367082
    Total Energy =                       -248.1151953736709288
  @DF-RHF Final Energy:  -248.11533479142702
    Total Energy =                       -248.1153347914270171
  @DF-RHF Final Energy:  -248.11545275224560
    Total Energy =                       -248.1154527522455737
  Basis Set: 6-31G*
  Basis Set:
  @DF-RHF Final Energy:  -248.11549299421614
    Total Energy =                       -248.1154929942159697
  Basis Set: 6-31G*
  Basis Set:
  Basis Set: 6-31G*
  Basis Set:
  @DF-RHF Final Energy:  -248.11550173717893
    Total Energy =                       -248.1155017371790450
  Basis Set: 6-31G*
  Basis Set:
  Basis Set: 6-31G*
  Basis Set:
  @DF-RHF Final Energy:  -248.11550306224595
    Total Energy =                       -248.1155030622460345
  Basis Set: 6-31G*
  Basis Set:
  Charge       = 0
  Multiplicity = 1
  Basis Set: 6-31G*
  Basis Set:

    Orbital Energies (a.u.)
    -----------------------

    Doubly Occupied:

       1A    -20.550673     2A    -15.541259     3A    -11.264880
       4A    -11.263072     5A    -11.248070     6A     -1.372860
       7A     -1.182452     8A     -1.000507     9A     -0.917318
      10A     -0.809957    11A     -0.689806    12A     -0.671768
      13A     -0.639732    14A     -0.619676    15A     -0.600018
      16A     -0.548707    17A     -0.537515    18A     -0.510788
      19A     -0.457569    20A     -0.411012    21A     -0.388122

  @DF-RHF Final Energy:  -248.11550313698118

   => Energetics <=

    Nuclear Repulsion Energy =            196.8332145041083265
    One-Electron Energy =                -727.4459143757013635
    Two-Electron Energy =                 282.4971967346118618
    DFT Exchange-Correlation Energy =       0.0000000000000000
    Empirical Dispersion Energy =           0.0000000000000000
    PCM Polarization Energy =               0.0000000000000000
    EFP Energy =                            0.0000000000000000
    Total Energy =                       -248.1155031369811468
    Molecular point group: c1
  Basis Set: 6-31G*
  Basis Set:

  -Total Gradient:
     Atom            X                  Y                   Z
    ------   -----------------  -----------------  -----------------
       1       -0.000001505027     0.000000255314    -0.000006779810
       2        0.000017345111    -0.000022947525     0.000009979285
       3       -0.000612506268    -0.002105021188     0.002206798456
       4       -0.000003260129     0.000004793879     0.000003518718
       5        0.000274481178     0.003352482413    -0.004784324052
       6       -0.000003487413    -0.000002384065    -0.000002222560
       7        0.000005660940    -0.000002540260     0.000002387532
       8        0.001779380774    -0.001652878174     0.005702304229
       9       -0.000004012276     0.000004254324     0.000002563955
      10       -0.000001156911     0.000001631916     0.000006330763
      11       -0.001457448043     0.000415715912    -0.003139800503
      12       -0.000002797708     0.000000049550    -0.000000601632
      13        0.000001905968     0.000004109782    -0.000002376572
      14        0.000007399799     0.000002478125     0.000002222192

  **** Optimization is complete! (in 14 steps) ****
    Final optimized geometry and variables:
    Molecular point group: c1

    Geometry (in Angstrom), charge = 0, multiplicity = 1:

    H           -2.768787490722    -0.109218018428     0.321715341636
    N           -1.789856154996    -0.260796431627     0.466815140478
    C           -1.013894598277     0.771994303019    -0.208742156523
    H           -1.585621112400    -1.173385186930     0.113333479785
    C            0.416777333381     0.901875677125     0.313567005638
    H           -0.989738042815     0.666647723083    -1.294442795366
    H           -1.503629516779     1.717388969083     0.000990459224
    O            1.373301386795     0.041414819661    -0.243900397225
    H            0.783010628840     1.896571305705     0.093586311880
    H            0.391646307447     0.778364099147     1.394158793137
    C            1.075829667870    -1.316356638491    -0.296876157177
    H            1.980589453796    -1.828307204281    -0.595896369902
    H            0.760325628158    -1.701143417623     0.670492208537
    H            0.305856332243    -1.537454653203    -1.032432179600

  Mulliken Charges: (a.u.)
   Center  Symbol    Alpha    Beta     Spin     Total
       1     H     0.32992  0.32992  0.00000  0.34016
       2     N     3.92451  3.92451  0.00000 -0.84903
       3     C     3.09040  3.09040  0.00000 -0.18079
       4     H     0.33041  0.33041  0.00000  0.33919
       5     C     2.98519  2.98519  0.00000  0.02961
       6     H     0.42321  0.42321  0.00000  0.15357
       7     H     0.41661  0.41661  0.00000  0.16679
       8     O     4.30743  4.30743  0.00000 -0.61485
       9     H     0.41703  0.41703  0.00000  0.16593
      10     H     0.42069  0.42069  0.00000  0.15863
      11     C     3.08355  3.08355  0.00000 -0.16711
      12     H     0.41152  0.41152  0.00000  0.17697
      13     H     0.42455  0.42455  0.00000  0.15091
      14     H     0.43499  0.43499  0.00000  0.13002

   Total alpha = 21.00000, Total beta = 21.00000, Total charge = -0.00000
