  ==> Input File <==

--------------------------------------------------------------------------
set {
	reference rhf
	basis cc-pvtz
}

set_num_threads( 4 )
memory 2 gb

molecule MOL {
0 1

H	 1.112461	 -1.207323	 -0.410489
O	 1.279539	 -0.368948	 -0.802488
C	 0.706474	 0.636793	 -0.025501
C	 -0.793473	 0.591216	 0.050087
H	 1.012832	 1.577723	 -0.467200
H	 1.109845	 0.623278	 0.985345
C	 -1.534243	 -0.493009	 -0.013340
H	 -1.266611	 1.552628	 0.164437
H	 -1.101195	 -1.466332	 -0.144046
H	 -2.604242	 -0.437780	 0.050785

	symmetry c1
}
set optking {
	frozen_dihedral = ("
		5 3 4 7
	")
}

ee = optimize('scf')
oeprop('DIPOLE', 'QUADRUPOLE', 'MULLIKEN_CHARGES')
f=open( 'psi4out.xyz', 'w' )
f.write( "10  " )
f.write( str(ee) + "\n" )
f.write( MOL.save_string_xyz() )
f.close()
--------------------------------------------------------------------------

    Molecular point group: c1
  Charge       = 0
  Multiplicity = 1
  Basis Set: CC-PVTZ
  Basis Set:
  @DF-RHF Final Energy:  -191.99458119267254
    Total Energy =                       -191.9945811926726833
    Molecular point group: c1
  Basis Set: CC-PVTZ
  Basis Set:
  Basis Set: CC-PVTZ
  Basis Set:
  @DF-RHF Final Energy:  -191.99516638899544
    Total Energy =                       -191.9951663889955285
  Basis Set: CC-PVTZ
  Basis Set:
  Basis Set: CC-PVTZ
  Basis Set:
  @DF-RHF Final Energy:  -191.99526185883778
    Total Energy =                       -191.9952618588378357
  Basis Set: CC-PVTZ
  Basis Set:
  Basis Set: CC-PVTZ
  Basis Set:
  @DF-RHF Final Energy:  -191.99527886118094
    Total Energy =                       -191.9952788611809922
  Basis Set: CC-PVTZ
  Basis Set:
  Basis Set: CC-PVTZ
  Basis Set:
  @DF-RHF Final Energy:  -191.99528367738770
    Total Energy =                       -191.9952836773877038
  Basis Set: CC-PVTZ
  Basis Set:
  Charge       = 0
  Multiplicity = 1
  Basis Set: CC-PVTZ
  Basis Set:

    Orbital Energies (a.u.)
    -----------------------

    Doubly Occupied:

       1A    -20.555023     2A    -11.278483     3A    -11.230223
       4A    -11.217715     5A     -1.375050     6A     -1.062679
       7A     -0.932628     8A     -0.769359     9A     -0.700290
      10A     -0.663839    11A     -0.623093    12A     -0.573619
      13A     -0.528692    14A     -0.509215    15A     -0.448410
      16A     -0.368974

  @DF-RHF Final Energy:  -191.99528453655387

   => Energetics <=

    Nuclear Repulsion Energy =            119.0939961037711470
    One-Electron Energy =                -496.5039744489490658
    Two-Electron Energy =                 185.4146938086240652
    DFT Exchange-Correlation Energy =       0.0000000000000000
    Empirical Dispersion Energy =           0.0000000000000000
    PCM Polarization Energy =               0.0000000000000000
    EFP Energy =                            0.0000000000000000
    Total Energy =                       -191.9952845365538678
    Molecular point group: c1
  Basis Set: CC-PVTZ
  Basis Set:

  -Total Gradient:
     Atom            X                  Y                   Z
    ------   -----------------  -----------------  -----------------
       1        0.000001498809    -0.000009931095    -0.000014281608
       2       -0.000050720817     0.000092245389     0.000073861918
       3       -0.000146026545    -0.002942514636    -0.003308668879
       4       -0.000378790491     0.001220992812    -0.006188726693
       5        0.000230644327     0.002089368591     0.004570987871
       6        0.000032439307     0.000019756765     0.000049124936
       7        0.000275153228    -0.000495024149     0.004816757633
       8        0.000007047670     0.000005543008     0.000015138167
       9        0.000020972187     0.000007710184    -0.000002681005
      10        0.000007782324     0.000011853129    -0.000011512340

  **** Optimization is complete! (in 6 steps) ****
    Final optimized geometry and variables:
    Molecular point group: c1

    Geometry (in Angstrom), charge = 0, multiplicity = 1:

    H            1.267782654628    -1.259460882472    -0.082517750952
    O            1.297580283378    -0.456788217163    -0.569310517738
    C            0.719665526282     0.575453639345     0.167195347437
    C           -0.783231980219     0.540039350797     0.258336928783
    H            1.033702669858     1.513382872982    -0.271786015477
    H            1.115479358293     0.590109512111     1.182309468847
    C           -1.535424993168    -0.535839462228     0.197584047260
    H           -1.242777553344     1.488868659402     0.480303251163
    H           -1.129849627105    -1.506161109363    -0.021921641549
    H           -2.598961002977    -0.479013816007     0.329644429240

  Mulliken Charges: (a.u.)
   Center  Symbol    Alpha    Beta     Spin     Total
       1     H     0.39094  0.39094  0.00000  0.21812
       2     O     4.19730  4.19730  0.00000 -0.39460
       3     C     2.95386  2.95386  0.00000  0.09227
       4     C     3.07145  3.07145  0.00000 -0.14290
       5     H     0.45369  0.45369  0.00000  0.09261
       6     H     0.47043  0.47043  0.00000  0.05915
       7     C     3.17778  3.17778  0.00000 -0.35555
       8     H     0.42211  0.42211  0.00000  0.15579
       9     H     0.43520  0.43520  0.00000  0.12960
      10     H     0.42724  0.42724  0.00000  0.14551

   Total alpha = 16.00000, Total beta = 16.00000, Total charge =  0.00000
