  ==> Input File <==

--------------------------------------------------------------------------
set {
	reference rhf
	basis 6-31G*
}

set_num_threads( 1 )
memory 2 gb

molecule MOL {
0 1

H	 3.998319	 4.862091	 0.842399
C	 3.450974	 3.951802	 0.673362
C	 2.079035	 3.996612	 0.476071
C	 4.119428	 2.737839	 0.653476
H	 1.561842	 4.938755	 0.491737
C	 1.375946	 2.825743	 0.258784
H	 5.182952	 2.705064	 0.806608
C	 3.417688	 1.564510	 0.436149
H	 0.314089	 2.841393	 0.104230
C	 2.042622	 1.606057	 0.238080
H	 3.930901	 0.622878	 0.419948
C	 1.239129	 0.373821	 0.000060
O	 1.970282	 -0.730723	 0.000018
O	 0.060676	 0.370879	 -0.173430
C	 3.377318	 -0.566646	 -0.000065
H	 3.695437	 -0.028981	 -0.881264
H	 3.789299	 -1.563704	 0.000236
H	 3.695516	 -0.028316	 0.880770

	symmetry c1
}
set optking {
	frozen_dihedral = ("
		12 13 15 16,
		13 12 10 6
	")
}

ee = energy('scf')
oeprop('DIPOLE', 'QUADRUPOLE', 'MULLIKEN_CHARGES')
f=open( 'psi4out.xyz', 'w' )
f.write( "18  " )
f.write( str(ee) + "\n" )
f.write( MOL.save_string_xyz() )
f.close()
--------------------------------------------------------------------------

    Molecular point group: c1

    Geometry (in Angstrom), charge = 0, multiplicity = 1:

       Center              X                  Y                   Z               Mass
    ------------   -----------------  -----------------  -----------------  -----------------
           H          1.704469458468     3.343686326867     0.601735830157     1.007825032070
           C          1.157124458468     2.433397326867     0.432698830157    12.000000000000
           C         -0.214814541532     2.478207326867     0.235407830157    12.000000000000
           C          1.825578458468     1.219434326867     0.412812830157    12.000000000000
           H         -0.732007541532     3.420350326867     0.251073830157     1.007825032070
           C         -0.917903541532     1.307338326867     0.018120830157    12.000000000000
           H          2.889102458468     1.186659326867     0.565944830157     1.007825032070
           C          1.123838458468     0.046105326867     0.195485830157    12.000000000000
           H         -1.979760541532     1.322988326867    -0.136433169843     1.007825032070
           C         -0.251227541532     0.087652326867    -0.002583169843    12.000000000000
           H          1.637051458468    -0.895526673133     0.179284830157     1.007825032070
           C         -1.054720541532    -1.144583673133    -0.240603169843    12.000000000000
           O         -0.323567541532    -2.249127673133    -0.240645169843    15.994914619560
           O         -2.233173541532    -1.147525673133    -0.414093169843    15.994914619560
           C          1.083468458468    -2.085050673133    -0.240728169843    12.000000000000
           H          1.401587458468    -1.547385673133    -1.121927169843     1.007825032070
           H          1.495449458468    -3.082108673133    -0.240427169843     1.007825032070
           H          1.401666458468    -1.546720673133     0.640106830157     1.007825032070

  Charge       = 0
  Multiplicity = 1
  Basis Set: 6-31G*
  Basis Set:

    Orbital Energies (a.u.)
    -----------------------

    Doubly Occupied:

       1A    -20.619900     2A    -20.541706     3A    -11.380506
       4A    -11.296070     5A    -11.250323     6A    -11.248735
       7A    -11.246884     8A    -11.240882     9A    -11.238524
      10A    -11.216546    11A     -1.478159    12A     -1.372126
      13A     -1.179286    14A     -1.102759    15A     -1.042279
      16A     -1.009679    17A     -0.887904    18A     -0.865736
      19A     -0.805108    20A     -0.736281    21A     -0.725021
      22A     -0.693263    23A     -0.673383    24A     -0.646255
      25A     -0.622948    26A     -0.612823    27A     -0.583925
      28A     -0.572870    29A     -0.549827    30A     -0.519304
      31A     -0.515405    32A     -0.465922    33A     -0.444990
      34A     -0.395096    35A     -0.350078    36A     -0.343233

  @DF-RHF Final Energy:  -457.11063916561073

   => Energetics <=

    Nuclear Repulsion Energy =            510.6339600896918114
    One-Electron Energy =               -1634.5417995834400244
    Two-Electron Energy =                 666.7972003281377056
    DFT Exchange-Correlation Energy =       0.0000000000000000
    Empirical Dispersion Energy =           0.0000000000000000
    PCM Polarization Energy =               0.0000000000000000
    EFP Energy =                            0.0000000000000000
    Total Energy =                       -457.1106391656105643

  Mulliken Charges: (a.u.)
   Center  Symbol    Alpha    Beta     Spin     Total
       1     H     0.39652  0.39652  0.00000  0.20696
       2     C     3.08806  3.08806  0.00000 -0.17613
       3     C     3.10728  3.10728  0.00000 -0.21456
       4     C     3.11356  3.11356  0.00000 -0.22713
       5     H     0.39420  0.39420  0.00000  0.21159
       6     C     3.08120  3.08120  0.00000 -0.16239
       7     H     0.40010  0.40010  0.00000  0.19980
       8     C     3.13729  3.13729  0.00000 -0.27459
       9     H     0.37357  0.37357  0.00000  0.25287
      10     C     3.09102  3.09102  0.00000 -0.18204
      11     H     0.37166  0.37166  0.00000  0.25667
      12     C     2.57045  2.57045  0.00000  0.85911
      13     O     4.30318  4.30318  0.00000 -0.60637
      14     O     4.28153  4.28153  0.00000 -0.56305
      15     C     3.11082  3.11082  0.00000 -0.22163
      16     H     0.39300  0.39300  0.00000  0.21400
      17     H     0.40141  0.40141  0.00000  0.19718
      18     H     0.38514  0.38514  0.00000  0.22972

   Total alpha = 36.00000, Total beta = 36.00000, Total charge =  0.00000
