  ==> Input File <==

--------------------------------------------------------------------------
set {
	reference rhf
	basis 6-31G*
}

set_num_threads( 4 )
memory 2 gb

molecule MOL {
0 1

H	 2.176868	 -0.646004	 -0.217325
O	 1.337496	 -0.537251	 0.205931
C	 0.702312	 0.627605	 -0.264544
C	 -0.714990	 0.596302	 0.266387
H	 0.682322	 0.642550	 -1.350929
H	 1.215941	 1.520383	 0.085680
O	 -1.405996	 -0.526611	 -0.195820
H	 -1.257453	 1.468809	 -0.075599
H	 -0.688972	 0.618407	 1.353696
H	 -0.955067	 -0.845929	 -0.966995

	symmetry c1
}
set optking {
	frozen_dihedral = ("
		10 7 4 3
	")
}

ee = optimize('scf')
oeprop('DIPOLE', 'QUADRUPOLE', 'MULLIKEN_CHARGES')
f=open( 'psi4out.xyz', 'w' )
f.write( "10  " )
f.write( str(ee) + "\n" )
f.write( MOL.save_string_xyz() )
f.close()
--------------------------------------------------------------------------

    Molecular point group: c1
  Charge       = 0
  Multiplicity = 1
  Basis Set: 6-31G*
  Basis Set:
  @DF-RHF Final Energy:  -228.91679275381875
    Total Energy =                       -228.9167927538187257
    Molecular point group: c1
  Basis Set: 6-31G*
  Basis Set:
  Basis Set: 6-31G*
  Basis Set:
  @DF-RHF Final Energy:  -228.91833306821204
    Total Energy =                       -228.9183330682120641
  Basis Set: 6-31G*
  Basis Set:
  Basis Set: 6-31G*
  Basis Set:
  @DF-RHF Final Energy:  -228.91863902004997
    Total Energy =                       -228.9186390200499090
  Basis Set: 6-31G*
  Basis Set:
  Basis Set: 6-31G*
  Basis Set:
  @DF-RHF Final Energy:  -228.91865044465669
    Total Energy =                       -228.9186504446566630
  Basis Set: 6-31G*
  Basis Set:
  Charge       = 0
  Multiplicity = 1
  Basis Set: 6-31G*
  Basis Set:

    Orbital Energies (a.u.)
    -----------------------

    Doubly Occupied:

       1A    -20.566692     2A    -20.548622     3A    -11.282575
       4A    -11.269473     5A     -1.380953     6A     -1.351244
       7A     -1.005014     8A     -0.849137     9A     -0.721949
      10A     -0.672446    11A     -0.662192    12A     -0.598252
      13A     -0.573273    14A     -0.549724    15A     -0.471345
      16A     -0.453070    17A     -0.435988

  @DF-RHF Final Energy:  -228.91865091596148

   => Energetics <=

    Nuclear Repulsion Energy =            133.9863864636002120
    One-Electron Energy =                -579.0261780646986836
    Two-Electron Energy =                 216.1211406851369929
    DFT Exchange-Correlation Energy =       0.0000000000000000
    Empirical Dispersion Energy =           0.0000000000000000
    PCM Polarization Energy =               0.0000000000000000
    EFP Energy =                            0.0000000000000000
    Total Energy =                       -228.9186509159615071
    Molecular point group: c1
  Basis Set: 6-31G*
  Basis Set:

  -Total Gradient:
     Atom            X                  Y                   Z
    ------   -----------------  -----------------  -----------------
       1       -0.000004992150     0.000015795666    -0.000000045631
       2       -0.000024804942     0.000032755457     0.000010272275
       3        0.000151187953    -0.000303602797     0.000406548074
       4       -0.000369443575     0.000522439782    -0.000801144408
       5        0.000023449992    -0.000005924429     0.000002082145
       6        0.000024791799    -0.000007011146     0.000017607787
       7        0.000694259734    -0.000789321124     0.000909797842
       8        0.000023298577     0.000007651144     0.000005089839
       9       -0.000019747271    -0.000005810011     0.000013738925
      10       -0.000498000113     0.000533027459    -0.000563946848

  **** Optimization is complete! (in 5 steps) ****
    Final optimized geometry and variables:
    Molecular point group: c1

    Geometry (in Angstrom), charge = 0, multiplicity = 1:

    H            2.251646229966    -0.567662469345    -0.135390884599
    O            1.357271508938    -0.563547284667     0.174816776429
    C            0.716332105594     0.610399531388    -0.240441884478
    C           -0.708283031566     0.597404915413     0.274178604508
    H            0.711302623606     0.680506410752    -1.329322582217
    H            1.219604113255     1.496383256451     0.141662572349
    O           -1.441964238950    -0.519134031736    -0.142139320042
    H           -1.197441689897     1.513781122771    -0.050877916004
    H           -0.696939199682     0.590195732341     1.357139588770
    H           -1.039875937479    -0.911386510653    -0.903523070361

  Mulliken Charges: (a.u.)
   Center  Symbol    Alpha    Beta     Spin     Total
       1     H     0.27835  0.27835  0.00000  0.44331
       2     O     4.36405  4.36405  0.00000 -0.72811
       3     C     3.02896  3.02896  0.00000 -0.05793
       4     C     2.98010  2.98010  0.00000  0.03979
       5     H     0.43171  0.43171  0.00000  0.13658
       6     H     0.42484  0.42484  0.00000  0.15032
       7     O     4.37111  4.37111  0.00000 -0.74222
       8     H     0.42932  0.42932  0.00000  0.14136
       9     H     0.41383  0.41383  0.00000  0.17234
      10     H     0.27773  0.27773  0.00000  0.44455

   Total alpha = 17.00000, Total beta = 17.00000, Total charge =  0.00000
