  ==> Input File <==

--------------------------------------------------------------------------
set {
	reference rhf
	basis 6-31G*
}

set_num_threads( 4 )
memory 2 gb

molecule MOL {
0 1

H	 1.148083	 -1.049780	 0.784252
O	 1.319262	 -0.618148	 -0.041729
C	 0.709265	 0.639550	 -0.033818
C	 1.525192	 1.725319	 -0.684931
H	 0.539482	 0.886737	 1.007948
H	 -0.271166	 0.597121	 -0.507083
C	 2.772391	 1.600466	 -1.091955
H	 1.013614	 2.667512	 -0.807588
H	 3.318442	 0.682754	 -0.969222
H	 3.295719	 2.419911	 -1.550883

	symmetry c1
}
set optking {
	frozen_dihedral = ("
		5 3 2 1
	")
}

ee = optimize('scf')
oeprop('DIPOLE', 'QUADRUPOLE', 'MULLIKEN_CHARGES')
f=open( 'psi4out.xyz', 'w' )
f.write( "10  " )
f.write( str(ee) + "\n" )
f.write( MOL.save_string_xyz() )
f.close()
--------------------------------------------------------------------------

    Molecular point group: c1
  Charge       = 0
  Multiplicity = 1
  Basis Set: 6-31G*
  Basis Set:
  @DF-RHF Final Energy:  -191.91311823953095
    Total Energy =                       -191.9131182395309168
    Molecular point group: c1
  Basis Set: 6-31G*
  Basis Set:
  Basis Set: 6-31G*
  Basis Set:
  @DF-RHF Final Energy:  -191.91428360498065
    Total Energy =                       -191.9142836049807102
  Basis Set: 6-31G*
  Basis Set:
  Basis Set: 6-31G*
  Basis Set:
  @DF-RHF Final Energy:  -191.91468193426300
    Total Energy =                       -191.9146819342630295
  Basis Set: 6-31G*
  Basis Set:
  Basis Set: 6-31G*
  Basis Set:
  @DF-RHF Final Energy:  -191.91469070154349
    Total Energy =                       -191.9146907015434635
  Basis Set: 6-31G*
  Basis Set:
  Charge       = 0
  Multiplicity = 1
  Basis Set: 6-31G*
  Basis Set:

    Orbital Energies (a.u.)
    -----------------------

    Doubly Occupied:

       1A    -20.558801     2A    -11.278591     3A    -11.223527
       4A    -11.209544     5A     -1.367160     6A     -1.053148
       7A     -0.922768     8A     -0.754090     9A     -0.707897
      10A     -0.643146    11A     -0.610247    12A     -0.582616
      13A     -0.511425    14A     -0.493717    15A     -0.448929
      16A     -0.355218

  @DF-RHF Final Energy:  -191.91469156393418

   => Energetics <=

    Nuclear Repulsion Energy =            119.3592783764810434
    One-Electron Energy =                -497.1062910103455010
    Two-Electron Energy =                 185.8323210699302308
    DFT Exchange-Correlation Energy =       0.0000000000000000
    Empirical Dispersion Energy =           0.0000000000000000
    PCM Polarization Energy =               0.0000000000000000
    EFP Energy =                            0.0000000000000000
    Total Energy =                       -191.9146915639342410
    Molecular point group: c1
  Basis Set: 6-31G*
  Basis Set:

  -Total Gradient:
     Atom            X                  Y                   Z
    ------   -----------------  -----------------  -----------------
       1        0.000667947644     0.000354266700     0.000354309357
       2       -0.001010309817    -0.000561586878    -0.000436255646
       3        0.000976417026     0.000536459767     0.000087699169
       4       -0.000022445860     0.000018916261     0.000067057665
       5       -0.000614705831    -0.000336600498    -0.000063377907
       6        0.000034293233     0.000000382117    -0.000001647939
       7        0.000002100662    -0.000004135360     0.000072098390
       8       -0.000008221440     0.000014538280    -0.000023511015
       9        0.000000425067    -0.000013139382    -0.000024329392
      10       -0.000025500684    -0.000009101009    -0.000032042683

  **** Optimization is complete! (in 5 steps) ****
    Final optimized geometry and variables:
    Molecular point group: c1

    Geometry (in Angstrom), charge = 0, multiplicity = 1:

    H           -0.365717749179    -1.810848243655     1.189781430069
    O           -0.196033812189    -1.347394062076     0.384121635497
    C           -0.866035738898    -0.116286531841     0.389596433543
    C           -0.035661778036     0.962279843243    -0.244704128143
    H           -1.122739027183     0.182247296829     1.404987139408
    H           -1.806763285679    -0.205340310699    -0.151457250204
    C            1.195952736965     0.816008617894    -0.686863036770
    H           -0.531125843125     1.917056896343    -0.330330115982
    H            1.707853144567    -0.125237735238    -0.620506140645
    H            1.726045124072     1.637071397248    -1.135611518190

  Mulliken Charges: (a.u.)
   Center  Symbol    Alpha    Beta     Spin     Total
       1     H     0.27793  0.27793  0.00000  0.44415
       2     O     4.36962  4.36962  0.00000 -0.73924
       3     C     2.99955  2.99955  0.00000  0.00089
       4     C     3.08901  3.08901  0.00000 -0.17802
       5     H     0.42698  0.42698  0.00000  0.14605
       6     H     0.42137  0.42137  0.00000  0.15727
       7     C     3.19022  3.19022  0.00000 -0.38044
       8     H     0.41253  0.41253  0.00000  0.17494
       9     H     0.39839  0.39839  0.00000  0.20321
      10     H     0.41440  0.41440  0.00000  0.17119

   Total alpha = 16.00000, Total beta = 16.00000, Total charge =  0.00000
