  ==> Input File <==

--------------------------------------------------------------------------
set {
	reference rhf
	basis 6-31G*
}

set_num_threads( 4 )
memory 2 gb

molecule MOL {
0 1

O	 -2.042549	 -1.228399	 -0.269030
C	 -1.653912	 -0.146171	 0.050137
C	 -0.332303	 0.024011	 0.778412
C	 -2.438579	 1.106236	 -0.272369
C	 0.845713	 -0.001731	 -0.208243
H	 -0.323783	 0.953829	 1.340327
H	 -0.235459	 -0.796807	 1.480410
C	 2.200309	 0.136118	 0.488247
H	 0.733710	 0.800019	 -0.936072
H	 0.811185	 -0.933796	 -0.764304
C	 2.887709	 -1.209589	 0.715752
H	 2.848213	 0.777933	 -0.104812
H	 2.062168	 0.638002	 1.443024
H	 3.070458	 -1.721301	 -0.224890
H	 2.277228	 -1.861617	 1.333503
H	 3.843677	 -1.081485	 1.213488
H	 -3.277823	 0.863061	 -0.908988
H	 -1.806773	 1.843019	 -0.759671
H	 -2.802853	 1.554979	 0.648059

	symmetry c1
}
set optking {
	frozen_dihedral = ("
		11 8 5 9
	")
}

ee = optimize('scf')
oeprop('DIPOLE', 'QUADRUPOLE', 'MULLIKEN_CHARGES')
f=open( 'psi4out.xyz', 'w' )
f.write( "19  " )
f.write( str(ee) + "\n" )
f.write( MOL.save_string_xyz() )
f.close()
--------------------------------------------------------------------------

    Molecular point group: c1
  Charge       = 0
  Multiplicity = 1
  Basis Set: 6-31G*
  Basis Set:
  @DF-RHF Final Energy:  -309.06066879120846
    Total Energy =                       -309.0606687912085704
    Molecular point group: c1
  Basis Set: 6-31G*
  Basis Set:
  Basis Set: 6-31G*
  Basis Set:
  @DF-RHF Final Energy:  -309.06078594435729
    Total Energy =                       -309.0607859443575762
  Basis Set: 6-31G*
  Basis Set:
  Basis Set: 6-31G*
  Basis Set:
  @DF-RHF Final Energy:  -309.06093347292943
    Total Energy =                       -309.0609334729293209
  Basis Set: 6-31G*
  Basis Set:
  Basis Set: 6-31G*
  Basis Set:
  @DF-RHF Final Energy:  -309.06094571583270
    Total Energy =                       -309.0609457158327587
  Basis Set: 6-31G*
  Basis Set:
  @DF-RHF Final Energy:  -309.06099360689285
    Total Energy =                       -309.0609936068928505
  Basis Set: 6-31G*
  Basis Set:
  @DF-RHF Final Energy:  -309.06101102936140
    Total Energy =                       -309.0610110293610546
  Basis Set: 6-31G*
  Basis Set:
  Basis Set: 6-31G*
  Basis Set:
  @DF-RHF Final Energy:  -309.06101465868403
    Total Energy =                       -309.0610146586839164
  Basis Set: 6-31G*
  Basis Set:
  Basis Set: 6-31G*
  Basis Set:
  @DF-RHF Final Energy:  -309.06101580120151
    Total Energy =                       -309.0610158012015063
  Basis Set: 6-31G*
  Basis Set:
  Charge       = 0
  Multiplicity = 1
  Basis Set: 6-31G*
  Basis Set:

    Orbital Energies (a.u.)
    -----------------------

    Doubly Occupied:

       1A    -20.547669     2A    -11.324624     3A    -11.230265
       4A    -11.229683     5A    -11.228312     6A    -11.224390
       7A    -11.213621     8A     -1.393365     9A     -1.089522
      10A     -1.027952    11A     -0.982303    12A     -0.892947
      13A     -0.803571    14A     -0.735522    15A     -0.654108
      16A     -0.651735    17A     -0.618134    18A     -0.606105
      19A     -0.595286    20A     -0.575733    21A     -0.543852
      22A     -0.536116    23A     -0.521089    24A     -0.497216
      25A     -0.480227    26A     -0.474382    27A     -0.462517
      28A     -0.396913

  @DF-RHF Final Energy:  -309.06101603844633

   => Energetics <=

    Nuclear Repulsion Energy =            303.0533235791737638
    One-Electron Energy =               -1019.1543637548263632
    Two-Electron Energy =                 407.0400241372063874
    DFT Exchange-Correlation Energy =       0.0000000000000000
    Empirical Dispersion Energy =           0.0000000000000000
    PCM Polarization Energy =               0.0000000000000000
    EFP Energy =                            0.0000000000000000
    Total Energy =                       -309.0610160384461551
    Molecular point group: c1
  Basis Set: 6-31G*
  Basis Set:

  -Total Gradient:
     Atom            X                  Y                   Z
    ------   -----------------  -----------------  -----------------
       1       -0.000001669513     0.000000397052    -0.000011859021
       2       -0.000015500030    -0.000006084392     0.000031613094
       3        0.000001993451     0.000005527889    -0.000015105395
       4        0.000006855280     0.000000627458    -0.000013571103
       5       -0.001325423853     0.002661806042     0.002212328862
       6        0.000002561095     0.000000526576    -0.000001029868
       7        0.000003694099     0.000001714141    -0.000003964509
       8       -0.001252230337    -0.000764356610     0.002593703509
       9        0.001416501848    -0.002084294418    -0.002505599547
      10       -0.000006383564    -0.000000787038    -0.000001125304
      11        0.001162605399     0.000189166970    -0.002302692698
      12        0.000002897938    -0.000004710347     0.000006877927
      13        0.000002252670    -0.000005312287     0.000006118931
      14       -0.000002840698     0.000002816632     0.000001485209
      15        0.000001746011     0.000002750545     0.000000510143
      16        0.000004401782     0.000001095427     0.000001311281
      17       -0.000000217993     0.000000198141     0.000000081084
      18       -0.000000840795     0.000001066793     0.000000094957
      19       -0.000000402784    -0.000002148570     0.000000822448

  **** Optimization is complete! (in 9 steps) ****
    Final optimized geometry and variables:
    Molecular point group: c1

    Geometry (in Angstrom), charge = 0, multiplicity = 1:

    O           -1.949405464180    -1.043268821037    -0.444961649403
    C           -1.580367963620     0.047212169465    -0.130572027067
    C           -0.262543096311     0.244717163413     0.597708318914
    C           -2.386639118081     1.284053120096    -0.459678783008
    C            0.917844057457     0.232980037958    -0.386335630819
    H           -0.269709447365     1.178489812319     1.152651239252
    H           -0.153422525491    -0.569258546618     1.306127082488
    C            2.288896691827     0.329383177360     0.310455071076
    H            0.812375697846     1.035446185961    -1.111995377420
    H            0.869255897684    -0.686443556390    -0.962153150600
    C            2.948595479257    -1.032150317642     0.533283555261
    H            2.955664794250     0.938007397128    -0.293867273891
    H            2.186506970110     0.850060608674     1.259146183691
    H            3.141681630089    -1.526231160522    -0.413863527294
    H            2.317962168014    -1.689766045598     1.125052870281
    H            3.895640939367    -0.927531119803     1.053571084192
    H           -3.221685268676     1.022929580813    -1.094716857042
    H           -1.767425017844     2.028618038310    -0.951333442125
    H           -2.758371057834     1.731833546217     0.458231058019

  Mulliken Charges: (a.u.)
   Center  Symbol    Alpha    Beta     Spin     Total
       1     O     4.26199  4.26199  0.00000 -0.52397
       2     C     2.73768  2.73768  0.00000  0.52465
       3     C     3.20072  3.20072  0.00000 -0.40143
       4     C     3.28952  3.28952  0.00000 -0.57903
       5     C     3.16623  3.16623  0.00000 -0.33246
       6     H     0.41643  0.41643  0.00000  0.16714
       7     H     0.40080  0.40080  0.00000  0.19840
       8     C     3.15474  3.15474  0.00000 -0.30949
       9     H     0.41805  0.41805  0.00000  0.16390
      10     H     0.40496  0.40496  0.00000  0.19008
      11     C     3.24053  3.24053  0.00000 -0.48107
      12     H     0.41798  0.41798  0.00000  0.16405
      13     H     0.42040  0.42040  0.00000  0.15919
      14     H     0.41863  0.41863  0.00000  0.16274
      15     H     0.41920  0.41920  0.00000  0.16161
      16     H     0.41865  0.41865  0.00000  0.16271
      17     H     0.39701  0.39701  0.00000  0.20598
      18     H     0.40971  0.40971  0.00000  0.18058
      19     H     0.40678  0.40678  0.00000  0.18644

   Total alpha = 28.00000, Total beta = 28.00000, Total charge = -0.00000
