  ==> Input File <==

--------------------------------------------------------------------------
set {
	reference rhf
	basis 6-31G*
}

set_num_threads( 4 )
memory 2 gb

molecule MOL {
0 1

H	 -2.644411	 -0.999532	 -0.263134
O	 -2.315789	 -0.143634	 -0.024262
C	 -0.945151	 -0.064130	 -0.333158
H	 -0.813375	 -0.223047	 -1.403232
C	 -0.232801	 -1.184051	 0.407206
C	 -0.355424	 1.302939	 0.054523
H	 -0.318824	 -0.992899	 1.473524
H	 -0.742411	 -2.122033	 0.217954
C	 1.248522	 -1.270719	 -0.013048
H	 -0.546144	 2.018388	 -0.742941
H	 -0.890929	 1.656788	 0.930149
C	 1.156425	 1.235120	 0.355905
H	 1.825384	 -1.683246	 0.809111
H	 1.357782	 -1.965923	 -0.840362
C	 1.828244	 0.099899	 -0.419275
H	 1.626109	 2.185622	 0.123525
H	 1.309438	 1.071213	 1.419539
H	 2.901447	 0.112642	 -0.255830
H	 1.681817	 0.263413	 -1.484607

	symmetry c1
}
set optking {
	frozen_dihedral = ("
		1 2 3 4
	")
}

ee = optimize('scf')
oeprop('DIPOLE', 'QUADRUPOLE', 'MULLIKEN_CHARGES')
f=open( 'psi4out.xyz', 'w' )
f.write( "19  " )
f.write( str(ee) + "\n" )
f.write( MOL.save_string_xyz() )
f.close()
--------------------------------------------------------------------------

    Molecular point group: c1
  Charge       = 0
  Multiplicity = 1
  Basis Set: 6-31G*
  Basis Set:
  @DF-RHF Final Energy:  -309.04675006049217
    Total Energy =                       -309.0467500604920588
    Molecular point group: c1
  Basis Set: 6-31G*
  Basis Set:
  Basis Set: 6-31G*
  Basis Set:
  @DF-RHF Final Energy:  -309.04856857324086
    Total Energy =                       -309.0485685732403454
  Basis Set: 6-31G*
  Basis Set:
  Basis Set: 6-31G*
  Basis Set:
  @DF-RHF Final Energy:  -309.04887965694724
    Total Energy =                       -309.0488796569470651
  Basis Set: 6-31G*
  Basis Set:
  Basis Set: 6-31G*
  Basis Set:
  @DF-RHF Final Energy:  -309.04888660072976
    Total Energy =                       -309.0488866007294746
  Basis Set: 6-31G*
  Basis Set:
  Charge       = 0
  Multiplicity = 1
  Basis Set: 6-31G*
  Basis Set:

    Orbital Energies (a.u.)
    -----------------------

    Doubly Occupied:

       1A    -20.550358     2A    -11.269197     3A    -11.218382
       4A    -11.216019     5A    -11.214544     6A    -11.214020
       7A    -11.208440     8A     -1.359314     9A     -1.108776
      10A     -1.002310    11A     -0.988243    12A     -0.847915
      13A     -0.830608    14A     -0.733330    15A     -0.704513
      16A     -0.656167    17A     -0.616722    18A     -0.609473
      19A     -0.568819    20A     -0.544620    21A     -0.529877
      22A     -0.520195    23A     -0.498406    24A     -0.485011
      25A     -0.466627    26A     -0.448939    27A     -0.428410
      28A     -0.411185

  @DF-RHF Final Energy:  -309.04888754489576

   => Energetics <=

    Nuclear Repulsion Energy =            331.4408176641642854
    One-Electron Energy =               -1076.4785698580710687
    Two-Electron Energy =                 435.9888646490113047
    DFT Exchange-Correlation Energy =       0.0000000000000000
    Empirical Dispersion Energy =           0.0000000000000000
    PCM Polarization Energy =               0.0000000000000000
    EFP Energy =                            0.0000000000000000
    Total Energy =                       -309.0488875448954218
    Molecular point group: c1
  Basis Set: 6-31G*
  Basis Set:

  -Total Gradient:
     Atom            X                  Y                   Z
    ------   -----------------  -----------------  -----------------
       1        0.000092266114    -0.000167008038     0.000406605499
       2       -0.000099888306     0.000275308732    -0.000537727282
       3        0.000021134313    -0.000489937438     0.000251323866
       4       -0.000010490084     0.000392574167    -0.000035122678
       5       -0.000059700098     0.000020420967    -0.000048088728
       6        0.000024060572     0.000016139179    -0.000029949741
       7        0.000001444735     0.000000999751    -0.000008237788
       8       -0.000000994921     0.000005017440    -0.000001016534
       9        0.000037284438     0.000016187825     0.000000796021
      10       -0.000011786225     0.000013459765    -0.000002585374
      11       -0.000016618010    -0.000044253456    -0.000007766211
      12        0.000012158720     0.000013511437    -0.000012868426
      13        0.000027252163    -0.000002261329     0.000012697216
      14        0.000004511074     0.000003257601     0.000011903819
      15       -0.000016363688    -0.000030046215     0.000003661172
      16       -0.000002745553    -0.000001849022     0.000001761484
      17       -0.000001182775    -0.000002338144     0.000000250256
      18        0.000000251036    -0.000028981826    -0.000007111952
      19       -0.000000593505     0.000009798602     0.000001475381

  **** Optimization is complete! (in 5 steps) ****
    Final optimized geometry and variables:
    Molecular point group: c1

    Geometry (in Angstrom), charge = 0, multiplicity = 1:

    H           -2.717396879682    -0.870152121743    -0.270248873154
    O           -2.319867789558    -0.046722126237    -0.022633648960
    C           -0.947131919777    -0.078100368236    -0.330692942514
    H           -0.826635501680    -0.236738037294    -1.402226846931
    C           -0.213628648010    -1.191783116426     0.409021867101
    C           -0.371030046223     1.292985004626     0.041814042940
    H           -0.296284159680    -1.000840218982     1.475575500940
    H           -0.702724108690    -2.146666853725     0.228838234121
    C            1.266105970933    -1.265301989490    -0.019942628726
    H           -0.566087725378     1.990193747218    -0.767076014008
    H           -0.920159944285     1.654577120098     0.904368596371
    C            1.137396802952     1.236981618674     0.356296414713
    H            1.850836646365    -1.677434132269     0.796821921192
    H            1.376995059646    -1.954698423947    -0.851910485821
    C            1.828545823358     0.114465056940    -0.420290214082
    H            1.598418329838     2.193749782186     0.132425989188
    H            1.285897353307     1.069480530961     1.420332697812
    H            2.900960382523     0.139652298984    -0.253465371265
    H            1.682656646444     0.279614497068    -1.485327976857

  Mulliken Charges: (a.u.)
   Center  Symbol    Alpha    Beta     Spin     Total
       1     H     0.28314  0.28314  0.00000  0.43373
       2     O     4.37873  4.37873  0.00000 -0.75747
       3     C     2.90686  2.90686  0.00000  0.18627
       4     H     0.43033  0.43033  0.00000  0.13935
       5     C     3.17559  3.17559  0.00000 -0.35118
       6     C     3.16291  3.16291  0.00000 -0.32581
       7     H     0.41448  0.41448  0.00000  0.17104
       8     H     0.42421  0.42421  0.00000  0.15158
       9     C     3.15996  3.15996  0.00000 -0.31991
      10     H     0.41637  0.41637  0.00000  0.16726
      11     H     0.40759  0.40759  0.00000  0.18482
      12     C     3.16541  3.16541  0.00000 -0.33083
      13     H     0.41735  0.41735  0.00000  0.16531
      14     H     0.41930  0.41930  0.00000  0.16141
      15     C     3.16386  3.16386  0.00000 -0.32772
      16     H     0.41631  0.41631  0.00000  0.16739
      17     H     0.41988  0.41988  0.00000  0.16024
      18     H     0.41656  0.41656  0.00000  0.16688
      19     H     0.42117  0.42117  0.00000  0.15766

   Total alpha = 28.00000, Total beta = 28.00000, Total charge = -0.00000
