                              Psi4 1.0.54 Driver

  ==> Input File <==

--------------------------------------------------------------------------
set {
	reference rhf
	basis cc-pvtz
}

set_num_threads( 4 )
memory 2 gb

molecule MOL {
0 1

H	 -0.939693	 0.000281	 1.681345
O	 -0.046262	 -0.000157	 1.387678
C	 -0.000837	 0.000006	 -0.025491
C	 -1.229874	 0.720398	 -0.576538
C	 1.282521	 0.681892	 -0.495777
C	 -0.010345	 -1.467817	 -0.429960
H	 -1.241316	 0.705210	 -1.660250
H	 -1.241452	 1.758969	 -0.259824
H	 -2.134857	 0.248013	 -0.215538
H	 1.363073	 0.665236	 -1.576527
H	 1.305510	 1.719956	 -0.178020
H	 2.147579	 0.182419	 -0.077844
H	 0.022753	 -1.571856	 -1.508092
H	 -0.907002	 -1.951545	 -0.063592
H	 0.845658	 -1.978440	 -0.007187

	symmetry c1
}
set optking {
	frozen_dihedral = ("
		4 3 2 1
	")
}

ee,wfn = optimize('scf', return_wfn=True)
oeprop( wfn, 'DIPOLE', 'QUADRUPOLE', 'MULLIKEN_CHARGES')
f=open( 'psi4out.xyz', 'w' )
f.write( "15  " )
f.write( str(ee) + "\n" )
f.write( MOL.save_string_xyz() )
f.close()
--------------------------------------------------------------------------

    Molecular point group: c1
  Charge       = 0
  Multiplicity = 1
  Basis Set: CC-PVTZ
  Basis Set:
  @DF-RHF Final Energy:  -232.24429039616345
    Total Energy =                       -232.2442903961635920
    Molecular point group: c1
  Basis Set: CC-PVTZ
  Basis Set:
  Basis Set: CC-PVTZ
  Basis Set:
  @DF-RHF Final Energy:  -232.24528540922088
    Total Energy =                       -232.2452854092207986
  Basis Set: CC-PVTZ
  Basis Set:
  Basis Set: CC-PVTZ
  Basis Set:
  @DF-RHF Final Energy:  -232.24573844561587
    Total Energy =                       -232.2457384456158707
  Basis Set: CC-PVTZ
  Basis Set:
  Basis Set: CC-PVTZ
  Basis Set:
  @DF-RHF Final Energy:  -232.24574399569448
    Total Energy =                       -232.2457439956945677
  Basis Set: CC-PVTZ
  Basis Set:
  Basis Set: CC-PVTZ
  Basis Set:
  @DF-RHF Final Energy:  -232.24574868337336
    Total Energy =                       -232.2457486833731650
  Basis Set: CC-PVTZ
  Basis Set:
  Charge       = 0
  Multiplicity = 1
  Basis Set: CC-PVTZ
  Basis Set:

    Orbital Energies (a.u.)
    -----------------------

    Doubly Occupied:

       1A    -20.541198     2A    -11.280994     3A    -11.214323
       4A    -11.204886     5A    -11.203674     6A     -1.363841
       7A     -1.065481     8A     -0.945087     9A     -0.937742
      10A     -0.778555    11A     -0.672274    12A     -0.624575
      13A     -0.622665    14A     -0.576351    15A     -0.557306
      16A     -0.533930    17A     -0.517076    18A     -0.511415
      19A     -0.503748    20A     -0.458923    21A     -0.427316

  @DF-RHF Final Energy:  -232.24574916915972

   => Energetics <=

    Nuclear Repulsion Energy =            200.6230985165642267
    One-Electron Energy =                -712.6549672409838649
    Two-Electron Energy =                 279.7861195552598019
    DFT Exchange-Correlation Energy =       0.0000000000000000
    Empirical Dispersion Energy =           0.0000000000000000
    PCM Polarization Energy =               0.0000000000000000
    EFP Energy =                            0.0000000000000000
    Total Energy =                       -232.2457491691598079
    Molecular point group: c1
  Basis Set: CC-PVTZ
  Basis Set:

  -Total Gradient:
     Atom            X                  Y                   Z
    ------   -----------------  -----------------  -----------------
       1        0.000094897512     0.001840803808    -0.000172208393
       2       -0.000335368655    -0.002640684959     0.000249355194
       3        0.000856038912     0.001721001087    -0.000208607019
       4       -0.000636040701    -0.000942852315     0.000115512189
       5        0.000002847508    -0.000001340470    -0.000001281611
       6        0.000014069168     0.000003650291     0.000032670769
       7       -0.000013067829     0.000001415845    -0.000019037906
       8        0.000005788360     0.000009266469    -0.000007326663
       9       -0.000005475316     0.000005174179     0.000007199407
      10        0.000003574702    -0.000001512467     0.000010561262
      11       -0.000002268756     0.000009714923    -0.000001372236
      12        0.000012755256    -0.000002958619     0.000004608454
      13       -0.000000098255     0.000003204398    -0.000006080526
      14        0.000006662450     0.000003836175     0.000000299914
      15       -0.000004314356    -0.000008718346    -0.000004292835

  **** Optimization is complete! (in 6 steps) ****
    Final optimized geometry and variables:
    Molecular point group: c1

    Geometry (in Angstrom), charge = 0, multiplicity = 1:

    H           -0.803950821916     0.208614548247     1.742855501226
    O            0.059883362101     0.124595470542     1.383811775751
    C            0.000389043074    -0.002876145144    -0.025184121394
    C           -1.219495278039     0.740719295484    -0.562693509966
    C            1.289615647430     0.608816707669    -0.557438979471
    C           -0.078992322946    -1.486760751405    -0.380464067754
    H           -1.270960679432     0.676193530598    -1.642732919811
    H           -1.179850658481     1.787790708084    -0.285758708876
    H           -2.135870410781     0.315614543498    -0.163660057104
    H            1.350947579265     0.510220572179    -1.635052841122
    H            1.342237130071     1.659620414010    -0.301434924779
    H            2.145409609194     0.111868560768    -0.117936585771
    H           -0.088375541691    -1.635869758538    -1.454497083288
    H           -0.980151264300    -1.929062954349     0.030102006745
    H            0.771177207080    -2.014253362598     0.033227672950

  Mulliken Charges: (a.u.)
   Center  Symbol    Alpha    Beta     Spin     Total
       1     H     0.39379  0.39379  0.00000  0.21242
       2     O     4.21336  4.21336  0.00000 -0.42672
       3     C     2.87905  2.87905  0.00000  0.24190
       4     C     3.15750  3.15750  0.00000 -0.31500
       5     C     3.14105  3.14105  0.00000 -0.28211
       6     C     3.14414  3.14414  0.00000 -0.28828
       7     H     0.45222  0.45222  0.00000  0.09555
       8     H     0.44565  0.44565  0.00000  0.10871
       9     H     0.45466  0.45466  0.00000  0.09067
      10     H     0.45914  0.45914  0.00000  0.08172
      11     H     0.45103  0.45103  0.00000  0.09794
      12     H     0.44716  0.44716  0.00000  0.10567
      13     H     0.45814  0.45814  0.00000  0.08371
      14     H     0.45497  0.45497  0.00000  0.09005
      15     H     0.44812  0.44812  0.00000  0.10375

   Total alpha = 21.00000, Total beta = 21.00000, Total charge =  0.00000

*** Psi4 exiting successfully. Buy a developer a beer!
