  ==> Input File <==

--------------------------------------------------------------------------
set {
	reference rhf
	basis 6-31G*
}

set_num_threads( 4 )
memory 2 gb

molecule MOL {
0 1

H	 3.161712	 0.804311	 -1.274125
O	 2.229777	 0.661665	 -1.140319
C	 2.077727	 -0.067559	 -0.035091
C	 0.624473	 -0.343591	 0.253101
O	 3.003995	 -0.433183	 0.612491
C	 -0.265902	 0.883932	 0.072916
H	 0.324016	 -1.163849	 -0.390541
H	 0.565024	 -0.726111	 1.268924
C	 -1.728698	 0.646073	 0.462102
H	 -0.209144	 1.219470	 -0.958188
H	 0.135059	 1.692851	 0.673903
C	 -2.482460	 -0.343073	 -0.431425
H	 -2.245265	 1.602650	 0.432430
H	 -1.779332	 0.308348	 1.496285
C	 -3.960546	 -0.461025	 -0.060175
H	 -2.395034	 -0.026811	 -1.468912
H	 -2.024850	 -1.327147	 -0.371646
H	 -4.472726	 -1.168004	 -0.705284
H	 -4.465146	 0.496508	 -0.151489
H	 -4.081218	 -0.800940	 0.964585

	symmetry c1
}
set optking {
	frozen_dihedral = ("
		5 3 4 7
	")
}

ee = optimize('scf')
oeprop('DIPOLE', 'QUADRUPOLE', 'MULLIKEN_CHARGES')
f=open( 'psi4out.xyz', 'w' )
f.write( "20  " )
f.write( str(ee) + "\n" )
f.write( MOL.save_string_xyz() )
f.close()
--------------------------------------------------------------------------

    Molecular point group: c1
  Charge       = 0
  Multiplicity = 1
  Basis Set: 6-31G*
  Basis Set:
  @DF-RHF Final Energy:  -383.94658695634752
    Total Energy =                       -383.9465869563478577
    Molecular point group: c1
  Basis Set: 6-31G*
  Basis Set:
  Basis Set: 6-31G*
  Basis Set:
  @DF-RHF Final Energy:  -383.94534090716348
    Total Energy =                       -383.9453409071638248
  Basis Set: 6-31G*
  Basis Set:
  Basis Set: 6-31G*
  Basis Set:
  @DF-RHF Final Energy:  -383.94687347503344
    Total Energy =                       -383.9468734750331578
  Basis Set: 6-31G*
  Basis Set:
  Basis Set: 6-31G*
  Basis Set:
  @DF-RHF Final Energy:  -383.94699931071699
    Total Energy =                       -383.9469993107173309
  Basis Set: 6-31G*
  Basis Set:
  Basis Set: 6-31G*
  Basis Set:
  @DF-RHF Final Energy:  -383.94693543489581
    Total Energy =                       -383.9469354348957495
  Basis Set: 6-31G*
  Basis Set:
  Basis Set: 6-31G*
  Basis Set:
  @DF-RHF Final Energy:  -383.94700562361663
    Total Energy =                       -383.9470056236165760
  Basis Set: 6-31G*
  Basis Set:
  Charge       = 0
  Multiplicity = 1
  Basis Set: 6-31G*
  Basis Set:

    Orbital Energies (a.u.)
    -----------------------

    Doubly Occupied:

       1A    -20.613326     2A    -20.548923     3A    -11.380223
       4A    -11.239503     5A    -11.229858     6A    -11.223459
       7A    -11.222174     8A    -11.213793     9A     -1.474298
      10A     -1.363941    11A     -1.098914    12A     -1.042008
      13A     -0.960497    14A     -0.863223    15A     -0.824111
      16A     -0.791539    17A     -0.699035    18A     -0.683156
      19A     -0.658575    20A     -0.630207    21A     -0.610433
      22A     -0.592074    23A     -0.575599    24A     -0.551570
      25A     -0.549965    26A     -0.517963    27A     -0.500236
      28A     -0.481314    29A     -0.476695    30A     -0.469925
      31A     -0.459009    32A     -0.434312

  @DF-RHF Final Energy:  -383.94700574271815

   => Energetics <=

    Nuclear Repulsion Energy =            376.6283879273053117
    One-Electron Energy =               -1269.1910716139182114
    Two-Electron Energy =                 508.6156779438946387
    DFT Exchange-Correlation Energy =       0.0000000000000000
    Empirical Dispersion Energy =           0.0000000000000000
    PCM Polarization Energy =               0.0000000000000000
    EFP Energy =                            0.0000000000000000
    Total Energy =                       -383.9470057427182610
    Molecular point group: c1
  Basis Set: 6-31G*
  Basis Set:

  -Total Gradient:
     Atom            X                  Y                   Z
    ------   -----------------  -----------------  -----------------
       1        0.000006062622     0.000003703960    -0.000010511211
       2        0.000015826808    -0.000002222352     0.000021482795
       3       -0.000030122307     0.000899297212     0.000895418932
       4       -0.000219169365     0.000359955168    -0.000950507843
       5        0.000053108817    -0.000700149194    -0.000542886903
       6        0.000000200840     0.000003795756    -0.000030545034
       7        0.000214990687    -0.000571791745     0.000593336864
       8       -0.000000356815    -0.000001307954    -0.000011031391
       9       -0.000024893290     0.000027575283    -0.000001824527
      10        0.000014301427     0.000019289684    -0.000001298777
      11       -0.000013469185    -0.000012875627    -0.000007993514
      12        0.000018569840    -0.000036792827     0.000034422159
      13       -0.000036055906    -0.000014150581     0.000011523925
      14        0.000003917915    -0.000005889219    -0.000000067248
      15       -0.000000986871     0.000035665252    -0.000015547880
      16        0.000018443064    -0.000010165545     0.000014729580
      17       -0.000019034043    -0.000002365159     0.000005979950
      18        0.000001163811     0.000012927554    -0.000011033331
      19       -0.000006183820     0.000005365632     0.000013904004
      20        0.000003685766    -0.000009865298    -0.000007550547

  **** Optimization is complete! (in 7 steps) ****
    Final optimized geometry and variables:
    Molecular point group: c1

    Geometry (in Angstrom), charge = 0, multiplicity = 1:

    H            3.258256477304     0.696753861364    -1.184307051830
    O            2.317182163961     0.597362079786    -1.077133528465
    C            2.104122149746    -0.134556551872     0.015777028119
    C            0.641676050200    -0.394960736426     0.272022875499
    O            2.999374827607    -0.551785441071     0.676433459487
    C           -0.259425313681     0.834572934777     0.103403013146
    H            0.346697437604    -1.186084516420    -0.411579667301
    H            0.570611965614    -0.797230846851     1.274828527900
    C           -1.715734604145     0.583174874790     0.508891494779
    H           -0.217584616019     1.176282789419    -0.925074781287
    H            0.135238838848     1.643287637121     0.712925296114
    C           -2.466412687714    -0.416275946455    -0.375436825421
    H           -2.241996412238     1.534596071940     0.481466569975
    H           -1.751335401597     0.247768985495     1.543970375828
    C           -3.942028641021    -0.540701117471     0.003510547301
    H           -2.385393878013    -0.106368019436    -1.415326682851
    H           -2.002427759939    -1.396880937063    -0.310649577185
    H           -4.452702546098    -1.253994698273    -0.635695154961
    H           -4.452810022458     0.413310529542    -0.090390915231
    H           -4.055816641094    -0.876221881392     1.030426455526

  Mulliken Charges: (a.u.)
   Center  Symbol    Alpha    Beta     Spin     Total
       1     H     0.26743  0.26743  0.00000  0.46514
       2     O     4.34725  4.34725  0.00000 -0.69450
       3     C     2.62640  2.62640  0.00000  0.74720
       4     C     3.20800  3.20800  0.00000 -0.41600
       5     O     4.28109  4.28109  0.00000 -0.56218
       6     C     3.16153  3.16153  0.00000 -0.32306
       7     H     0.39865  0.39865  0.00000  0.20269
       8     H     0.39686  0.39686  0.00000  0.20628
       9     C     3.15470  3.15470  0.00000 -0.30940
      10     H     0.40713  0.40713  0.00000  0.18575
      11     H     0.41443  0.41443  0.00000  0.17114
      12     C     3.15534  3.15534  0.00000 -0.31067
      13     H     0.41802  0.41802  0.00000  0.16397
      14     H     0.42138  0.42138  0.00000  0.15725
      15     C     3.23942  3.23942  0.00000 -0.47885
      16     H     0.42130  0.42130  0.00000  0.15740
      17     H     0.42169  0.42169  0.00000  0.15661
      18     H     0.41793  0.41793  0.00000  0.16414
      19     H     0.42076  0.42076  0.00000  0.15847
      20     H     0.42069  0.42069  0.00000  0.15862

   Total alpha = 32.00000, Total beta = 32.00000, Total charge =  0.00000
