  ==> Input File <==

--------------------------------------------------------------------------
set {
	reference rhf
	basis 6-31G*
}

set_num_threads( 4 )
memory 2 gb

molecule MOL {
0 1

H	 -2.698709	 -0.000305	 0.034435
C	 -1.693833	 0.000034	 0.434417
O	 -0.828952	 -0.000968	 -0.659236
H	 -1.574200	 0.882896	 1.055746
H	 -1.574147	 -0.881698	 1.057355
C	 0.559449	 -0.000018	 -0.420814
C	 1.365678	 0.385873	 -1.659362
C	 0.942747	 0.829528	 0.803071
H	 0.771644	 -1.038771	 -0.197215
H	 1.032653	 -0.186573	 -2.518401
H	 2.418193	 0.175662	 -1.497317
H	 1.276655	 1.441623	 -1.895224
H	 0.316538	 0.564703	 1.648167
H	 1.976799	 0.637839	 1.072249
H	 0.844749	 1.895475	 0.624199

	symmetry c1
}
set optking {
	frozen_dihedral = ("
		9 6 3 2
	")
}

ee = optimize('scf')
oeprop('DIPOLE', 'QUADRUPOLE', 'MULLIKEN_CHARGES')
f=open( 'psi4out.xyz', 'w' )
f.write( "15  " )
f.write( str(ee) + "\n" )
f.write( MOL.save_string_xyz() )
f.close()
--------------------------------------------------------------------------

    Molecular point group: c1
  Charge       = 0
  Multiplicity = 1
  Basis Set: 6-31G*
  Basis Set:
  @DF-RHF Final Energy:  -232.13233407811296
    Total Energy =                       -232.1323340781128763
    Molecular point group: c1
  Basis Set: 6-31G*
  Basis Set:
  Basis Set: 6-31G*
  Basis Set:
  @DF-RHF Final Energy:  -232.13608013155991
    Total Energy =                       -232.1360801315599929
  Basis Set: 6-31G*
  Basis Set:
  Basis Set: 6-31G*
  Basis Set:
  @DF-RHF Final Energy:  -232.13845087952620
    Total Energy =                       -232.1384508795263173
  Basis Set: 6-31G*
  Basis Set:
  Basis Set: 6-31G*
  Basis Set:
  @DF-RHF Final Energy:  -232.13850120321169
    Total Energy =                       -232.1385012032120017
  Basis Set: 6-31G*
  Basis Set:
  Basis Set: 6-31G*
  Basis Set:
  @DF-RHF Final Energy:  -232.13860335514400
    Total Energy =                       -232.1386033551439141
  Basis Set: 6-31G*
  Basis Set:
  Basis Set: 6-31G*
  Basis Set:
  @DF-RHF Final Energy:  -232.13861398941341
    Total Energy =                       -232.1386139894136704
  Basis Set: 6-31G*
  Basis Set:
  Charge       = 0
  Multiplicity = 1
  Basis Set: 6-31G*
  Basis Set:

    Orbital Energies (a.u.)
    -----------------------

    Doubly Occupied:

       1A    -20.548993     2A    -11.274572     3A    -11.262314
       4A    -11.213442     5A    -11.204989     6A     -1.372141
       7A     -1.052838     8A     -0.948344     9A     -0.912678
      10A     -0.787352    11A     -0.675828    12A     -0.640648
      13A     -0.631609    14A     -0.592952    15A     -0.550275
      16A     -0.543172    17A     -0.525043    18A     -0.499859
      19A     -0.494863    20A     -0.449451    21A     -0.406387

  @DF-RHF Final Energy:  -232.13861447213188

   => Energetics <=

    Nuclear Repulsion Energy =            197.9288417299459581
    One-Electron Energy =                -706.9594140474523556
    Two-Electron Energy =                 276.8919578453746908
    DFT Exchange-Correlation Energy =       0.0000000000000000
    Empirical Dispersion Energy =           0.0000000000000000
    PCM Polarization Energy =               0.0000000000000000
    EFP Energy =                            0.0000000000000000
    Total Energy =                       -232.1386144721317351
    Molecular point group: c1
  Basis Set: 6-31G*
  Basis Set:

  -Total Gradient:
     Atom            X                  Y                   Z
    ------   -----------------  -----------------  -----------------
       1        0.000002403075     0.000006854501    -0.000022392606
       2        0.000210943059     0.003940822030     0.000239894739
       3       -0.000064847456    -0.005958541934    -0.001378009463
       4        0.000009375084    -0.000003087925    -0.000033903545
       5        0.000008124052    -0.000004512128     0.000008985441
       6       -0.001139868154     0.002609969366     0.005780471818
       7       -0.000004332229    -0.000009122308    -0.000038388675
       8       -0.000037077627     0.000013310977     0.000020629162
       9        0.001021614122    -0.000590116661    -0.004551714092
      10        0.000002779917     0.000020796373    -0.000043851031
      11       -0.000008071609    -0.000019070214    -0.000006001608
      12        0.000010776461    -0.000015759630     0.000027007360
      13        0.000008930228     0.000007536153     0.000012292419
      14       -0.000021490915    -0.000017825292    -0.000026589716
      15        0.000000741991     0.000018746691     0.000011569797

  **** Optimization is complete! (in 7 steps) ****
    Final optimized geometry and variables:
    Molecular point group: c1

    Geometry (in Angstrom), charge = 0, multiplicity = 1:

    H           -2.754629816722    -0.271342360954     0.192804017401
    C           -1.773995548936    -0.205320056099     0.644777142971
    O           -0.849634040972    -0.195011642475    -0.396708747788
    H           -1.730856837693     0.699038177620     1.243345850674
    H           -1.638710229240    -1.063594932246     1.301173134176
    C            0.518048362218    -0.291933548496    -0.075779991396
    C            1.263516678944     0.117965331787    -1.339041004303
    C            0.943875326902     0.555406567226     1.119368862695
    H            0.751105573557    -1.339949879648     0.115712407072
    H            0.921806999902    -0.473205027899    -2.180647583542
    H            2.332622149140    -0.030951242707    -1.223694741038
    H            1.080772417393     1.163756089257    -1.563445176295
    H            0.490295887155     0.225193867827     2.046953905827
    H            2.019930457592     0.491359802250     1.242835505466
    H            0.683281730028     1.597661429323     0.961665343494

  Mulliken Charges: (a.u.)
   Center  Symbol    Alpha    Beta     Spin     Total
       1     H     0.41249  0.41249  0.00000  0.17502
       2     C     3.07897  3.07897  0.00000 -0.15793
       3     O     4.31320  4.31320  0.00000 -0.62640
       4     H     0.42741  0.42741  0.00000  0.14517
       5     H     0.43213  0.43213  0.00000  0.13575
       6     C     2.90442  2.90442  0.00000  0.19116
       7     C     3.24007  3.24007  0.00000 -0.48015
       8     C     3.26038  3.26038  0.00000 -0.52076
       9     H     0.43008  0.43008  0.00000  0.13984
      10     H     0.41106  0.41106  0.00000  0.17787
      11     H     0.42458  0.42458  0.00000  0.15083
      12     H     0.41763  0.41763  0.00000  0.16475
      13     H     0.41646  0.41646  0.00000  0.16709
      14     H     0.41608  0.41608  0.00000  0.16784
      15     H     0.41504  0.41504  0.00000  0.16992

   Total alpha = 21.00000, Total beta = 21.00000, Total charge = -0.00000
