  ==> Input File <==

--------------------------------------------------------------------------
set {
	reference rhf
	basis 6-31G*
}

set_num_threads( 4 )
memory 2 gb

molecule MOL {
0 1

H	 -3.301617	 0.570527	 0.000000
C	 -2.250981	 0.344174	 0.000000
C	 -1.813665	 -0.976045	 0.000000
C	 -1.315303	 1.358057	 0.000000
H	 -2.528860	 -1.779366	 0.000000
C	 -0.467298	 -1.270142	 0.000000
H	 -1.635074	 2.385107	 0.000000
C	 0.047081	 1.078114	 0.000000
H	 -0.115948	 -2.285222	 0.000000
C	 0.472063	 -0.241155	 0.000000
H	 0.749976	 1.888426	 0.000000
O	 1.765256	 -0.628444	 0.000000
C	 2.430192	 -0.827581	 1.213786
H	 2.468770	 0.084677	 1.799986
H	 3.435880	 -1.128767	 0.961415
H	 1.960983	 -1.610871	 1.799986

	symmetry c1
}
set optking {
	frozen_dihedral = ("
		13 12 10 8
	")
}

ee = optimize('scf')
oeprop('DIPOLE', 'QUADRUPOLE', 'MULLIKEN_CHARGES')
f=open( 'psi4out.xyz', 'w' )
f.write( "16  " )
f.write( str(ee) + "\n" )
f.write( MOL.save_string_xyz() )
f.close()
--------------------------------------------------------------------------

    Molecular point group: c1
  Charge       = 0
  Multiplicity = 1
  Basis Set: 6-31G*
  Basis Set:
  @DF-RHF Final Energy:  -344.57812057532709
    Total Energy =                       -344.5781205753272047
    Molecular point group: c1
  Basis Set: 6-31G*
  Basis Set:
  Basis Set: 6-31G*
  Basis Set:
  @DF-RHF Final Energy:  -344.58035560689524
    Total Energy =                       -344.5803556068947842
  Basis Set: 6-31G*
  Basis Set:
  Basis Set: 6-31G*
  Basis Set:
  @DF-RHF Final Energy:  -344.58055546244168
    Total Energy =                       -344.5805554624417368
  Basis Set: 6-31G*
  Basis Set:
  Basis Set: 6-31G*
  Basis Set:
  @DF-RHF Final Energy:  -344.58058503385956
    Total Energy =                       -344.5805850338596201
  Basis Set: 6-31G*
  Basis Set:
  Charge       = 0
  Multiplicity = 1
  Basis Set: 6-31G*
  Basis Set:

    Orbital Energies (a.u.)
    -----------------------

    Doubly Occupied:

       1A    -20.571326     2A    -11.285238     3A    -11.274971
       4A    -11.233465     5A    -11.233340     6A    -11.226650
       7A    -11.225748     8A    -11.225650     9A     -1.399758
      10A     -1.147745    11A     -1.016932    12A     -1.014970
      13A     -0.932641    14A     -0.834883    15A     -0.806417
      16A     -0.713468    17A     -0.666312    18A     -0.662892
      19A     -0.634003    20A     -0.611143    21A     -0.598930
      22A     -0.585749    23A     -0.530286    24A     -0.504679
      25A     -0.504657    26A     -0.483634    27A     -0.435217
      28A     -0.335255    29A     -0.321852

  @DF-RHF Final Energy:  -344.58058917349962

   => Energetics <=

    Nuclear Repulsion Energy =            348.1268948994130028
    One-Electron Energy =               -1157.3793414980323178
    Two-Electron Energy =                 464.6718574251196969
    DFT Exchange-Correlation Energy =       0.0000000000000000
    Empirical Dispersion Energy =           0.0000000000000000
    PCM Polarization Energy =               0.0000000000000000
    EFP Energy =                            0.0000000000000000
    Total Energy =                       -344.5805891734996749
    Molecular point group: c1
  Basis Set: 6-31G*
  Basis Set:

  -Total Gradient:
     Atom            X                  Y                   Z
    ------   -----------------  -----------------  -----------------
       1       -0.000033584997    -0.000084059574     0.000003168285
       2        0.000087060555     0.000204014994    -0.000093764434
       3        0.000185591125    -0.000110029657     0.000052496720
       4       -0.000236355545    -0.000062543317     0.000095537989
       5       -0.000054182379     0.000027605611    -0.000007620432
       6       -0.000124289630    -0.000152290906     0.000005624443
       7        0.000032364807    -0.000036068348    -0.000009988784
       8        0.000147816498    -0.000097795231    -0.000006989553
       9       -0.000035065781     0.000020683963    -0.000015853512
      10       -0.000256122473     0.000505383344     0.000005840260
      11        0.000033172558    -0.000045341791    -0.000020474570
      12        0.000180913119    -0.000208692498    -0.000113819445
      13        0.000069836464     0.000066900599     0.000186086172
      14        0.000001547901    -0.000012196410    -0.000012306280
      15        0.000010960613    -0.000015718750    -0.000006470703
      16       -0.000009662837     0.000000147972    -0.000061466157

  **** Optimization is complete! (in 5 steps) ****
    Final optimized geometry and variables:
    Molecular point group: c1

    Geometry (in Angstrom), charge = 0, multiplicity = 1:

    H           -3.231991100459     0.775194017952    -0.145217535520
    C           -2.186411988514     0.525070905821    -0.152997357849
    C           -1.788063667132    -0.802432649716    -0.177208888672
    C           -1.229106933917     1.526951403117    -0.146078015435
    H           -2.525739432245    -1.584967312491    -0.190402786696
    C           -0.442199387368    -1.129465358972    -0.189935162176
    H           -1.530264084709     2.559282617256    -0.135221814801
    C            0.119163050999     1.207506237478    -0.159294923948
    H           -0.119974079341    -2.154412494384    -0.221351315338
    C            0.508859649278    -0.121613302913    -0.178998665251
    H            0.871699644775     1.975022355502    -0.167681157475
    O            1.834025532683    -0.441080805097    -0.219887247303
    C            2.458549904758    -0.590549220072     1.030102269302
    H            2.411429428455     0.329325208391     1.604188320704
    H            3.491954310510    -0.839609390974     0.836271114801
    H            1.997636746656    -1.387834751762     1.604498470283

  Mulliken Charges: (a.u.)
   Center  Symbol    Alpha    Beta     Spin     Total
       1     H     0.39982  0.39982  0.00000  0.20036
       2     C     3.10556  3.10556  0.00000 -0.21112
       3     C     3.09711  3.09711  0.00000 -0.19422
       4     C     3.09707  3.09707  0.00000 -0.19413
       5     H     0.39835  0.39835  0.00000  0.20330
       6     C     3.11992  3.11992  0.00000 -0.23984
       7     H     0.39835  0.39835  0.00000  0.20331
       8     C     3.12007  3.12007  0.00000 -0.24015
       9     H     0.39471  0.39471  0.00000  0.21058
      10     C     2.80339  2.80339  0.00000  0.39321
      11     H     0.39481  0.39481  0.00000  0.21037
      12     O     4.33218  4.33218  0.00000 -0.66435
      13     C     3.08199  3.08199  0.00000 -0.16399
      14     H     0.42322  0.42322  0.00000  0.15357
      15     H     0.41031  0.41031  0.00000  0.17937
      16     H     0.42314  0.42314  0.00000  0.15372

   Total alpha = 29.00000, Total beta = 29.00000, Total charge =  0.00000
