  ==> Input File <==

--------------------------------------------------------------------------
set {
	reference rhf
	basis 6-31G*
}

set_num_threads( 4 )
memory 2 gb

molecule MOL {
0 1

H	 3.298252	 -0.439132	 0.019734
C	 2.238698	 -0.255425	 0.015492
C	 1.633682	 0.268145	 -1.120594
C	 1.485841	 -0.542040	 1.142007
H	 2.224830	 0.488000	 -1.991073
C	 0.273185	 0.505282	 -1.129436
H	 1.957330	 -0.946945	 2.018931
C	 0.121051	 -0.303687	 1.131874
H	 -0.213472	 0.909409	 -1.997190
C	 -0.488460	 0.219100	 0.000000
H	 -0.469530	 -0.524425	 2.004477
C	 -1.949954	 0.470334	 0.000000
O	 -2.781584	 -0.381627	 0.000000
H	 -2.238022	 1.526388	 0.000000

	symmetry c1
}
set optking {
	frozen_dihedral = ("
		8 10 12 14
	")
}

ee = optimize('scf')
oeprop('DIPOLE', 'QUADRUPOLE', 'MULLIKEN_CHARGES')
f=open( 'psi4out.xyz', 'w' )
f.write( "14  " )
f.write( str(ee) + "\n" )
f.write( MOL.save_string_xyz() )
f.close()
--------------------------------------------------------------------------

    Molecular point group: c1
  Charge       = 0
  Multiplicity = 1
  Basis Set: 6-31G*
  Basis Set:
  @DF-RHF Final Energy:  -343.42020974943358
    Total Energy =                       -343.4202097494333543
    Molecular point group: c1
  Basis Set: 6-31G*
  Basis Set:
  Basis Set: 6-31G*
  Basis Set:
  @DF-RHF Final Energy:  -343.41905523463407
    Total Energy =                       -343.4190552346337881
  Basis Set: 6-31G*
  Basis Set:
  Basis Set: 6-31G*
  Basis Set:
  @DF-RHF Final Energy:  -343.42082652399438
    Total Energy =                       -343.4208265239946059
  Basis Set: 6-31G*
  Basis Set:
  Basis Set: 6-31G*
  Basis Set:
  @DF-RHF Final Energy:  -343.42105168686021
    Total Energy =                       -343.4210516868602667
  Basis Set: 6-31G*
  Basis Set:
  Basis Set: 6-31G*
  Basis Set:
  @DF-RHF Final Energy:  -343.42105408397651
    Total Energy =                       -343.4210540839764008
  Basis Set: 6-31G*
  Basis Set:
  Charge       = 0
  Multiplicity = 1
  Basis Set: 6-31G*
  Basis Set:

    Orbital Energies (a.u.)
    -----------------------

    Doubly Occupied:

       1A    -20.570844     2A    -11.335136     3A    -11.250936
       4A    -11.248643     5A    -11.246987     6A    -11.245037
       7A    -11.243918     8A    -11.242980     9A     -1.409944
      10A     -1.169506    11A     -1.045327    12A     -1.029414
      13A     -0.887259    14A     -0.841231    15A     -0.793891
      16A     -0.720700    17A     -0.677089    18A     -0.651835
      19A     -0.636500    20A     -0.616724    21A     -0.600983
      22A     -0.535904    23A     -0.528117    24A     -0.510049
      25A     -0.502148    26A     -0.422012    27A     -0.347115
      28A     -0.346295

  @DF-RHF Final Energy:  -343.42105460247569

   => Energetics <=

    Nuclear Repulsion Energy =            322.3369527865604596
    One-Electron Energy =               -1104.2029604806723455
    Two-Electron Energy =                 438.4449530916361368
    DFT Exchange-Correlation Energy =       0.0000000000000000
    Empirical Dispersion Energy =           0.0000000000000000
    PCM Polarization Energy =               0.0000000000000000
    EFP Energy =                            0.0000000000000000
    Total Energy =                       -343.4210546024757491
    Molecular point group: c1
  Basis Set: 6-31G*
  Basis Set:

  -Total Gradient:
     Atom            X                  Y                   Z
    ------   -----------------  -----------------  -----------------
       1        0.000002889839     0.000002071539    -0.000006908950
       2       -0.000010550924    -0.000024653611     0.000085641826
       3       -0.000065873675     0.000025795274    -0.000027553659
       4        0.000111553275     0.000001822190    -0.000073619870
       5        0.000008129202    -0.000005976567     0.000008707039
       6        0.000070891131    -0.000031080259    -0.000051457544
       7       -0.000003766328     0.000001993071    -0.000001884046
       8        0.000868489497     0.004736001672     0.001490145609
       9       -0.000002973791     0.000004696204     0.000004755232
      10       -0.001411834823    -0.006767411071    -0.000159834629
      11        0.000000523646    -0.000000149526    -0.000001599427
      12        0.000285139926     0.001820832203    -0.007460916644
      13        0.000026352487     0.000043839419     0.000001685047
      14        0.000121030543     0.000192219464     0.006192840017

  **** Optimization is complete! (in 6 steps) ****
    Final optimized geometry and variables:
    Molecular point group: c1

    Geometry (in Angstrom), charge = 0, multiplicity = 1:

    H            3.313836236600    -0.408065704348     0.015941151395
    C            2.252093010464    -0.239213872605     0.001331137882
    C            1.648472565448     0.278125758045    -1.134263532773
    C            1.488333980988    -0.531817703259     1.119633359671
    H            2.239794121921     0.509423909079    -2.001782248637
    C            0.283260451321     0.507710571097    -1.148165700793
    H            1.956124307063    -0.924520871648     2.004351683495
    C            0.119388910818    -0.320831898799     1.100433741885
    H           -0.180364300082     0.926607026360    -2.024738981173
    C           -0.489206331884     0.184366539345    -0.040157558794
    H           -0.477135161650    -0.557626081616     1.962929377911
    C           -1.956338322329     0.484267672579    -0.024978438531
    O           -2.802045524351    -0.340781844123     0.100815603091
    H           -2.222058894275     1.545136668536    -0.054469011352

  Mulliken Charges: (a.u.)
   Center  Symbol    Alpha    Beta     Spin     Total
       1     H     0.39560  0.39560  0.00000  0.20880
       2     C     3.09716  3.09716  0.00000 -0.19433
       3     C     3.09902  3.09902  0.00000 -0.19803
       4     C     3.09904  3.09904  0.00000 -0.19809
       5     H     0.39524  0.39524  0.00000  0.20952
       6     C     3.10533  3.10533  0.00000 -0.21067
       7     H     0.39492  0.39492  0.00000  0.21015
       8     C     3.10052  3.10052  0.00000 -0.20103
       9     H     0.39369  0.39369  0.00000  0.21262
      10     C     3.03379  3.03379  0.00000 -0.06759
      11     H     0.38754  0.38754  0.00000  0.22491
      12     C     2.84929  2.84929  0.00000  0.30142
      13     O     4.22642  4.22642  0.00000 -0.45284
      14     H     0.42243  0.42243  0.00000  0.15515

   Total alpha = 28.00000, Total beta = 28.00000, Total charge =  0.00000
