  ==> Input File <==

--------------------------------------------------------------------------
set {
	reference rhf
	basis 6-31G*
}

set_num_threads( 1 )
memory 2 gb

molecule MOL {
0 1

H	 -3.301617	 0.570527	 0.000000
C	 -2.250981	 0.344174	 0.000000
C	 -1.813665	 -0.976045	 0.000000
C	 -1.315303	 1.358057	 0.000000
H	 -2.528860	 -1.779366	 0.000000
C	 -0.467298	 -1.270142	 0.000000
H	 -1.635074	 2.385107	 0.000000
C	 0.047081	 1.078114	 0.000000
H	 -0.115948	 -2.285222	 0.000000
C	 0.472063	 -0.241155	 0.000000
H	 0.749976	 1.888426	 0.000000
O	 1.765256	 -0.628444	 0.000000
C	 2.163435	 -1.718308	 0.780207
H	 1.982488	 -1.539064	 1.834940
H	 3.224586	 -1.834293	 0.617986
H	 1.656088	 -2.628941	 0.479078

	symmetry c1
}
set optking {
	frozen_dihedral = ("
		10 12 13 14
	")
}

ee = energy('scf')
oeprop('DIPOLE', 'QUADRUPOLE', 'MULLIKEN_CHARGES')
f=open( 'psi4out.xyz', 'w' )
f.write( "16  " )
f.write( str(ee) + "\n" )
f.write( MOL.save_string_xyz() )
f.close()
--------------------------------------------------------------------------

    Molecular point group: c1

    Geometry (in Angstrom), charge = 0, multiplicity = 1:

       Center              X                  Y                   Z               Mass
    ------------   -----------------  -----------------  -----------------  -----------------
           H         -3.211766604743     0.870545586780    -0.113989582672     1.007825032070
           C         -2.161130604743     0.644192586780    -0.113989582672    12.000000000000
           C         -1.723814604743    -0.676026413220    -0.113989582672    12.000000000000
           C         -1.225452604743     1.658075586780    -0.113989582672    12.000000000000
           H         -2.439009604743    -1.479347413220    -0.113989582672     1.007825032070
           C         -0.377447604743    -0.970123413220    -0.113989582672    12.000000000000
           H         -1.545223604743     2.685125586780    -0.113989582672     1.007825032070
           C          0.136931395257     1.378132586780    -0.113989582672    12.000000000000
           H         -0.026097604743    -1.985203413220    -0.113989582672     1.007825032070
           C          0.561913395257     0.058863586780    -0.113989582672    12.000000000000
           H          0.839826395257     2.188444586780    -0.113989582672     1.007825032070
           O          1.855106395257    -0.328425413220    -0.113989582672    15.994914619560
           C          2.253285395257    -1.418289413220     0.666217417328    12.000000000000
           H          2.072338395257    -1.239045413220     1.720950417328     1.007825032070
           H          3.314436395257    -1.534274413220     0.503996417328     1.007825032070
           H          1.745938395257    -2.328922413220     0.365088417328     1.007825032070

  Charge       = 0
  Multiplicity = 1
  Basis Set: 6-31G*
  Basis Set:

    Orbital Energies (a.u.)
    -----------------------

    Doubly Occupied:

       1A    -20.577083     2A    -11.291978     3A    -11.279047
       4A    -11.232949     5A    -11.232493     6A    -11.224586
       7A    -11.221822     8A    -11.220765     9A     -1.410278
      10A     -1.146130    11A     -1.019383    12A     -1.013809
      13A     -0.941029    14A     -0.834195    15A     -0.804494
      16A     -0.720928    17A     -0.669897    18A     -0.659031
      19A     -0.647974    20A     -0.616437    21A     -0.594973
      22A     -0.576145    23A     -0.528165    24A     -0.517183
      25A     -0.508431    26A     -0.475950    27A     -0.446402
      28A     -0.334899    29A     -0.309902

  @DF-RHF Final Energy:  -344.57378890878039

   => Energetics <=

    Nuclear Repulsion Energy =            348.8536769548177858
    One-Electron Energy =               -1158.7421177988831005
    Two-Electron Energy =                 465.3146519352846440
    DFT Exchange-Correlation Energy =       0.0000000000000000
    Empirical Dispersion Energy =           0.0000000000000000
    PCM Polarization Energy =               0.0000000000000000
    EFP Energy =                            0.0000000000000000
    Total Energy =                       -344.5737889087807275

  Mulliken Charges: (a.u.)
   Center  Symbol    Alpha    Beta     Spin     Total
       1     H     0.40058  0.40058  0.00000  0.19884
       2     C     3.10987  3.10987  0.00000 -0.21973
       3     C     3.09325  3.09325  0.00000 -0.18651
       4     C     3.09363  3.09363  0.00000 -0.18726
       5     H     0.39988  0.39988  0.00000  0.20025
       6     C     3.13976  3.13976  0.00000 -0.27952
       7     H     0.39847  0.39847  0.00000  0.20306
       8     C     3.12689  3.12689  0.00000 -0.25378
       9     H     0.39638  0.39638  0.00000  0.20723
      10     C     2.78040  2.78040  0.00000  0.43921
      11     H     0.39390  0.39390  0.00000  0.21219
      12     O     4.33209  4.33209  0.00000 -0.66417
      13     C     3.08494  3.08494  0.00000 -0.16989
      14     H     0.41884  0.41884  0.00000  0.16232
      15     H     0.40688  0.40688  0.00000  0.18623
      16     H     0.42424  0.42424  0.00000  0.15153

   Total alpha = 29.00000, Total beta = 29.00000, Total charge =  0.00000
