                              Psi4 1.0.54 Driver

  ==> Input File <==

--------------------------------------------------------------------------
set {
	reference rhf
	basis cc-pvtz
}

set_num_threads( 4 )
memory 2 gb

molecule MOL {
0 1

O	 -2.081319	 -0.951530	 -0.502732
N	 -1.613558	 0.006676	 0.014756
C	 -0.329345	 -0.171618	 0.743966
O	 -2.068523	 1.100482	 -0.024385
C	 0.835904	 0.041968	 -0.213982
H	 -0.346048	 -1.174374	 1.137184
H	 -0.333613	 0.555559	 1.538590
C	 2.177039	 -0.130175	 0.494460
H	 0.754456	 -0.665923	 -1.030569
H	 0.765464	 1.037260	 -0.637266
C	 2.920031	 -1.380741	 0.037813
H	 2.015125	 -0.177380	 1.567303
H	 2.795579	 0.743968	 0.313656
H	 2.339499	 -2.274668	 0.236749
H	 3.123719	 -1.347447	 -1.026668
H	 3.867203	 -1.478431	 0.554033

	symmetry c1
}
set optking {
	frozen_dihedral = ("
		11 8 5 9
	")
}

ee,wfn = optimize('scf', return_wfn=True)
oeprop( wfn, 'DIPOLE', 'QUADRUPOLE', 'MULLIKEN_CHARGES')
f=open( 'psi4out.xyz', 'w' )
f.write( "16  " )
f.write( str(ee) + "\n" )
f.write( MOL.save_string_xyz() )
f.close()
--------------------------------------------------------------------------

    Molecular point group: c1
  Charge       = 0
  Multiplicity = 1
  Basis Set: CC-PVTZ
  Basis Set:
  @DF-RHF Final Energy:  -360.90397535809677
    Total Energy =                       -360.9039753580967727
    Molecular point group: c1
  Basis Set: CC-PVTZ
  Basis Set:
  Basis Set: CC-PVTZ
  Basis Set:
  @DF-RHF Final Energy:  -360.90427359452343
    Total Energy =                       -360.9042735945236586
  Basis Set: CC-PVTZ
  Basis Set:
  Basis Set: CC-PVTZ
  Basis Set:
  @DF-RHF Final Energy:  -360.90372081769988
    Total Energy =                       -360.9037208176994227
  Basis Set: CC-PVTZ
  Basis Set:
  Basis Set: CC-PVTZ
  Basis Set:
  @DF-RHF Final Energy:  -360.90423664456119
    Total Energy =                       -360.9042366445613652
  Basis Set: CC-PVTZ
  Basis Set:
  Basis Set: CC-PVTZ
  Basis Set:
  @DF-RHF Final Energy:  -360.90434149003704
    Total Energy =                       -360.9043414900372682
  Basis Set: CC-PVTZ
  Basis Set:
  Basis Set: CC-PVTZ
  Basis Set:
  @DF-RHF Final Energy:  -360.90434942923497
    Total Energy =                       -360.9043494292353103
  Basis Set: CC-PVTZ
  Basis Set:
  Charge       = 0
  Multiplicity = 1
  Basis Set: CC-PVTZ
  Basis Set:

    Orbital Energies (a.u.)
    -----------------------

    Doubly Occupied:

       1A    -20.589661     2A    -20.589508     3A    -15.835848
       4A    -11.296607     5A    -11.250674     6A    -11.241987
       7A    -11.226571     8A     -1.635014     9A     -1.419366
      10A     -1.135573    11A     -1.057944    12A     -0.948903
      13A     -0.846634    14A     -0.827731    15A     -0.759923
      16A     -0.737438    17A     -0.727469    18A     -0.668336
      19A     -0.628443    20A     -0.603704    21A     -0.561945
      22A     -0.552660    23A     -0.514251    24A     -0.503539
      25A     -0.493775    26A     -0.485120    27A     -0.469000
      28A     -0.451867

  @DF-RHF Final Energy:  -360.90434974373954

   => Energetics <=

    Nuclear Repulsion Energy =            314.2718003923033621
    One-Electron Energy =               -1114.2333203340615455
    Two-Electron Energy =                 439.0571701980187527
    DFT Exchange-Correlation Energy =       0.0000000000000000
    Empirical Dispersion Energy =           0.0000000000000000
    PCM Polarization Energy =               0.0000000000000000
    EFP Energy =                            0.0000000000000000
    Total Energy =                       -360.9043497437394308
    Molecular point group: c1
  Basis Set: CC-PVTZ
  Basis Set:

  -Total Gradient:
     Atom            X                  Y                   Z
    ------   -----------------  -----------------  -----------------
       1       -0.000006758140    -0.000010499963     0.000002461404
       2        0.000041939823    -0.000005251668    -0.000015765086
       3       -0.000027067291     0.000016608205    -0.000000275481
       4       -0.000011756787     0.000007380115     0.000017227028
       5        0.001242952277     0.001904617804    -0.001851527340
       6       -0.000008761393    -0.000004293158     0.000001914846
       7        0.000002104288    -0.000001111995    -0.000003385911
       8       -0.001069199841    -0.001359111319     0.001663254614
       9       -0.000795432441    -0.001306678972     0.001186099324
      10        0.000000261281     0.000014516287    -0.000000068444
      11        0.000643759218     0.000743023678    -0.001005076388
      12       -0.000005344758    -0.000000232887     0.000004251643
      13       -0.000001026793    -0.000002395592    -0.000001274176
      14       -0.000002174431     0.000001033116     0.000002691881
      15        0.000001745948    -0.000000777097    -0.000000126761
      16       -0.000005240963     0.000003173449    -0.000000401154

  **** Optimization is complete! (in 7 steps) ****
    Final optimized geometry and variables:
    Molecular point group: c1

    Geometry (in Angstrom), charge = 0, multiplicity = 1:

    O           -1.987737324306    -0.789729948741    -0.574081585395
    N           -1.555560046258     0.185343401526    -0.056665267044
    C           -0.266802016073     0.054606670882     0.674992693479
    O           -2.049527136898     1.262035879073    -0.097598363197
    C            0.894425692255     0.308942196864    -0.280634105254
    H           -0.247682151452    -0.947979695711     1.069160125488
    H           -0.298495916997     0.781941686672     1.468696953807
    C            2.250832653605     0.121238624612     0.428591924041
    H            0.804891287132    -0.385594777009    -1.106395583318
    H            0.800152239940     1.309574682695    -0.680126497461
    C            3.005543471342    -1.121618052037    -0.033460194787
    H            2.105089165060     0.076737567212     1.503323415017
    H            2.868167790062     0.993397950921     0.250961700400
    H            2.425073759017    -2.022588757811     0.135667460651
    H            3.227581659419    -1.066872927053    -1.093045484338
    H            3.943257476956    -1.227047354348     0.498807230745

  Mulliken Charges: (a.u.)
   Center  Symbol    Alpha    Beta     Spin     Total
       1     O     4.17395  4.17395  0.00000 -0.34789
       2     N     3.27621  3.27621  0.00000  0.44759
       3     C     3.04211  3.04211  0.00000 -0.08421
       4     O     4.17418  4.17418  0.00000 -0.34835
       5     C     3.10832  3.10832  0.00000 -0.21664
       6     H     0.43373  0.43373  0.00000  0.13255
       7     H     0.43337  0.43337  0.00000  0.13327
       8     C     3.09692  3.09692  0.00000 -0.19385
       9     H     0.43814  0.43814  0.00000  0.12372
      10     H     0.43114  0.43114  0.00000  0.13771
      11     C     3.14577  3.14577  0.00000 -0.29154
      12     H     0.45304  0.45304  0.00000  0.09392
      13     H     0.44309  0.44309  0.00000  0.11382
      14     H     0.45293  0.45293  0.00000  0.09413
      15     H     0.45091  0.45091  0.00000  0.09818
      16     H     0.44620  0.44620  0.00000  0.10760

   Total alpha = 28.00000, Total beta = 28.00000, Total charge = -0.00000

*** Psi4 exiting successfully. Buy a developer a beer!
