  ==> Input File <==

--------------------------------------------------------------------------
set {
	reference rhf
	basis 6-31G*
}

set_num_threads( 4 )
memory 2 gb

molecule MOL {
0 1

H	 -0.423113	 2.984858	 -2.595632
O	 -0.905169	 2.184904	 -2.440441
C	 -0.516328	 1.630245	 -1.212376
C	 0.854888	 0.985108	 -1.308460
H	 -0.516319	 2.372455	 -0.418977
H	 -1.251615	 0.879123	 -0.960149
O	 1.171513	 0.459272	 -0.058250
H	 1.597055	 1.726077	 -1.611995
H	 0.840295	 0.207678	 -2.070021
C	 2.397842	 -0.198080	 -0.002151
H	 2.508049	 -0.905315	 -0.822092
H	 3.173794	 0.550865	 -0.078850
H	 2.517602	 -0.735921	 0.936026

	symmetry c1
}
set optking {
	frozen_dihedral = ("
		4 7 10 13
	")
}

ee = optimize('scf')
oeprop('DIPOLE', 'QUADRUPOLE', 'MULLIKEN_CHARGES')
f=open( 'psi4out.xyz', 'w' )
f.write( "13  " )
f.write( str(ee) + "\n" )
f.write( MOL.save_string_xyz() )
f.close()
--------------------------------------------------------------------------

    Molecular point group: c1
  Charge       = 0
  Multiplicity = 1
  Basis Set: 6-31G*
  Basis Set:
  @DF-RHF Final Energy:  -267.94925150227141
    Total Energy =                       -267.9492515022716930
    Molecular point group: c1
  Basis Set: 6-31G*
  Basis Set:
  Basis Set: 6-31G*
  Basis Set:
  @DF-RHF Final Energy:  -267.95013594592552
    Total Energy =                       -267.9501359459255809
  Basis Set: 6-31G*
  Basis Set:
  Basis Set: 6-31G*
  Basis Set:
  @DF-RHF Final Energy:  -267.95039123611372
    Total Energy =                       -267.9503912361136599
  Basis Set: 6-31G*
  Basis Set:
  Charge       = 0
  Multiplicity = 1
  Basis Set: 6-31G*
  Basis Set:

    Orbital Energies (a.u.)
    -----------------------

    Doubly Occupied:

       1A    -20.562239     2A    -20.560132     3A    -11.270932
       4A    -11.270262     5A    -11.268963     6A     -1.388621
       7A     -1.365158     8A     -1.018585     9A     -0.913367
      10A     -0.841911    11A     -0.709589    12A     -0.673995
      13A     -0.660428    14A     -0.637406    15A     -0.595610
      16A     -0.570303    17A     -0.544965    18A     -0.489780
      19A     -0.481574    20A     -0.438430    21A     -0.421967

  @DF-RHF Final Energy:  -267.95039211968003

   => Energetics <=

    Nuclear Repulsion Energy =            190.2283058174769508
    One-Electron Energy =                -742.9889589552248026
    Two-Electron Energy =                 284.8102610180678198
    DFT Exchange-Correlation Energy =       0.0000000000000000
    Empirical Dispersion Energy =           0.0000000000000000
    PCM Polarization Energy =               0.0000000000000000
    EFP Energy =                            0.0000000000000000
    Total Energy =                       -267.9503921196799752
    Molecular point group: c1
  Basis Set: 6-31G*
  Basis Set:

  -Total Gradient:
     Atom            X                  Y                   Z
    ------   -----------------  -----------------  -----------------
       1        0.000005321371     0.000012471773    -0.000017214415
       2        0.000105577235    -0.000026663724     0.000073120406
       3       -0.000056451729    -0.000062143499     0.000094118033
       4       -0.000432123281    -0.001103146593    -0.000423756871
       5       -0.000018063448     0.000030459461    -0.000008127127
       6        0.000003107102    -0.000009534297     0.000014718457
       7        0.000587105691     0.001218123303     0.000331349793
       8        0.000014111930    -0.000006377429     0.000042217567
       9       -0.000002705300    -0.000003929524    -0.000020476096
      10        0.000545518934     0.001038717429     0.000535231822
      11       -0.000040951987     0.000015059101    -0.000019977466
      12       -0.000037298654     0.000035003506     0.000000393712
      13       -0.000673147864    -0.001138039508    -0.000601597814

  **** Optimization is complete! (in 4 steps) ****
    Final optimized geometry and variables:
    Molecular point group: c1

    Geometry (in Angstrom), charge = 0, multiplicity = 1:

    H           -1.036713807994     1.955098993296    -1.562386806131
    O           -1.512950545793     1.151070701377    -1.410278059947
    C           -1.119273688788     0.593582221719    -0.184977765127
    C            0.256179128495    -0.041734004116    -0.285479681027
    H           -1.123502452284     1.332593931977     0.611305031754
    H           -1.848893252433    -0.163773499682     0.065080263166
    O            0.575762554236    -0.573361263144     0.961782507453
    H            0.992789850646     0.706202010714    -0.585786400251
    H            0.246332430462    -0.815639229707    -1.050321764940
    C            1.807374835944    -1.221615553554     1.017418105328
    H            1.905470346146    -1.954755670410     0.219467329651
    H            2.632131825150    -0.515953292311     0.942052778513
    H            1.862855115308    -1.737636334935     1.965972586025

  Mulliken Charges: (a.u.)
   Center  Symbol    Alpha    Beta     Spin     Total
       1     H     0.28125  0.28125  0.00000  0.43749
       2     O     4.37091  4.37091  0.00000 -0.74181
       3     C     3.00467  3.00467  0.00000 -0.00934
       4     C     2.99659  2.99659  0.00000  0.00682
       5     H     0.42228  0.42228  0.00000  0.15544
       6     H     0.40842  0.40842  0.00000  0.18316
       7     O     4.30781  4.30781  0.00000 -0.61561
       8     H     0.43778  0.43778  0.00000  0.12445
       9     H     0.42296  0.42296  0.00000  0.15408
      10     C     3.07971  3.07971  0.00000 -0.15943
      11     H     0.42858  0.42858  0.00000  0.14283
      12     H     0.42813  0.42813  0.00000  0.14373
      13     H     0.41091  0.41091  0.00000  0.17818

   Total alpha = 21.00000, Total beta = 21.00000, Total charge =  0.00000
