  ==> Input File <==

--------------------------------------------------------------------------
set {
	reference rhf
	basis 6-31G*
}

set_num_threads( 4 )
memory 2 gb

molecule MOL {
0 1

H	 0.751459	 -0.213700	 2.367021
C	 -0.211657	 -0.235170	 1.875847
O	 0.000000	 0.000000	 0.521119
H	 -0.671532	 -1.207639	 2.044692
H	 -0.849716	 0.528304	 2.318200
C	 -1.165642	 0.000000	 -0.238270
H	 -1.228672	 0.883184	 -0.872070
H	 -2.003012	 0.000000	 0.445920
H	 -1.228672	 -0.883184	 -0.872070

	symmetry c1
}
set optking {
	frozen_dihedral = ("
		2 3 6 7
	")
}

ee = optimize('scf')
oeprop('DIPOLE', 'QUADRUPOLE', 'MULLIKEN_CHARGES')
f=open( 'psi4out.xyz', 'w' )
f.write( "9  " )
f.write( str(ee) + "\n" )
f.write( MOL.save_string_xyz() )
f.close()
--------------------------------------------------------------------------

    Molecular point group: c1
  Charge       = 0
  Multiplicity = 1
  Basis Set: 6-31G*
  Basis Set:
  @DF-RHF Final Energy:  -154.05959695550678
    Total Energy =                       -154.0595969555068052
    Molecular point group: c1
  Basis Set: 6-31G*
  Basis Set:
  Basis Set: 6-31G*
  Basis Set:
  @DF-RHF Final Energy:  -154.06049782348077
    Total Energy =                       -154.0604978234807447
  Basis Set: 6-31G*
  Basis Set:
  Basis Set: 6-31G*
  Basis Set:
  @DF-RHF Final Energy:  -154.06079797984461
    Total Energy =                       -154.0607979798446365
  Basis Set: 6-31G*
  Basis Set:
  Charge       = 0
  Multiplicity = 1
  Basis Set: 6-31G*
  Basis Set:

    Orbital Energies (a.u.)
    -----------------------

    Doubly Occupied:

       1A    -20.552283     2A    -11.265611     3A    -11.264642
       4A     -1.374196     5A     -0.974888     6A     -0.872870
       7A     -0.656958     8A     -0.652825     9A     -0.642781
      10A     -0.559437    11A     -0.527390    12A     -0.472725
      13A     -0.411998

  @DF-RHF Final Energy:  -154.06080036987265

   => Energetics <=

    Nuclear Repulsion Energy =             84.4935320392167455
    One-Electron Energy =                -376.6514546167353501
    Two-Electron Energy =                 138.0971222076459810
    DFT Exchange-Correlation Energy =       0.0000000000000000
    Empirical Dispersion Energy =           0.0000000000000000
    PCM Polarization Energy =               0.0000000000000000
    EFP Energy =                            0.0000000000000000
    Total Energy =                       -154.0608003698726236
    Molecular point group: c1
  Basis Set: 6-31G*
  Basis Set:

  -Total Gradient:
     Atom            X                  Y                   Z
    ------   -----------------  -----------------  -----------------
       1        0.000011555458     0.000003165341    -0.000022695404
       2       -0.000152772335     0.001281644044     0.000225097274
       3       -0.000086493806    -0.001596560538    -0.000117495498
       4        0.000000194824     0.000020924989    -0.000038225672
       5       -0.000005955816     0.000000799274    -0.000041676038
       6        0.000928296481    -0.000515424544    -0.001201988636
       7       -0.000674805477     0.000791437453     0.001212296269
       8       -0.000049691496     0.000007607717     0.000002799400
       9        0.000029672166     0.000006406262    -0.000018111695

  **** Optimization is complete! (in 4 steps) ****
    Final optimized geometry and variables:
    Molecular point group: c1

    Geometry (in Angstrom), charge = 0, multiplicity = 1:

    H            1.256465496574    -0.121463231645     1.623905379203
    C            0.280760227462    -0.151979578965     1.158448203413
    O            0.461924014969     0.076049484400    -0.202750134522
    H           -0.166490040319    -1.125759779513     1.349404860523
    H           -0.347634379545     0.611860380974     1.612056318810
    C           -0.702844442940     0.081483869128    -0.974144677255
    H           -0.714803960502     0.973358277964    -1.589884912132
    H           -1.597098235141     0.088424044571    -0.357015638456
    H           -0.735823764828    -0.793999857566    -1.615144752704

  Mulliken Charges: (a.u.)
   Center  Symbol    Alpha    Beta     Spin     Total
       1     H     0.41273  0.41273  0.00000  0.17453
       2     C     3.07884  3.07884  0.00000 -0.15768
       3     O     4.30018  4.30018  0.00000 -0.60036
       4     H     0.43026  0.43026  0.00000  0.13949
       5     H     0.42990  0.42990  0.00000  0.14020
       6     C     3.07749  3.07749  0.00000 -0.15497
       7     H     0.41800  0.41800  0.00000  0.16400
       8     H     0.43049  0.43049  0.00000  0.13902
       9     H     0.42212  0.42212  0.00000  0.15577

   Total alpha = 13.00000, Total beta = 13.00000, Total charge =  0.00000
