  ==> Input File <==

--------------------------------------------------------------------------
set {
	reference rhf
	basis cc-pvtz
}

set_num_threads( 4 )
memory 2 gb

molecule MOL {
0 1

O	 0.725038	 0.265796	 -0.938773
C	 0.029490	 0.077183	 0.000078
C	 -1.232113	 -0.748027	 0.000015
O	 0.276599	 0.579018	 1.198548
C	 -2.501422	 0.088592	 -0.000052
H	 -1.188777	 -1.400384	 -0.865133
H	 -1.188857	 -1.400312	 0.865225
H	 -2.548170	 0.725504	 -0.873205
H	 -3.371613	 -0.556398	 -0.000040
H	 -2.548215	 0.725571	 0.873047
C	 1.434440	 1.376838	 1.341839
H	 2.321013	 0.808455	 1.102748
H	 1.457450	 1.685607	 2.374291
H	 1.384551	 2.240472	 0.695393

	symmetry c1
}
set optking {
	frozen_dihedral = ("
		4 2 3 6
	")
}

ee = optimize('scf')
oeprop('DIPOLE', 'QUADRUPOLE', 'MULLIKEN_CHARGES')
f=open( 'psi4out.xyz', 'w' )
f.write( "14  " )
f.write( str(ee) + "\n" )
f.write( MOL.save_string_xyz() )
f.close()
--------------------------------------------------------------------------

    Molecular point group: c1
  Charge       = 0
  Multiplicity = 1
  Basis Set: CC-PVTZ
  Basis Set:
  @DF-RHF Final Energy:  -305.98570691103112
    Total Energy =                       -305.9857069110308885
    Molecular point group: c1
  Basis Set: CC-PVTZ
  Basis Set:
  Basis Set: CC-PVTZ
  Basis Set:
  @DF-RHF Final Energy:  -305.98613684062889
    Total Energy =                       -305.9861368406288875
  Basis Set: CC-PVTZ
  Basis Set:
  Basis Set: CC-PVTZ
  Basis Set:
  @DF-RHF Final Energy:  -305.98590829125772
    Total Energy =                       -305.9859082912577719
  Basis Set: CC-PVTZ
  Basis Set:
  Basis Set: CC-PVTZ
  Basis Set:
  @DF-RHF Final Energy:  -305.98617349798985
    Total Energy =                       -305.9861734979900803
  Basis Set: CC-PVTZ
  Basis Set:
  Basis Set: CC-PVTZ
  Basis Set:
  @DF-RHF Final Energy:  -305.98619958044736
    Total Energy =                       -305.9861995804471917
  Basis Set: CC-PVTZ
  Basis Set:
  Charge       = 0
  Multiplicity = 1
  Basis Set: CC-PVTZ
  Basis Set:

    Orbital Energies (a.u.)
    -----------------------

    Doubly Occupied:

       1A    -20.598104     2A    -20.533367     3A    -11.364224
       4A    -11.279181     5A    -11.235902     6A    -11.225530
       7A     -1.472739     8A     -1.365518     9A     -1.068568
      10A     -0.977838    11A     -0.884663    12A     -0.776273
      13A     -0.699326    14A     -0.682856    15A     -0.676512
      16A     -0.619216    17A     -0.595304    18A     -0.570304
      19A     -0.544404    20A     -0.520117    21A     -0.511215
      22A     -0.507081    23A     -0.459884    24A     -0.437757

  @DF-RHF Final Energy:  -305.98619975170016

   => Energetics <=

    Nuclear Repulsion Energy =            248.5822751515167113
    One-Electron Energy =                -909.9251847601017289
    Two-Electron Energy =                 355.3567098568852316
    DFT Exchange-Correlation Energy =       0.0000000000000000
    Empirical Dispersion Energy =           0.0000000000000000
    PCM Polarization Energy =               0.0000000000000000
    EFP Energy =                            0.0000000000000000
    Total Energy =                       -305.9861997516998144
    Molecular point group: c1
  Basis Set: CC-PVTZ
  Basis Set:

  -Total Gradient:
     Atom            X                  Y                   Z
    ------   -----------------  -----------------  -----------------
       1       -0.000020816555    -0.000001935814     0.000012637822
       2       -0.000064206494     0.000118194837    -0.000073193400
       3       -0.000103126416     0.000151490474    -0.000133356173
       4        0.000065891745    -0.000069789691     0.000067113446
       5        0.000018934696    -0.000024324446     0.000024403877
       6        0.000097992888    -0.000140145944     0.000086412059
       7       -0.000002850103    -0.000000133222     0.000012229313
       8        0.000004451159    -0.000004974154    -0.000003772164
       9        0.000010742218     0.000003520786    -0.000000660347
      10       -0.000011955768     0.000012636090     0.000010129460
      11        0.000025044425    -0.000063765534     0.000001296939
      12        0.000010842182     0.000017664741     0.000004282387
      13       -0.000011299490     0.000003028862    -0.000000460240
      14       -0.000019644482    -0.000001466986    -0.000007062980

  **** Optimization is complete! (in 6 steps) ****
    Final optimized geometry and variables:
    Molecular point group: c1

    Geometry (in Angstrom), charge = 0, multiplicity = 1:

    O            0.881430478075    -0.002342596385    -1.222640032312
    C            0.219209395237    -0.227930012541    -0.267321863739
    C           -1.033412736290    -1.064702567804    -0.269643855085
    O            0.490461281829     0.255795862083     0.933615756011
    C           -2.289008436299    -0.189176543234    -0.289810419389
    H           -0.997636323778    -1.694907164519    -1.146076683378
    H           -1.035527813761    -1.692125091708     0.612244806305
    H           -2.303973488884     0.443985165182    -1.168466809089
    H           -3.174964667705    -0.810752468063    -0.308928917708
    H           -2.338449297967     0.441870762209     0.588242393013
    C            1.622492523119     1.093525356506     1.054828294462
    H            2.520233422394     0.563048257002     0.774423228289
    H            1.669192086258     1.382789573030     2.092143142401
    H            1.518878785241     1.966832008926     0.428065889395

  Mulliken Charges: (a.u.)
   Center  Symbol    Alpha    Beta     Spin     Total
       1     O     4.20129  4.20129  0.00000 -0.40258
       2     C     2.79747  2.79747  0.00000  0.40506
       3     C     3.08406  3.08406  0.00000 -0.16811
       4     O     4.15068  4.15068  0.00000 -0.30136
       5     C     3.15146  3.15146  0.00000 -0.30292
       6     H     0.43807  0.43807  0.00000  0.12387
       7     H     0.44567  0.44567  0.00000  0.10866
       8     H     0.44703  0.44703  0.00000  0.10594
       9     H     0.44735  0.44735  0.00000  0.10529
      10     H     0.44791  0.44791  0.00000  0.10419
      11     C     3.03596  3.03596  0.00000 -0.07193
      12     H     0.45286  0.45286  0.00000  0.09427
      13     H     0.44563  0.44563  0.00000  0.10875
      14     H     0.45456  0.45456  0.00000  0.09088

   Total alpha = 24.00000, Total beta = 24.00000, Total charge = -0.00000
