  ==> Input File <==

--------------------------------------------------------------------------
set {
	reference rhf
	basis 6-31G*
}

set_num_threads( 1 )
memory 2 gb

molecule MOL {
0 1

O	 -0.682937	 1.318834	 -0.186099
C	 -0.860635	 0.152188	 -0.042321
C	 -2.173363	 -0.477127	 0.338347
O	 0.083258	 -0.765189	 -0.202595
H	 -2.477673	 -1.180929	 -0.427595
H	 -2.923125	 0.290956	 0.455536
H	 -2.058825	 -1.029004	 1.264191
C	 1.002317	 -0.611253	 -1.281684
C	 2.146882	 0.313200	 -0.910193
H	 0.472612	 -0.250436	 -2.150225
H	 1.360458	 -1.611719	 -1.477392
H	 2.867086	 0.350346	 -1.721769
H	 1.787601	 1.318276	 -0.728241
H	 2.653802	 -0.045624	 -0.020984

	symmetry c1
}
set optking {
	frozen_dihedral = ("
		10 8 4 2
	")
}

ee = energy('scf')
oeprop('DIPOLE', 'QUADRUPOLE', 'MULLIKEN_CHARGES')
f=open( 'psi4out.xyz', 'w' )
f.write( "14  " )
f.write( str(ee) + "\n" )
f.write( MOL.save_string_xyz() )
f.close()
--------------------------------------------------------------------------

    Molecular point group: c1

    Geometry (in Angstrom), charge = 0, multiplicity = 1:

       Center              X                  Y                   Z               Mass
    ------------   -----------------  -----------------  -----------------  -----------------
           O         -0.608954882319     1.327867492520     0.197893007820    15.994914619560
           C         -0.786652882319     0.161221492520     0.341671007820    12.000000000000
           C         -2.099380882319    -0.468093507480     0.722339007820    12.000000000000
           O          0.157240117681    -0.756155507480     0.181397007820    15.994914619560
           H         -2.403690882319    -1.171895507480    -0.043602992180     1.007825032070
           H         -2.849142882319     0.299989492520     0.839528007820     1.007825032070
           H         -1.984842882319    -1.019970507480     1.648183007820     1.007825032070
           C          1.076299117681    -0.602219507480    -0.897691992180    12.000000000000
           C          2.220864117681     0.322233492520    -0.526200992180    12.000000000000
           H          0.546594117681    -0.241402507480    -1.766232992180     1.007825032070
           H          1.434440117681    -1.602685507480    -1.093399992180     1.007825032070
           H          2.941068117681     0.359379492520    -1.337776992180     1.007825032070
           H          1.861583117681     1.327309492520    -0.344248992180     1.007825032070
           H          2.727784117681    -0.036590507480     0.363008007820     1.007825032070

  Charge       = 0
  Multiplicity = 1
  Basis Set: 6-31G*
  Basis Set:

    Orbital Energies (a.u.)
    -----------------------

    Doubly Occupied:

       1A    -20.594337     2A    -20.548809     3A    -11.376767
       4A    -11.291112     5A    -11.233484     6A    -11.212568
       7A     -1.465882     8A     -1.364301     9A     -1.053293
      10A     -0.998099    11A     -0.882267    12A     -0.768751
      13A     -0.697526    14A     -0.681945    15A     -0.657305
      16A     -0.608286    17A     -0.585837    18A     -0.572265
      19A     -0.560392    20A     -0.532640    21A     -0.506809
      22A     -0.497095    23A     -0.449144    24A     -0.435818

  @DF-RHF Final Energy:  -305.86658464335540

   => Energetics <=

    Nuclear Repulsion Energy =            248.9089577962453177
    One-Electron Energy =                -910.4016409857852068
    Two-Electron Energy =                 355.6260985461844939
    DFT Exchange-Correlation Energy =       0.0000000000000000
    Empirical Dispersion Energy =           0.0000000000000000
    PCM Polarization Energy =               0.0000000000000000
    EFP Energy =                            0.0000000000000000
    Total Energy =                       -305.8665846433553952

  Mulliken Charges: (a.u.)
   Center  Symbol    Alpha    Beta     Spin     Total
       1     O     4.27479  4.27479  0.00000 -0.54957
       2     C     2.62269  2.62269  0.00000  0.75461
       3     C     3.28177  3.28177  0.00000 -0.56354
       4     O     4.30879  4.30879  0.00000 -0.61757
       5     H     0.40316  0.40316  0.00000  0.19368
       6     H     0.39833  0.39833  0.00000  0.20334
       7     H     0.39919  0.39919  0.00000  0.20163
       8     C     3.00599  3.00599  0.00000 -0.01199
       9     C     3.25274  3.25274  0.00000 -0.50549
      10     H     0.41415  0.41415  0.00000  0.17170
      11     H     0.40826  0.40826  0.00000  0.18348
      12     H     0.42241  0.42241  0.00000  0.15517
      13     H     0.39365  0.39365  0.00000  0.21270
      14     H     0.41408  0.41408  0.00000  0.17185

   Total alpha = 24.00000, Total beta = 24.00000, Total charge =  0.00000
