  ==> Input File <==

--------------------------------------------------------------------------
set {
	reference rhf
	basis cc-pvtz
}

set_num_threads( 4 )
memory 2 gb

molecule MOL {
0 1

H	 0.989499	 2.436664	 -0.653327
O	 1.254750	 1.914064	 0.082189
C	 0.706474	 0.636793	 -0.025501
C	 -0.793473	 0.591216	 0.050087
H	 1.122387	 0.054870	 0.788554
H	 1.026747	 0.153692	 -0.946770
C	 -1.534243	 -0.493009	 -0.013340
H	 -1.266611	 1.552628	 0.164437
H	 -1.101195	 -1.466332	 -0.144046
H	 -2.604242	 -0.437780	 0.050785

	symmetry c1
}
set optking {
	frozen_dihedral = ("
		5 3 4 7
	")
}

ee = optimize('scf')
oeprop('DIPOLE', 'QUADRUPOLE', 'MULLIKEN_CHARGES')
f=open( 'psi4out.xyz', 'w' )
f.write( "10  " )
f.write( str(ee) + "\n" )
f.write( MOL.save_string_xyz() )
f.close()
--------------------------------------------------------------------------

    Molecular point group: c1
  Charge       = 0
  Multiplicity = 1
  Basis Set: CC-PVTZ
  Basis Set:
  @DF-RHF Final Energy:  -191.99437473061420
    Total Energy =                       -191.9943747306143109
    Molecular point group: c1
  Basis Set: CC-PVTZ
  Basis Set:
  Basis Set: CC-PVTZ
  Basis Set:
  @DF-RHF Final Energy:  -191.99472654165120
    Total Energy =                       -191.9947265416512892
  Basis Set: CC-PVTZ
  Basis Set:
  Basis Set: CC-PVTZ
  Basis Set:
  @DF-RHF Final Energy:  -191.99477083270963
    Total Energy =                       -191.9947708327095484
  Basis Set: CC-PVTZ
  Basis Set:
  Basis Set: CC-PVTZ
  Basis Set:
  @DF-RHF Final Energy:  -191.99477680455527
    Total Energy =                       -191.9947768045551868
  Basis Set: CC-PVTZ
  Basis Set:
  Charge       = 0
  Multiplicity = 1
  Basis Set: CC-PVTZ
  Basis Set:

    Orbital Energies (a.u.)
    -----------------------

    Doubly Occupied:

       1A    -20.554164     2A    -11.277094     3A    -11.230265
       4A    -11.218383     5A     -1.373415     6A     -1.064871
       7A     -0.923200     8A     -0.778573     9A     -0.704686
      10A     -0.638442    11A     -0.626256    12A     -0.588191
      13A     -0.528295    14A     -0.506343    15A     -0.450126
      16A     -0.367700

  @DF-RHF Final Energy:  -191.99477726368917

   => Energetics <=

    Nuclear Repulsion Energy =            117.0721056191119231
    One-Electron Energy =                -492.4737593616691811
    Two-Electron Energy =                 183.4068764788681278
    DFT Exchange-Correlation Energy =       0.0000000000000000
    Empirical Dispersion Energy =           0.0000000000000000
    PCM Polarization Energy =               0.0000000000000000
    EFP Energy =                            0.0000000000000000
    Total Energy =                       -191.9947772636891159
    Molecular point group: c1
  Basis Set: CC-PVTZ
  Basis Set:

  -Total Gradient:
     Atom            X                  Y                   Z
    ------   -----------------  -----------------  -----------------
       1       -0.000017762190    -0.000001320166    -0.000013581584
       2        0.000024974481     0.000021796015     0.000016142073
       3        0.000043838325     0.001009387941     0.001333603099
       4       -0.000111922089    -0.000087902345    -0.001759905732
       5       -0.000030204993    -0.000911587877    -0.000644228167
       6       -0.000015117443     0.000032770656     0.000000999739
       7        0.000125582189    -0.000050271104     0.001083808667
       8        0.000002236414     0.000001099735    -0.000004331294
       9       -0.000015233168     0.000000139178    -0.000006287268
      10       -0.000006391521    -0.000014112032    -0.000006219532

  **** Optimization is complete! (in 5 steps) ****
    Final optimized geometry and variables:
    Molecular point group: c1

    Geometry (in Angstrom), charge = 0, multiplicity = 1:

    H            1.057601758258     1.703316788323    -0.686114705825
    O            1.257305412142     1.200411530387     0.082479177119
    C            0.737259968337    -0.092629106499    -0.041416281816
    C           -0.772217566360    -0.123748674727     0.031073448931
    H            1.157653198696    -0.669756352963     0.770451307814
    H            1.073643257325    -0.553861137824    -0.965703883380
    C           -1.506391349891    -1.212018908569    -0.030190182455
    H           -1.244990983941     0.833854480869     0.167033410289
    H           -1.069361291120    -2.187790726832    -0.152920466761
    H           -2.576317369373    -1.169490478260     0.040869613021

  Mulliken Charges: (a.u.)
   Center  Symbol    Alpha    Beta     Spin     Total
       1     H     0.39248  0.39248  0.00000  0.21504
       2     O     4.20307  4.20307  0.00000 -0.40615
       3     C     2.95061  2.95061  0.00000  0.09877
       4     C     3.08480  3.08480  0.00000 -0.16961
       5     H     0.44925  0.44925  0.00000  0.10149
       6     H     0.46527  0.46527  0.00000  0.06946
       7     C     3.17503  3.17503  0.00000 -0.35006
       8     H     0.41895  0.41895  0.00000  0.16211
       9     H     0.43301  0.43301  0.00000  0.13399
      10     H     0.42752  0.42752  0.00000  0.14496

   Total alpha = 16.00000, Total beta = 16.00000, Total charge =  0.00000
